<LesHouchesEvents version="3.0">
<!--
file generated with POWHEG-BOX-V2
Input file powheg.input contained:
! ggHH production parameters:
mtdep 0              ! 0: Higgs effective field theory (HEFT)

hmass 125            ! Higgs boson mass
topmass 173          ! top quark mass (THIS VALUE IS HARD CODED IN THE VIRTUAL
hdecaymode -1        ! PDG code for Higgs boson decay products (it affects only the SMC)
!                      allowed values are:
!                      0 all decay channels open
!                      1-6 d dbar, u ubar,..., t tbar (as in HERWIG)
!                      7-9 e+ e-, mu+ mu-, tau+ tau-
!                      10  W+W-
!                      11  ZZ
!                      12  gamma gamma
!                      -1  all decay channels closed

! general parameters:
numevts  3000        ! number of events to be generated
ih1         1        ! hadron 1 (1 for protons, -1 for antiprotons)
ih2         1        ! hadron 2 (1 for protons, -1 for antiprotons)
ebeam1 7000d0        ! energy of beam 1
ebeam2 7000d0        ! energy of beam 2
! To be set only if using LHA pdfs
lhans1 90200         ! pdf set for hadron 1 (LHA numbering)
lhans2 90200 	     ! pdf set for hadron 2 (LHA numbering)
! To be set only if using internal mlm pdf
# ndns1 131          ! pdf set for hadron 1 (mlm numbering)
# ndns2 131          ! pdf set for hadron 2 (mlm numbering)
! To be set only if using different pdf sets for the two incoming hadrons
! QCDLambda5 0.25    ! for not equal pdf sets

! Parameters to allow or not the use of stored data
use-old-grid    1    ! if 1 use old grid if file pwggrids.dat is present (<> 1 regenerate)
use-old-ubound  1    ! if 1 use norm of upper bounding function stored in pwgubound.dat, if present;
!
ncall1  10000        ! number of calls for initializing the integration grid
itmx1       3        ! number of iterations for initializing the integration grid
ncall2  10000        ! number of calls for computing the integral and finding upper bound
itmx2       3        ! number of iterations for computing the integral and finding upper bound
foldcsi     1        ! number of folds on csi integration
foldy       1        ! number of folds on  y  integration
foldphi     1        ! number of folds on phi integration
nubound 10000        ! number of bbarra calls to setup norm of upper bounding function
# icsimax   1        ! <= 100, number of csi subdivision when computing the upper bounds
# iymax     1        ! <= 100, number of y subdivision when computing the upper bounds
# xupbound 2d0       ! increase upper bound for radiation generation

! OPTIONAL PARAMETERS

! scale settings:
#fixedscale   1      ! (dafault 0) Use muren = mufac = 2*m_H
facscfact   1d0      ! (default 1d0) fac scale factor: mufact = muref * facscfact
renscfact   1d0      ! (default 1d0) ren scale factor: muren  = muref * renscfact

! Born, plots and powheg strategy:
#bornonly         1  ! (default 0) if 1 do Born only
# testplots 1
fastbtlbound      1  ! fast evaluation of Btilde upper bounds
storemintupb      1  ! store function calls in binary file for more precise generation
ubexcess_correct  1  ! corrects for error in upper bound estimate
storeinfo_rwgt    1  ! store info to allow for reweighting
softtest          0  ! no check of the soft limit in the real
colltest          0  ! no check of the collinear limit in the real

! PARAMETERS needed for ggHH
hdamp           250

! PARAMETERS for parallel runnning
! -- non parallel (for testing purposes only)
#iseed    547        !  Start the random number generator with seed iseed
#rand1     0         !  skipping  rand2*100000000+rand1 numbers.
#rand2     0         !  (see RM48 short writeup in CERNLIB)

! -- parallel
manyseeds 1          ! Used to perform multiple runs with different random
                     ! seeds in the same directory.
                     ! If set to 1, the program asks for an integer j;
                     ! The file pwgseeds.dat at line j is read, and the
                     ! integer at line j is used to initialize the random
                     ! sequence for the generation of the event.
                     ! The event file is called pwgevents-'j'.lhe
parallelstage 4
xgriditeration 1
maxseeds    1000

! PARAMETERS for reweighting
#rwl_file 'reweight_setup.xml'


! PARAMETERS for Pythia8
#py8tune  xxx
#py8hepmc 1
#py8nohad 1
#py8nompi 1
End of powheg.input content
PDF package: lha
 Random number generator initialized with:            1             0             0
-->
<init>
     2212     2212  7.00000E+03  7.00000E+03     -1     -1     -1     -1     -4      1
  3.19670E-02  5.76697E-06  1.00000E+00   9999
</init>
<event>
      5   9999  3.19816E-02  3.34839E+01 -1.00000E+00  1.49798E-01
      21    -1     0     0   511   501  0.000000000E+00  0.000000000E+00  6.086547079E+02  6.086547079E+02  0.000000000E+00  0.00000E+00  9.000E+00
      21    -1     0     0   501   502  0.000000000E+00  0.000000000E+00 -3.450913962E+02  3.450913962E+02  0.000000000E+00  0.00000E+00  9.000E+00
      25     1     1     2     0     0  2.440802201E+02 -3.112742098E+02  2.318065967E+02  4.752116221E+02  1.250000000E+02  0.00000E+00  9.000E+00
      25     1     1     2     0     0 -2.114337025E+02  3.038328880E+02 -4.646286328E+01  3.934494021E+02  1.250000000E+02  0.00000E+00  9.000E+00
      21     1     1     2   511   502 -3.264651767E+01  7.441321789E+00  7.821957835E+01  8.508507991E+01  9.536743164E-07  0.00000E+00  9.000E+00
#rwgt            1           1   3.0667438230100159E-002           1           1           0
</event>
<event>
      5   9999  3.19816E-02  6.12645E+01 -1.00000E+00  1.34221E-01
      21    -1     0     0   512   501  0.000000000E+00  0.000000000E+00  6.932953424E+01  6.932953424E+01  0.000000000E+00  0.00000E+00  9.000E+00
      21    -1     0     0   501   502  0.000000000E+00  0.000000000E+00 -7.354968221E+02  7.354968221E+02  0.000000000E+00  0.00000E+00  9.000E+00
      25     1     1     2     0     0 -1.015759542E+02 -4.563824650E+01 -5.105186980E+02  5.372661026E+02  1.250000000E+02  0.00000E+00  9.000E+00
      25     1     1     2     0     0  5.026804921E+01  7.911722883E+01 -1.077380614E+02  1.897864656E+02  1.250000000E+02  0.00000E+00  9.000E+00
      21     1     1     2   512   502  5.130790501E+01 -3.347898233E+01 -4.791052850E+01  7.777378810E+01  9.536743164E-07  0.00000E+00  9.000E+00
#rwgt            1           1   2.9240004404188200E-002           1         163           0
</event>
<event>
      5   9999  3.19816E-02  3.34501E+01 -1.00000E+00  1.49827E-01
      21    -1     0     0   511   501  0.000000000E+00  0.000000000E+00  9.694113673E+01  9.694113673E+01  0.000000000E+00  0.00000E+00  9.000E+00
      21    -1     0     0   501   502  0.000000000E+00  0.000000000E+00 -4.190391664E+02  4.190391664E+02  0.000000000E+00  0.00000E+00  9.000E+00
      25     1     1     2     0     0  7.212739182E+01  1.053380665E+02 -2.609492803E+02  3.162562186E+02  1.250000000E+02  0.00000E+00  9.000E+00
      25     1     1     2     0     0 -5.246285999E+01 -7.827857588E+01 -4.740717885E+01  1.635613883E+02  1.250000000E+02  0.00000E+00  9.000E+00
      21     1     1     2   511   502 -1.966453183E+01 -2.705949058E+01 -1.374157048E+01  3.616269627E+01  6.078504936E-07  0.00000E+00  9.000E+00
#rwgt            1           1   2.3518917469755853E-002           1         271           0
</event>
<event>
      5   9999  3.19816E-02  5.42057E+01 -1.00000E+00  1.37103E-01
      21    -1     0     0   512   501  0.000000000E+00  0.000000000E+00  3.897260260E+02  3.897260260E+02  0.000000000E+00  0.00000E+00  9.000E+00
      21    -1     0     0   501   502  0.000000000E+00  0.000000000E+00 -3.130689863E+02  3.130689863E+02  0.000000000E+00  0.00000E+00  9.000E+00
      25     1     1     2     0     0 -8.057957265E+00 -3.117113549E+02  5.233927211E+01  3.399901452E+02  1.250000000E+02  0.00000E+00  9.000E+00
      25     1     1     2     0     0 -8.371192361E+00  2.600553733E+02 -2.471208807E+01  2.897146205E+02  1.250000000E+02  0.00000E+00  9.000E+00
      21     1     1     2   512   502  1.642914963E+01  5.165598166E+01  4.902985561E+01  7.309024654E+01  6.743495762E-07  0.00000E+00  9.000E+00
#rwgt            1           1   2.8357254915397385E-002           1         382           0
</event>
<event>
      5   9999  3.19816E-02  4.48511E+01 -1.00000E+00  1.41823E-01
      21    -1     0     0   502   501  0.000000000E+00  0.000000000E+00  3.877041278E+02  3.877041278E+02  0.000000000E+00  0.00000E+00  9.000E+00
      21    -1     0     0   501   511  0.000000000E+00  0.000000000E+00 -7.893010035E+02  7.893010035E+02  0.000000000E+00  0.00000E+00  9.000E+00
      25     1     1     2     0     0  7.168086610E+01  4.536954913E+02 -4.461209612E+02  6.524006878E+02  1.250000000E+02  0.00000E+00  9.000E+00
      25     1     1     2     0     0 -2.909500691E+01 -4.396220562E+02  8.309395100E+01  4.654499720E+02  1.250000000E+02  0.00000E+00  9.000E+00
      21     1     1     2   502   511 -4.258585919E+01 -1.407343509E+01 -3.856986543E+01  5.915447150E+01  4.768371582E-07  0.00000E+00  9.000E+00
#rwgt            1           1   2.5503696436794305E-002           1         473           0
</event>
<event>
      5   9999  3.19816E-02  2.05119E+01 -1.00000E+00  1.65469E-01
      21    -1     0     0   502   512  0.000000000E+00  0.000000000E+00  2.945233274E+02  2.945233274E+02  0.000000000E+00  0.00000E+00  9.000E+00
      21    -1     0     0   501   502  0.000000000E+00  0.000000000E+00 -2.701214935E+02  2.701214935E+02  0.000000000E+00  0.00000E+00  9.000E+00
      25     1     1     2     0     0 -8.530662923E+00  1.541298338E+02  1.850319003E+02  2.714600928E+02  1.250000000E+02  0.00000E+00  9.000E+00
      25     1     1     2     0     0 -9.807578686E-01 -1.723031516E+02 -1.682177031E+02  2.713144552E+02  1.250000000E+02  0.00000E+00  9.000E+00
      21     1     1     2   501   512  9.511420791E+00  1.817331778E+01  7.587636745E+00  2.187027288E+01  2.230201594E-07  0.00000E+00  9.000E+00
#rwgt            1           1   2.7825062933246360E-002           1         650           0
</event>
<event>
      5   9999  3.19816E-02  4.41245E+02 -1.00000E+00  1.00419E-01
      21    -1     0     0   502   501  0.000000000E+00  0.000000000E+00  1.190203921E+03  1.190203921E+03  0.000000000E+00  0.00000E+00  9.000E+00
      21    -1     0     0   501   511  0.000000000E+00  0.000000000E+00 -3.898514851E+02  3.898514851E+02  0.000000000E+00  0.00000E+00  9.000E+00
      25     1     1     2     0     0 -4.989221285E+01 -1.933140221E+02  1.879444662E+02  3.013431042E+02  1.250000000E+02  0.00000E+00  9.000E+00
      25     1     1     2     0     0  2.673734020E+02 -1.906121832E+02  7.401824499E+02  8.193391237E+02  1.250000000E+02  0.00000E+00  9.000E+00
      21     1     1     2   502   511 -2.174811892E+02  3.839262053E+02 -1.277744804E+02  4.593731779E+02  5.394796609E-06  0.00000E+00  9.000E+00
#rwgt            2          11   6.8108067808426622E-003           1        1023           0
</event>
<event>
      5   9999  3.19816E-02  1.30018E+02 -1.00000E+00  1.18909E-01
      21    -1     0     0   502   501  0.000000000E+00  0.000000000E+00  1.648198266E+03  1.648198266E+03  0.000000000E+00  0.00000E+00  9.000E+00
      21    -1     0     0   501   512  0.000000000E+00  0.000000000E+00 -2.795117683E+02  2.795117683E+02  0.000000000E+00  0.00000E+00  9.000E+00
      25     1     1     2     0     0 -4.443919778E+02 -3.083953706E+02  8.072666077E+02  9.797429818E+02  1.250000000E+02  0.00000E+00  9.000E+00
      25     1     1     2     0     0  5.631738113E+02  2.555216253E+02  4.330388915E+02  7.652474921E+02  1.250000000E+02  0.00000E+00  9.000E+00
      21     1     1     2   502   512 -1.187818335E+02  5.287374532E+01  1.283809980E+02  1.827195599E+02  3.814697266E-06  0.00000E+00  9.000E+00
#rwgt            1           1   3.0144788397733564E-002           1        1073           0
</event>
<event>
      5   9999  3.19816E-02  1.75195E+02 -1.00000E+00  1.13782E-01
      21    -1     0     0   502   501  0.000000000E+00  0.000000000E+00  3.563982579E+02  3.563982579E+02  0.000000000E+00  0.00000E+00  9.000E+00
      21    -1     0     0   501   511  0.000000000E+00  0.000000000E+00 -5.583209659E+02  5.583209659E+02  0.000000000E+00  0.00000E+00  9.000E+00
      25     1     1     2     0     0 -2.559787848E+02  7.284468507E+01 -2.875226360E+02  4.112490153E+02  1.250000000E+02  0.00000E+00  9.000E+00
      25     1     1     2     0     0  2.294634187E+02  1.003322124E+02  1.490819130E+02  3.171284127E+02  1.250000000E+02  0.00000E+00  9.000E+00
      21     1     1     2   502   511  2.651536606E+01 -1.731768974E+02 -6.348198506E+01  1.863417958E+02  3.371747881E-06  0.00000E+00  9.000E+00
#rwgt            1           1   3.2626946631357748E-002           1        1201           0
</event>
<event>
      5   9999  3.19816E-02  2.27011E+01 -1.00000E+00  1.61954E-01
      21    -1     0     0   502   501  0.000000000E+00  0.000000000E+00  1.444513340E+02  1.444513340E+02  0.000000000E+00  0.00000E+00  9.000E+00
      21    -1     0     0   501   512  0.000000000E+00  0.000000000E+00 -2.221281272E+02  2.221281272E+02  0.000000000E+00  0.00000E+00  9.000E+00
      25     1     1     2     0     0  5.115890296E+01  1.206285612E+01 -1.149150024E+02  1.777447710E+02  1.250000000E+02  0.00000E+00  9.000E+00
      25     1     1     2     0     0 -4.788212110E+01 -3.452618572E+01  6.517974527E+01  1.528337470E+02  1.250000000E+02  0.00000E+00  9.000E+00
      21     1     1     2   502   512 -3.276781861E+00  2.246332960E+01 -2.794153608E+01  3.600094325E+01  5.840038640E-07  0.00000E+00  9.000E+00
#rwgt            1           1   2.9014327708491338E-002           1        1241           0
</event>
<event>
      5   9999  3.19816E-02  2.18399E+01 -1.00000E+00  1.63276E-01
      21    -1     0     0   511   501  0.000000000E+00  0.000000000E+00  5.862535456E+02  5.862535456E+02  0.000000000E+00  0.00000E+00  9.000E+00
      21    -1     0     0   501   502  0.000000000E+00  0.000000000E+00 -7.085345691E+01  7.085345691E+01  0.000000000E+00  0.00000E+00  9.000E+00
      25     1     1     2     0     0  1.181709161E+02 -4.698359492E+00  3.030033998E+02  3.484573148E+02  1.250000000E+02  0.00000E+00  9.000E+00
      25     1     1     2     0     0 -1.398993957E+02  2.495160722E+00  1.430270568E+02  2.359233047E+02  1.250000000E+02  0.00000E+00  9.000E+00
      21     1     1     2   511   502  2.172847965E+01  2.203198770E+00  6.936963215E+01  7.272638295E+01  1.651812370E-06  0.00000E+00  9.000E+00
#rwgt            1           1   2.7769312086684018E-002           1        1414           0
</event>
<event>
      5   9999  3.19816E-02  1.57429E+02 -1.00000E+00  1.15568E-01
      21    -1     0     0   502   512  0.000000000E+00  0.000000000E+00  1.771205520E+03  1.771205520E+03  0.000000000E+00  0.00000E+00  9.000E+00
      21    -1     0     0   501   502  0.000000000E+00  0.000000000E+00 -2.414987611E+02  2.414987611E+02  0.000000000E+00  0.00000E+00  9.000E+00
      25     1     1     2     0     0 -2.199184333E+02 -5.871877986E+02  6.227851130E+02  8.925468755E+02  1.250000000E+02  0.00000E+00  9.000E+00
      25     1     1     2     0     0  2.149919287E+02  4.298360877E+02  6.372149876E+02  8.078666549E+02  1.250000000E+02  0.00000E+00  9.000E+00
      21     1     1     2   501   512  4.926504552E+00  1.573517108E+02  2.697066581E+02  3.122907504E+02  3.814697266E-06  0.00000E+00  9.000E+00
#rwgt            1           1   2.8278914792481590E-002           1        1600           0
</event>
<event>
      5   9999  3.19816E-02  1.23398E+02 -1.00000E+00  1.19856E-01
      21    -1     0     0   502   501  0.000000000E+00  0.000000000E+00  2.667358310E+02  2.667358310E+02  0.000000000E+00  0.00000E+00  9.000E+00
       1    -1     0     0   501     0  0.000000000E+00  0.000000000E+00 -4.635197435E+02  4.635197435E+02  0.000000000E+00  0.00000E+00  9.000E+00
      25     1     1     2     0     0 -1.291072121E+02 -1.753412538E+02 -8.400306029E+01  2.647541155E+02  1.250000000E+02  0.00000E+00  9.000E+00
      25     1     1     2     0     0  5.766682111E+01  2.759555482E+02 -1.621694626E+01  3.088121050E+02  1.250000000E+02  0.00000E+00  9.000E+00
       1     1     1     2   502     0  7.144039101E+01 -1.006142944E+02 -9.656390596E+01  1.566893539E+02  1.348699152E-06  0.00000E+00  9.000E+00
#rwgt            1           1   3.0262515129379806E-002           1        1712           0
</event>
<event>
      5   9999  3.19816E-02  5.10562E+01 -1.00000E+00  1.38559E-01
      21    -1     0     0   502   501  0.000000000E+00  0.000000000E+00  1.687811001E+03  1.687811001E+03  0.000000000E+00  0.00000E+00  9.000E+00
      21    -1     0     0   501   511  0.000000000E+00  0.000000000E+00 -1.973707446E+02  1.973707446E+02  0.000000000E+00  0.00000E+00  9.000E+00
      25     1     1     2     0     0 -6.564450661E+01  3.947013373E+02  1.206842688E+03  1.277572941E+03  1.250000000E+02  0.00000E+00  9.000E+00
      25     1     1     2     0     0  5.986343956E+01 -4.454292129E+02  2.992274549E+02  5.542137538E+02  1.250000000E+02  0.00000E+00  9.000E+00
      21     1     1     2   502   511  5.781067046E+00  5.072787565E+01 -1.562988616E+01  5.339505076E+01  1.305872339E-06  0.00000E+00  9.000E+00
#rwgt            1           1   2.8924069689756075E-002           1        1789           0
</event>
<event>
      5   9999  3.19816E-02  1.37758E+01 -1.00000E+00  1.80939E-01
      21    -1     0     0   502   501  0.000000000E+00  0.000000000E+00  1.162895523E+02  1.162895523E+02  0.000000000E+00  0.00000E+00  9.000E+00
      21    -1     0     0   501   512  0.000000000E+00  0.000000000E+00 -4.987146779E+02  4.987146779E+02  0.000000000E+00  0.00000E+00  9.000E+00
      25     1     1     2     0     0 -1.452292244E+02 -6.182919307E+01 -7.922565842E+01  2.163702421E+02  1.250000000E+02  0.00000E+00  9.000E+00
      25     1     1     2     0     0  1.489516696E+02  4.856584564E+01 -1.646008124E+02  2.593524025E+02  1.250000000E+02  0.00000E+00  9.000E+00
      21     1     1     2   502   512 -3.722445291E+00  1.326334743E+01 -1.385986547E+02  1.392815856E+02  1.907348633E-06  0.00000E+00  9.000E+00
#rwgt            1           1   2.8039017244864049E-002           1        1926           0
</event>
<event>
      5   9999  3.19816E-02  2.20607E+01 -1.00000E+00  1.62930E-01
      21    -1     0     0   511   501  0.000000000E+00  0.000000000E+00  7.556326464E+02  7.556326464E+02  0.000000000E+00  0.00000E+00  9.000E+00
      21    -1     0     0   501   502  0.000000000E+00  0.000000000E+00 -1.037923159E+03  1.037923159E+03  0.000000000E+00  0.00000E+00  9.000E+00
      25     1     1     2     0     0 -8.577806823E+01  2.555689772E+02 -2.660313109E+02  3.988371064E+02  1.250000000E+02  0.00000E+00  9.000E+00
      25     1     1     2     0     0  6.417226769E+01 -2.600260600E+02 -6.743399456E+02  7.362682895E+02  1.250000000E+02  0.00000E+00  9.000E+00
      21     1     1     2   511   502  2.160580053E+01  4.457082863E+00  6.580807439E+02  6.584504095E+02  1.321449896E-05  0.00000E+00  9.000E+00
#rwgt            1           1   3.0054476086556533E-002           1        2133           0
</event>
<event>
      5   9999  3.19816E-02  1.67636E+02 -1.00000E+00  1.14512E-01
      21    -1     0     0   502   501  0.000000000E+00  0.000000000E+00  2.665952670E+02  2.665952670E+02  0.000000000E+00  0.00000E+00  9.000E+00
      21    -1     0     0   501   512  0.000000000E+00  0.000000000E+00 -9.872391836E+02  9.872391836E+02  0.000000000E+00  0.00000E+00  9.000E+00
      25     1     1     2     0     0 -8.554822921E+01  4.567050972E+02 -1.983794744E+02  5.204588948E+02  1.250000000E+02  0.00000E+00  9.000E+00
      25     1     1     2     0     0  1.273682951E+02 -2.943697810E+02 -3.872103656E+02  5.181053153E+02  1.250000000E+02  0.00000E+00  9.000E+00
      21     1     1     2   502   512 -4.182006591E+01 -1.623353163E+02 -1.350540766E+02  2.152702405E+02  3.814697266E-06  0.00000E+00  9.000E+00
#rwgt            2          11   4.3169356240769889E-003           1        2376           0
</event>
<event>
      5   9999  3.22157E-02  1.96883E+01 -1.00000E+00  1.66934E-01
      21    -1     0     0   502   511  0.000000000E+00  0.000000000E+00  2.441549052E+03  2.441549052E+03  0.000000000E+00  0.00000E+00  9.000E+00
      21    -1     0     0   501   502  0.000000000E+00  0.000000000E+00 -4.638726699E+01  4.638726699E+01  0.000000000E+00  0.00000E+00  9.000E+00
      25     1     1     2     0     0  9.413895362E+01  2.605971503E+02  8.182813800E+02  8.729160522E+02  1.250000000E+02  0.00000E+00  9.000E+00
      25     1     1     2     0     0 -1.110442986E+02 -2.706886769E+02  1.337081039E+03  1.374414021E+03  1.250000000E+02  0.00000E+00  9.000E+00
      21     1     1     2   501   511  1.690534501E+01  1.009152659E+01  2.397993661E+02  2.406062459E+02  3.814697266E-06  0.00000E+00  9.000E+00
#rwgt            1           1   8.8037776740371804E-002           1        2426           0
</event>
<event>
      5   9999  3.19816E-02  2.04460E+01 -1.00000E+00  1.65583E-01
      21    -1     0     0   512   501  0.000000000E+00  0.000000000E+00  3.559087747E+02  3.559087747E+02  0.000000000E+00  0.00000E+00  9.000E+00
      21    -1     0     0   501   502  0.000000000E+00  0.000000000E+00 -4.797758664E+02  4.797758664E+02  0.000000000E+00  0.00000E+00  9.000E+00
      25     1     1     2     0     0  1.900979292E+02  9.832234256E+01 -3.485917999E+02  4.277215785E+02  1.250000000E+02  0.00000E+00  9.000E+00
      25     1     1     2     0     0 -1.725888496E+02 -1.088802363E+02  6.643100544E+01  2.483543745E+02  1.250000000E+02  0.00000E+00  9.000E+00
      21     1     1     2   512   502 -1.750907965E+01  1.055789371E+01  1.582937028E+02  1.596086882E+02  0.000000000E+00  0.00000E+00  9.000E+00
#rwgt            1           1   2.8642472763976714E-002           1        2589           0
</event>
<event>
      5   9999  3.19816E-02  1.12843E+02 -1.00000E+00  1.21513E-01
      21    -1     0     0   502   501  0.000000000E+00  0.000000000E+00  3.981010690E+02  3.981010690E+02  0.000000000E+00  0.00000E+00  9.000E+00
      21    -1     0     0   511   502  0.000000000E+00  0.000000000E+00 -8.510393962E+02  8.510393962E+02  0.000000000E+00  0.00000E+00  9.000E+00
      25     1     1     2     0     0  3.091146696E+02  1.445537892E+00 -5.362671106E+02  6.314755597E+02  1.250000000E+02  0.00000E+00  9.000E+00
      25     1     1     2     0     0 -3.882163995E+02  7.903086931E+01  1.949884157E+02  4.589153881E+02  1.250000000E+02  0.00000E+00  9.000E+00
      21     1     1     2   511   501  7.910172989E+01 -8.047640721E+01 -1.116596323E+02  1.587495174E+02  2.697398305E-06  0.00000E+00  9.000E+00
#rwgt            2          11   5.1229520411855030E-003           1        2912           0
</event>
<event>
      5   9999  3.19816E-02  2.59464E+02 -1.00000E+00  1.07682E-01
       2    -1     0     0   502     0  0.000000000E+00  0.000000000E+00  1.088246327E+03  1.088246327E+03  0.000000000E+00  0.00000E+00  9.000E+00
      21    -1     0     0   501   502  0.000000000E+00  0.000000000E+00 -2.007650146E+02  2.007650146E+02  0.000000000E+00  0.00000E+00  9.000E+00
      25     1     1     2     0     0 -2.682992850E+02  2.104458463E+02  1.074140394E+02  3.787277867E+02  1.250000000E+02  0.00000E+00  9.000E+00
      25     1     1     2     0     0  1.584253280E+02  2.460611647E+01  2.695905954E+02  3.376509065E+02  1.250000000E+02  0.00000E+00  9.000E+00
       2     1     1     2   501     0  1.098739571E+02 -2.350519628E+02  5.104766780E+02  5.726326488E+02  7.629394531E-06  0.00000E+00  9.000E+00
#rwgt            1           1   2.7845885582522632E-002           1        2932           0
</event>
<event>
      5   9999  3.59865E-02  1.94894E+02 -1.00000E+00  1.12058E-01
      21    -1     0     0   502   511  0.000000000E+00  0.000000000E+00  2.901631531E+02  2.901631531E+02  0.000000000E+00  0.00000E+00  9.000E+00
      21    -1     0     0   501   502  0.000000000E+00  0.000000000E+00 -2.635712026E+03  2.635712026E+03  0.000000000E+00  0.00000E+00  9.000E+00
      25     1     1     2     0     0 -9.500135300E+01 -1.534490514E+02 -2.160472687E+03  2.171598282E+03  1.250000000E+02  0.00000E+00  9.000E+00
      25     1     1     2     0     0  8.610721852E+01 -4.124235405E+01 -4.203208693E+02  4.487872748E+02  1.250000000E+02  0.00000E+00  9.000E+00
      21     1     1     2   501   511  8.894134478E+00  1.946914055E+02  2.352446825E+02  3.054896228E+02  1.044697871E-05  0.00000E+00  9.000E+00
#rwgt            1           1   9.4979133278330310E-002           1        2997           0
</event>
<event>
      5   9999  3.19816E-02  3.55359E+02 -1.00000E+00  1.03256E-01
      21    -1     0     0   512   501  0.000000000E+00  0.000000000E+00  1.047187434E+03  1.047187434E+03  0.000000000E+00  0.00000E+00  9.000E+00
      21    -1     0     0   501   502  0.000000000E+00  0.000000000E+00 -3.931607887E+02  3.931607887E+02  0.000000000E+00  0.00000E+00  9.000E+00
      25     1     1     2     0     0 -1.720623124E+02 -4.712426885E+02  7.371867665E+01  5.222399392E+02  1.250000000E+02  0.00000E+00  9.000E+00
      25     1     1     2     0     0 -6.786409595E+01  2.091062658E+02  1.879103249E+01  2.535923280E+02  1.250000000E+02  0.00000E+00  9.000E+00
      21     1     1     2   512   502  2.399264083E+02  2.621364227E+02  5.615169362E+02  6.645159555E+02  7.629394531E-06  0.00000E+00  9.000E+00
#rwgt            1           1   2.4999527591231099E-002           1        3043           0
</event>
<event>
      5   9999  3.19816E-02  4.15932E+01 -1.00000E+00  1.43796E-01
      21    -1     0     0   502   501  0.000000000E+00  0.000000000E+00  4.751508332E+02  4.751508332E+02  0.000000000E+00  0.00000E+00  9.000E+00
      21    -1     0     0   501   511  0.000000000E+00  0.000000000E+00 -1.157174455E+03  1.157174455E+03  0.000000000E+00  0.00000E+00  9.000E+00
      25     1     1     2     0     0 -2.316824324E+02  1.518051458E+02 -9.450562646E+02  9.927123929E+02  1.250000000E+02  0.00000E+00  9.000E+00
      25     1     1     2     0     0  2.164337204E+02 -1.905022869E+02  3.929733531E+02  5.031776355E+02  1.250000000E+02  0.00000E+00  9.000E+00
      21     1     1     2   502   511  1.524871200E+01  3.869714106E+01 -1.299407107E+02  1.364352603E+02  1.907348633E-06  0.00000E+00  9.000E+00
#rwgt            1           1   3.3531476577224675E-002           1        3127           0
</event>
<event>
      5   9999  3.19816E-02  1.92640E+02 -1.00000E+00  1.12244E-01
      21    -1     0     0   502   501  0.000000000E+00  0.000000000E+00  3.170141102E+02  3.170141102E+02  0.000000000E+00  0.00000E+00  9.000E+00
       1    -1     0     0   501     0  0.000000000E+00  0.000000000E+00 -8.000353657E+02  8.000353657E+02  0.000000000E+00  0.00000E+00  9.000E+00
      25     1     1     2     0     0 -2.029415519E+02 -7.748643592E+01 -1.713277073E+02  3.035911799E+02  1.250000000E+02  0.00000E+00  9.000E+00
      25     1     1     2     0     0  3.806949486E+02  3.231693426E+00  4.985188374E+01  4.037936330E+02  1.250000000E+02  0.00000E+00  9.000E+00
       1     1     1     2   502     0 -1.777533966E+02  7.425474250E+01 -3.615454319E+02  4.096646631E+02  0.000000000E+00  0.00000E+00  9.000E+00
#rwgt            1           1   2.7860310910158052E-002           1        3261           0
</event>
<event>
      5   9999  3.19816E-02  3.99994E+01 -1.00000E+00  1.44841E-01
      21    -1     0     0   511   501  0.000000000E+00  0.000000000E+00  4.802628314E+02  4.802628314E+02  0.000000000E+00  0.00000E+00  9.000E+00
      21    -1     0     0   501   502  0.000000000E+00  0.000000000E+00 -2.723028007E+02  2.723028007E+02  0.000000000E+00  0.00000E+00  9.000E+00
      25     1     1     2     0     0 -2.412380330E+02  1.832329515E+02  6.766708773E+01  3.346250706E+02  1.250000000E+02  0.00000E+00  9.000E+00
      25     1     1     2     0     0  2.202711909E+02 -1.491691042E+02  2.394096526E+01  2.949050508E+02  1.250000000E+02  0.00000E+00  9.000E+00
      21     1     1     2   511   502  2.096684206E+01 -3.406384735E+01  1.163519777E+02  1.230355107E+02  2.336015456E-06  0.00000E+00  9.000E+00
#rwgt            1           1   2.7905992911897614E-002           1        3337           0
</event>
<event>
      5   9999  3.19816E-02  1.33598E+01 -1.00000E+00  1.82256E-01
      21    -1     0     0   502   512  0.000000000E+00  0.000000000E+00  2.615180920E+02  2.615180920E+02  0.000000000E+00  0.00000E+00  9.000E+00
      21    -1     0     0   501   502  0.000000000E+00  0.000000000E+00 -1.549024974E+03  1.549024974E+03  0.000000000E+00  0.00000E+00  9.000E+00
      25     1     1     2     0     0  3.632260051E+01  7.570134640E+01 -1.199270636E+03  1.208687339E+03  1.250000000E+02  0.00000E+00  9.000E+00
      25     1     1     2     0     0 -4.910849025E+01 -7.182781776E+01 -3.280446333E+02  3.616754908E+02  1.250000000E+02  0.00000E+00  9.000E+00
      21     1     1     2   501   512  1.278588975E+01 -3.873528639E+00  2.398083873E+02  2.401802361E+02  7.629394531E-06  0.00000E+00  9.000E+00
#rwgt            1           1   2.6811381428187051E-002           1        3437           0
</event>
<event>
      5   9999  3.19816E-02  1.35265E+02 -1.00000E+00  1.18201E-01
      21    -1     0     0   502   501  0.000000000E+00  0.000000000E+00  9.169934987E+02  9.169934987E+02  0.000000000E+00  0.00000E+00  9.000E+00
      21    -1     0     0   511   502  0.000000000E+00  0.000000000E+00 -1.975225207E+02  1.975225207E+02  0.000000000E+00  0.00000E+00  9.000E+00
      25     1     1     2     0     0 -2.906738519E+02 -1.081089017E+02  5.479206218E+02  6.418884877E+02  1.250000000E+02  0.00000E+00  9.000E+00
      25     1     1     2     0     0  2.638141455E+02 -2.446287198E+01  6.411287568E+01  2.998863056E+02  1.250000000E+02  0.00000E+00  9.000E+00
      21     1     1     2   511   501  2.685970642E+01  1.325717737E+02  1.074374805E+02  1.727412262E+02  3.015782986E-06  0.00000E+00  9.000E+00
#rwgt            1           1   2.5174208330373857E-002           1        3613           0
</event>
<event>
      5   9999  3.19816E-02  1.98408E+02 -1.00000E+00  1.11775E-01
      21    -1     0     0   502   501  0.000000000E+00  0.000000000E+00  2.093940801E+03  2.093940801E+03  0.000000000E+00  0.00000E+00  9.000E+00
      21    -1     0     0   512   502  0.000000000E+00  0.000000000E+00 -8.206729427E+02  8.206729427E+02  0.000000000E+00  0.00000E+00  9.000E+00
      25     1     1     2     0     0 -7.358110133E+02 -8.353058010E+02  9.416537699E+02  1.463383221E+03  1.250000000E+02  0.00000E+00  9.000E+00
      25     1     1     2     0     0  7.987866295E+02  6.471575064E+02  5.362368481E+02  1.166210905E+03  1.250000000E+02  0.00000E+00  9.000E+00
      21     1     1     2   512   501 -6.297561617E+01  1.881482946E+02 -2.046227596E+02  2.850196182E+02  3.814697266E-06  0.00000E+00  9.000E+00
#rwgt            1           1   2.7283009218346754E-002           1        3680           0
</event>
<event>
      5   9999  3.19816E-02  9.71445E+00 -1.00000E+00  1.97223E-01
      21    -1     0     0   502   501  0.000000000E+00  0.000000000E+00  1.033335643E+02  1.033335643E+02  0.000000000E+00  0.00000E+00  9.000E+00
      21    -1     0     0   511   502  0.000000000E+00  0.000000000E+00 -8.120731479E+02  8.120731479E+02  0.000000000E+00  0.00000E+00  9.000E+00
      25     1     1     2     0     0 -2.344430430E+02 -6.244943509E+01 -2.900300891E+02  3.982535938E+02  1.250000000E+02  0.00000E+00  9.000E+00
      25     1     1     2     0     0  2.400979088E+02  7.034836450E+01 -3.512418400E+02  4.489896751E+02  1.250000000E+02  0.00000E+00  9.000E+00
      21     1     1     2   511   501 -5.654865845E+00 -7.898929402E+00 -6.746765447E+01  6.816344323E+01  9.536743164E-07  0.00000E+00  9.000E+00
#rwgt            1           1   3.5302236061686421E-002           1        3810           0
</event>
<event>
      5   9999  3.19816E-02  6.18156E+00 -1.00000E+00  2.23480E-01
      21    -1     0     0   502   501  0.000000000E+00  0.000000000E+00  7.158068325E+01  7.158068325E+01  0.000000000E+00  0.00000E+00  9.000E+00
      21    -1     0     0   501   512  0.000000000E+00  0.000000000E+00 -1.667722079E+03  1.667722079E+03  0.000000000E+00  0.00000E+00  9.000E+00
      25     1     1     2     0     0  3.059562938E+02 -2.775495363E+01 -9.572926628E+02  1.013120839E+03  1.250000000E+02  0.00000E+00  9.000E+00
      25     1     1     2     0     0 -3.121377969E+02  2.778032883E+01 -6.141234410E+02  7.006956199E+02  1.250000000E+02  0.00000E+00  9.000E+00
      21     1     1     2   502   512  6.181503101E+00 -2.537519654E-02 -2.472529224E+01  2.548630418E+01  5.840038640E-07  0.00000E+00  9.000E+00
#rwgt            1           1   2.1831714451578561E-002           1        4031           0
</event>
<event>
      5   9999  3.19816E-02  6.78367E+01 -1.00000E+00  1.31915E-01
      21    -1     0     0   502   501  0.000000000E+00  0.000000000E+00  5.488573228E+02  5.488573228E+02  0.000000000E+00  0.00000E+00  9.000E+00
      21    -1     0     0   501   511  0.000000000E+00  0.000000000E+00 -1.976665104E+02  1.976665104E+02  0.000000000E+00  0.00000E+00  9.000E+00
      25     1     1     2     0     0 -8.546161025E+01  2.899500172E+01  9.035384421E+01  1.786986685E+02  1.250000000E+02  0.00000E+00  9.000E+00
      25     1     1     2     0     0  1.515805226E+02 -4.416419460E+01  3.803681937E+02  4.303859822E+02  1.250000000E+02  0.00000E+00  9.000E+00
      21     1     1     2   502   511 -6.611891235E+01  1.516919288E+01 -1.195312256E+02  1.374391825E+02  1.907348633E-06  0.00000E+00  9.000E+00
#rwgt            1           1   3.4152402364831344E-002           1        4273           0
</event>
<event>
      5   9999  3.19816E-02  5.33510E+01 -1.00000E+00  1.37487E-01
      21    -1     0     0   502   512  0.000000000E+00  0.000000000E+00  5.519096205E+02  5.519096205E+02  0.000000000E+00  0.00000E+00  9.000E+00
      21    -1     0     0   501   502  0.000000000E+00  0.000000000E+00 -4.898463444E+02  4.898463444E+02  0.000000000E+00  0.00000E+00  9.000E+00
      25     1     1     2     0     0  3.009752195E+02 -2.892811890E+02 -2.191401717E+02  4.877674691E+02  1.250000000E+02  0.00000E+00  9.000E+00
      25     1     1     2     0     0 -2.726481985E+02  2.440715597E+02  1.543297926E+02  4.163539975E+02  1.250000000E+02  0.00000E+00  9.000E+00
      21     1     1     2   501   512 -2.832702105E+01  4.520962933E+01  1.268736553E+02  1.376344983E+02  2.697398305E-06  0.00000E+00  9.000E+00
#rwgt            1           1   2.9966401547983426E-002           1        4345           0
</event>
<event>
      5   9999  3.19816E-02  8.19287E+01 -1.00000E+00  1.27851E-01
      21    -1     0     0   502   501  0.000000000E+00  0.000000000E+00  1.748783761E+03  1.748783761E+03  0.000000000E+00  0.00000E+00  9.000E+00
      21    -1     0     0   511   502  0.000000000E+00  0.000000000E+00 -3.378158067E+02  3.378158067E+02  0.000000000E+00  0.00000E+00  9.000E+00
      25     1     1     2     0     0  3.841503009E+02  3.896195901E+02  7.836963102E+01  5.666936366E+02  1.250000000E+02  0.00000E+00  9.000E+00
      25     1     1     2     0     0 -3.467626909E+02 -4.625200366E+02  1.306150339E+03  1.433814094E+03  1.250000000E+02  0.00000E+00  9.000E+00
      21     1     1     2   511   501 -3.738761004E+01  7.290044654E+01  2.644798363E+01  8.609183659E+01  1.390207266E-06  0.00000E+00  9.000E+00
#rwgt            1           1   2.9827433905842565E-002           1        4459           0
</event>
<event>
      5   9999  3.19816E-02  1.61962E+02 -1.00000E+00  1.15088E-01
       2    -1     0     0   502     0  0.000000000E+00  0.000000000E+00  6.285963557E+02  6.285963557E+02  0.000000000E+00  0.00000E+00  9.000E+00
      21    -1     0     0   501   502  0.000000000E+00  0.000000000E+00 -1.705183692E+02  1.705183692E+02  0.000000000E+00  0.00000E+00  9.000E+00
      25     1     1     2     0     0  6.083320243E+01 -1.196484543E+02 -5.682402959E+01  1.920166698E+02  1.250000000E+02  0.00000E+00  9.000E+00
      25     1     1     2     0     0  2.204281786E+01 -1.950363125E+01  1.034071818E+02  1.648766894E+02  1.250000000E+02  0.00000E+00  9.000E+00
       2     1     1     2   501     0 -8.287602029E+01  1.391520855E+02  4.114948343E+02  4.422213658E+02  5.394796609E-06  0.00000E+00  9.000E+00
#rwgt            2          18   1.2864509242012873E-003           1        4840           0
</event>
<event>
      5   9999  3.19816E-02  3.11632E+02 -1.00000E+00  1.05058E-01
      21    -1     0     0   502   501  0.000000000E+00  0.000000000E+00  2.532326030E+03  2.532326030E+03  0.000000000E+00  0.00000E+00  9.000E+00
      21    -1     0     0   511   502  0.000000000E+00  0.000000000E+00 -1.863750221E+02  1.863750221E+02  0.000000000E+00  0.00000E+00  9.000E+00
      25     1     1     2     0     0 -5.658594913E+02 -1.910909640E+01  1.004315344E+03  1.159670829E+03  1.250000000E+02  0.00000E+00  9.000E+00
      25     1     1     2     0     0  2.775734652E+02 -9.923580392E+01  1.148742163E+03  1.192530222E+03  1.250000000E+02  0.00000E+00  9.000E+00
      21     1     1     2   511   501  2.882860261E+02  1.183449003E+02  1.928935015E+02  3.665000016E+02  7.136645101E-06  0.00000E+00  9.000E+00
#rwgt            1           1   3.2419114042030600E-002           1        4889           0
</event>
<event>
      5   9999  3.19816E-02  8.74325E+00 -1.00000E+00  2.02751E-01
      21    -1     0     0   502   501  0.000000000E+00  0.000000000E+00  6.798614007E+02  6.798614007E+02  0.000000000E+00  0.00000E+00  9.000E+00
      21    -1     0     0   512   502  0.000000000E+00  0.000000000E+00 -5.929774362E+02  5.929774362E+02  0.000000000E+00  0.00000E+00  9.000E+00
      25     1     1     2     0     0 -4.216360546E+02 -3.760175434E+02 -1.317874315E+02  5.934299307E+02  1.250000000E+02  0.00000E+00  9.000E+00
      25     1     1     2     0     0  4.193849093E+02  3.844660154E+02  2.594662309E+02  6.376876541E+02  1.250000000E+02  0.00000E+00  9.000E+00
      21     1     1     2   512   501  2.251145287E+00 -8.448472009E+00 -4.079483479E+01  4.172125214E+01  0.000000000E+00  0.00000E+00  9.000E+00
#rwgt            1           1   3.0258011331552741E-002           1        4925           0
</event>
<event>
      5   9999  3.19816E-02  3.45000E+00 -1.00000E+00  2.79587E-01
      21    -1     0     0   502   501  0.000000000E+00  0.000000000E+00  9.191811555E+02  9.191811555E+02  0.000000000E+00  0.00000E+00  9.000E+00
      21    -1     0     0   501   511  0.000000000E+00  0.000000000E+00 -1.101625677E+02  1.101625677E+02  0.000000000E+00  0.00000E+00  9.000E+00
      25     1     1     2     0     0  9.624394835E+01 -2.244366448E+02  6.554029836E+02  7.105017777E+02  1.250000000E+02  0.00000E+00  9.000E+00
      25     1     1     2     0     0 -9.379342257E+01  2.268651055E+02  1.493688794E+02  3.133704586E+02  1.250000000E+02  0.00000E+00  9.000E+00
      21     1     1     2   502   511 -2.450525781E+00 -2.428460701E+00  4.246724762E+00  5.471486926E+00  8.429369702E-08  0.00000E+00  9.000E+00
#rwgt            1           1   2.7124635232988352E-002           1        5325           0
</event>
<event>
      5   9999  3.19816E-02  2.19946E+01 -1.00000E+00  1.63033E-01
       1    -1     0     0   502     0  0.000000000E+00  0.000000000E+00  2.725018832E+03  2.725018832E+03  0.000000000E+00  0.00000E+00  9.000E+00
      21    -1     0     0   501   502  0.000000000E+00  0.000000000E+00 -1.129314077E+03  1.129314077E+03  0.000000000E+00  0.00000E+00  9.000E+00
      25     1     1     2     0     0 -2.307285237E+02 -1.384920204E+02 -7.750456725E+02  8.299014916E+02  1.250000000E+02  0.00000E+00  9.000E+00
      25     1     1     2     0     0  2.380176577E+02  1.177403214E+02 -2.608967212E+02  3.926923577E+02  1.250000000E+02  0.00000E+00  9.000E+00
       1     1     1     2   501     0 -7.289134087E+00  2.075169899E+01  2.631647148E+03  2.631739060E+03  5.285799584E-05  0.00000E+00  9.000E+00
#rwgt            1           1   3.2053338594051087E-002           1        5834           0
</event>
<event>
      5   9999  3.19816E-02  6.43667E+01 -1.00000E+00  1.33093E-01
       1    -1     0     0   502     0  0.000000000E+00  0.000000000E+00  8.785983005E+02  8.785983005E+02  0.000000000E+00  0.00000E+00  9.000E+00
      21    -1     0     0   501   502  0.000000000E+00  0.000000000E+00 -7.083346845E+02  7.083346845E+02  0.000000000E+00  0.00000E+00  9.000E+00
      25     1     1     2     0     0  1.150767022E+02  1.346391071E+02 -1.856214851E+02  2.853956416E+02  1.250000000E+02  0.00000E+00  9.000E+00
      25     1     1     2     0     0 -1.399378738E+02 -7.526739359E+01 -4.498729880E+02  4.932124232E+02  1.250000000E+02  0.00000E+00  9.000E+00
       1     1     1     2   501     0  2.486117167E+01 -5.937171352E+01  8.057580892E+02  8.083249201E+02  1.078959322E-05  0.00000E+00  9.000E+00
#rwgt            1           1   2.5985378119227524E-002           1        6025           0
</event>
<event>
      5   9999  3.19816E-02  2.35293E+02 -1.00000E+00  1.09138E-01
      21    -1     0     0   502   511  0.000000000E+00  0.000000000E+00  3.764712030E+02  3.764712030E+02  0.000000000E+00  0.00000E+00  9.000E+00
      21    -1     0     0   501   502  0.000000000E+00  0.000000000E+00 -6.249590734E+02  6.249590734E+02  0.000000000E+00  0.00000E+00  9.000E+00
      25     1     1     2     0     0  1.405504209E+02 -2.839392265E+02  1.030603538E+02  3.558403318E+02  1.250000000E+02  0.00000E+00  9.000E+00
      25     1     1     2     0     0 -2.342812525E+02  6.812195927E+01 -2.967563938E+02  4.040020593E+02  1.250000000E+02  0.00000E+00  9.000E+00
      21     1     1     2   501   511  9.373083166E+01  2.158172673E+02 -5.479183043E+01  2.415878853E+02  2.236564522E-06  0.00000E+00  9.000E+00
#rwgt            1           1   2.8053120794849416E-002           1        6080           0
</event>
<event>
      5   9999  3.19816E-02  3.90816E+01 -1.00000E+00  1.45469E-01
      21    -1     0     0   512   501  0.000000000E+00  0.000000000E+00  5.237878591E+02  5.237878591E+02  0.000000000E+00  0.00000E+00  9.000E+00
      21    -1     0     0   501   502  0.000000000E+00  0.000000000E+00 -5.904356337E+02  5.904356337E+02  0.000000000E+00  0.00000E+00  9.000E+00
      25     1     1     2     0     0 -4.565067689E+02  2.076275972E+01 -1.501320539E+02  4.969850661E+02  1.250000000E+02  0.00000E+00  9.000E+00
      25     1     1     2     0     0  4.785008082E+02 -5.306812832E+01 -2.891631908E+01  4.982372961E+02  1.250000000E+02  0.00000E+00  9.000E+00
      21     1     1     2   512   502 -2.199403927E+01  3.230536860E+01  1.124005984E+02  1.190011307E+02  1.348699152E-06  0.00000E+00  9.000E+00
#rwgt            1           1   2.6097517369444444E-002           1        6133           0
</event>
<event>
      5   9999  3.19816E-02  1.51523E+02 -1.00000E+00  1.16220E-01
      21    -1     0     0   502   501  0.000000000E+00  0.000000000E+00  1.232887149E+03  1.232887149E+03  0.000000000E+00  0.00000E+00  9.000E+00
      21    -1     0     0   501   511  0.000000000E+00  0.000000000E+00 -2.476192277E+02  2.476192277E+02  0.000000000E+00  0.00000E+00  9.000E+00
      25     1     1     2     0     0 -5.714129408E+01 -2.318911078E+02  3.614618379E+02  4.509082763E+02  1.250000000E+02  0.00000E+00  9.000E+00
      25     1     1     2     0     0 -7.897327278E+01  1.653177578E+02  7.806332506E+02  8.115294269E+02  1.250000000E+02  0.00000E+00  9.000E+00
      21     1     1     2   502   511  1.361145669E+02  6.657335006E+01 -1.568271668E+02  2.180686738E+02  3.303624740E-06  0.00000E+00  9.000E+00
#rwgt            2          11   7.7489314339816732E-003           1        6349           0
</event>
<event>
      5   9999  3.19816E-02  6.29672E+01 -1.00000E+00  1.33593E-01
      21    -1     0     0   502   501  0.000000000E+00  0.000000000E+00  2.477714889E+02  2.477714889E+02  0.000000000E+00  0.00000E+00  9.000E+00
      21    -1     0     0   501   512  0.000000000E+00  0.000000000E+00 -1.764954600E+02  1.764954600E+02  0.000000000E+00  0.00000E+00  9.000E+00
      25     1     1     2     0     0  8.885797558E+01  3.236853882E+01 -2.618841990E+00  1.567651762E+02  1.250000000E+02  0.00000E+00  9.000E+00
      25     1     1     2     0     0 -2.965762976E+01 -1.091661357E+01  1.300511241E+02  1.831312162E+02  1.250000000E+02  0.00000E+00  9.000E+00
      21     1     1     2   502   512 -5.920034583E+01 -2.145192524E+01 -5.615625319E+01  8.437055656E+01  6.743495762E-07  0.00000E+00  9.000E+00
#rwgt            1           1   5.0918823259067908E-002           1        6369           0
</event>
<event>
      5   9999  3.19816E-02  5.66596E+01 -1.00000E+00  1.36046E-01
      21    -1     0     0   502   501  0.000000000E+00  0.000000000E+00  2.710445564E+02  2.710445564E+02  0.000000000E+00  0.00000E+00  9.000E+00
      21    -1     0     0   511   502  0.000000000E+00  0.000000000E+00 -5.869344219E+02  5.869344219E+02  0.000000000E+00  0.00000E+00  9.000E+00
      25     1     1     2     0     0 -1.288716362E+02  3.007416878E+01  1.953514222E+02  2.670197229E+02  1.250000000E+02  0.00000E+00  9.000E+00
      25     1     1     2     0     0  1.716129917E+02 -6.726944264E+01 -3.087729410E+02  3.807123927E+02  1.250000000E+02  0.00000E+00  9.000E+00
      21     1     1     2   511   501 -4.274135550E+01  3.719527386E+01 -2.024683467E+02  2.102468627E+02  3.814697266E-06  0.00000E+00  9.000E+00
#rwgt            1           1   2.6973909960792970E-002           1        6467           0
</event>
<event>
      5   9999  3.19816E-02  2.38975E+02 -1.00000E+00  1.08904E-01
      21    -1     0     0   502   512  0.000000000E+00  0.000000000E+00  2.123732234E+02  2.123732234E+02  0.000000000E+00  0.00000E+00  9.000E+00
      21    -1     0     0   501   502  0.000000000E+00  0.000000000E+00 -2.119437164E+03  2.119437164E+03  0.000000000E+00  0.00000E+00  9.000E+00
      25     1     1     2     0     0  2.461366820E+02 -1.672622008E+02 -1.925013210E+03  1.951886464E+03  1.250000000E+02  0.00000E+00  9.000E+00
      25     1     1     2     0     0 -4.589890372E+01  3.682483233E+01  2.702379308E+01  1.407766423E+02  1.250000000E+02  0.00000E+00  9.000E+00
      21     1     1     2   501   512 -2.002377783E+02  1.304373685E+02 -9.074523642E+00  2.391472808E+02  4.477891915E-06  0.00000E+00  9.000E+00
#rwgt            1           1   3.2181914496951132E-002           1        6554           0
</event>
<event>
      5   9999  3.19816E-02  2.72258E+01 -1.00000E+00  1.56026E-01
      21    -1     0     0   502   501  0.000000000E+00  0.000000000E+00  7.132741066E+02  7.132741066E+02  0.000000000E+00  0.00000E+00  9.000E+00
      21    -1     0     0   511   502  0.000000000E+00  0.000000000E+00 -1.255251709E+02  1.255251709E+02  0.000000000E+00  0.00000E+00  9.000E+00
      25     1     1     2     0     0 -2.283175941E+02 -8.930052424E+00  1.487093956E+02  2.999135775E+02  1.250000000E+02  0.00000E+00  9.000E+00
      25     1     1     2     0     0  2.494112276E+02  2.614352828E+01  4.226822957E+02  5.071240160E+02  1.250000000E+02  0.00000E+00  9.000E+00
      21     1     1     2   511   501 -2.109363344E+01 -1.721347586E+01  1.635724442E+01  3.176168396E+01  3.371747881E-07  0.00000E+00  9.000E+00
#rwgt            1           1   2.9066865519355854E-002           1        6592           0
</event>
<event>
      5   9999  3.19816E-02  2.62977E+01 -1.00000E+00  1.57122E-01
      21    -1     0     0   502   501  0.000000000E+00  0.000000000E+00  3.202475501E+02  3.202475501E+02  0.000000000E+00  0.00000E+00  9.000E+00
      21    -1     0     0   501   512  0.000000000E+00  0.000000000E+00 -2.760963372E+02  2.760963372E+02  0.000000000E+00  0.00000E+00  9.000E+00
      25     1     1     2     0     0  9.287366526E+01  9.454278126E+01 -1.837214574E+02  2.587323503E+02  1.250000000E+02  0.00000E+00  9.000E+00
      25     1     1     2     0     0 -1.147517304E+02 -7.995111202E+01  2.432301286E+02  3.071579974E+02  1.250000000E+02  0.00000E+00  9.000E+00
      21     1     1     2   502   512  2.187806512E+01 -1.459166924E+01 -1.535745820E+01  3.045353948E+01  4.129530925E-07  0.00000E+00  9.000E+00
#rwgt            1           1   3.2370043714265294E-002           1        6706           0
</event>
<event>
      5   9999  3.19816E-02  1.71868E+02 -1.00000E+00  1.14098E-01
      21    -1     0     0   502   501  0.000000000E+00  0.000000000E+00  6.007216007E+02  6.007216007E+02  0.000000000E+00  0.00000E+00  9.000E+00
      21    -1     0     0   511   502  0.000000000E+00  0.000000000E+00 -3.269896332E+02  3.269896332E+02  0.000000000E+00  0.00000E+00  9.000E+00
      25     1     1     2     0     0  8.892427041E+01  3.168843483E+02  3.106997375E+02  4.695556868E+02  1.250000000E+02  0.00000E+00  9.000E+00
      25     1     1     2     0     0 -1.301670529E+01 -1.626872682E+02  1.089829387E+02  2.326775941E+02  1.250000000E+02  0.00000E+00  9.000E+00
      21     1     1     2   511   501 -7.590756512E+01 -1.541970801E+02 -1.459507087E+02  2.254779531E+02  3.814697266E-06  0.00000E+00  9.000E+00
#rwgt            1           1   2.4221660672153509E-002           1        6831           0
</event>
<event>
      5   9999  3.19816E-02  1.03414E+02 -1.00000E+00  1.23176E-01
      21    -1     0     0   502   501  0.000000000E+00  0.000000000E+00  3.480832734E+02  3.480832734E+02  0.000000000E+00  0.00000E+00  9.000E+00
      21    -1     0     0   501   512  0.000000000E+00  0.000000000E+00 -8.160961157E+02  8.160961157E+02  0.000000000E+00  0.00000E+00  9.000E+00
      25     1     1     2     0     0  8.877976229E+01  1.446121243E+02  2.961191272E+01  2.128294577E+02  1.250000000E+02  0.00000E+00  9.000E+00
      25     1     1     2     0     0 -1.388472555E+02 -5.412571037E+01  1.805179030E+02  2.653674174E+02  1.250000000E+02  0.00000E+00  9.000E+00
      21     1     1     2   502   512  5.006749322E+01 -9.048641390E+01 -6.781426581E+02  6.859825141E+02  7.629394531E-06  0.00000E+00  9.000E+00
#rwgt            1           1   2.7989600843944161E-002           1        6900           0
</event>
<event>
      5   9999  3.19816E-02  6.55927E+01 -1.00000E+00  1.32667E-01
      21    -1     0     0   511   501  0.000000000E+00  0.000000000E+00  5.793404247E+02  5.793404247E+02  0.000000000E+00  0.00000E+00  9.000E+00
      21    -1     0     0   501   502  0.000000000E+00  0.000000000E+00 -1.844369245E+02  1.844369245E+02  0.000000000E+00  0.00000E+00  9.000E+00
      25     1     1     2     0     0  1.672128693E+02  1.225098011E+02  2.564554195E+02  3.526516372E+02  1.250000000E+02  0.00000E+00  9.000E+00
      25     1     1     2     0     0 -2.253355911E+02 -1.529096310E+02  5.443845355E+01  3.045423273E+02  1.250000000E+02  0.00000E+00  9.000E+00
      21     1     1     2   511   502  5.812272177E+01  3.039982993E+01  8.400962714E+01  1.065833847E+02  9.536743164E-07  0.00000E+00  9.000E+00
#rwgt            1           1   2.7170602911962580E-002           1        6979           0
</event>
<event>
      5   9999  3.19816E-02  3.49188E+01 -1.00000E+00  1.48597E-01
       2    -1     0     0   502     0  0.000000000E+00  0.000000000E+00  1.612276972E+03  1.612276972E+03  0.000000000E+00  0.00000E+00  9.000E+00
      21    -1     0     0   501   502  0.000000000E+00  0.000000000E+00 -1.115881794E+02  1.115881794E+02  0.000000000E+00  0.00000E+00  9.000E+00
      25     1     1     2     0     0  2.882892035E+02  5.793370308E-01  2.701201413E+02  4.143680625E+02  1.250000000E+02  0.00000E+00  9.000E+00
      25     1     1     2     0     0 -2.925093136E+02 -3.524221776E+01  6.181861525E+02  6.961198400E+02  1.250000000E+02  0.00000E+00  9.000E+00
       2     1     1     2   501     0  4.220110088E+00  3.466288073E+01  6.123824985E+02  6.133772486E+02  7.629394531E-06  0.00000E+00  9.000E+00
#rwgt            1           1   2.8179391587222626E-002           1        7057           0
</event>
<event>
      5   9999  3.19816E-02  1.16728E+02 -1.00000E+00  1.20880E-01
      21    -1     0     0   511   501  0.000000000E+00  0.000000000E+00  6.065842778E+02  6.065842778E+02  0.000000000E+00  0.00000E+00  9.000E+00
      21    -1     0     0   501   502  0.000000000E+00  0.000000000E+00 -2.843911160E+02  2.843911160E+02  0.000000000E+00  0.00000E+00  9.000E+00
      25     1     1     2     0     0 -2.182427317E+02 -1.250632060E+02  1.167944967E+02  3.041983726E+02  1.250000000E+02  0.00000E+00  9.000E+00
      25     1     1     2     0     0  2.517321846E+02  2.368840223E+02  2.053356627E+01  3.681436678E+02  1.250000000E+02  0.00000E+00  9.000E+00
      21     1     1     2   511   502 -3.348945291E+01 -1.118208164E+02  1.848650988E+02  2.186333534E+02  2.697398305E-06  0.00000E+00  9.000E+00
#rwgt            1           1   2.8175341141437674E-002           1        7196           0
</event>
<event>
      5   9999  3.19816E-02  1.03837E+02 -1.00000E+00  1.23097E-01
      21    -1     0     0   502   501  0.000000000E+00  0.000000000E+00  1.050001289E+03  1.050001289E+03  0.000000000E+00  0.00000E+00  9.000E+00
      -2    -1     0     0     0   502  0.000000000E+00  0.000000000E+00 -3.088846165E+02  3.088846165E+02  0.000000000E+00  0.00000E+00  9.000E+00
      25     1     1     2     0     0 -9.493659877E+01 -4.766867274E+02  1.157874252E+02  5.150484654E+02  1.250000000E+02  0.00000E+00  9.000E+00
      25     1     1     2     0     0  1.329939341E+01  4.125194423E+02  5.965211153E+02  7.360785319E+02  1.250000000E+02  0.00000E+00  9.000E+00
      -2     1     1     2     0   501  8.163720536E+01  6.416728509E+01  2.880813159E+01  1.077589078E+02  1.815741803E-06  0.00000E+00  9.000E+00
#rwgt            1           1   2.9067635667248511E-002           1        7242           0
</event>
<event>
      5   9999  3.19816E-02  1.00278E+02 -1.00000E+00  1.23774E-01
       2    -1     0     0   502     0  0.000000000E+00  0.000000000E+00  2.939867348E+02  2.939867348E+02  0.000000000E+00  0.00000E+00  9.000E+00
      21    -1     0     0   501   502  0.000000000E+00  0.000000000E+00 -4.959513719E+02  4.959513719E+02  0.000000000E+00  0.00000E+00  9.000E+00
      25     1     1     2     0     0  2.550038468E+01 -1.221484525E+02 -3.196547523E+02  3.652049763E+02  1.250000000E+02  0.00000E+00  9.000E+00
      25     1     1     2     0     0  6.913828873E+01  8.899441713E+01 -9.235739238E+01  1.919765537E+02  1.250000000E+02  0.00000E+00  9.000E+00
       2     1     1     2   501     0 -9.463867341E+01  3.315403538E+01  2.100475075E+02  2.327565767E+02  2.697398305E-06  0.00000E+00  9.000E+00
#rwgt            2          18   4.8673364467767256E-004           1        7362           0
</event>
<event>
      5   9999  3.19816E-02  1.44705E+02 -1.00000E+00  1.17016E-01
      21    -1     0     0   502   501  0.000000000E+00  0.000000000E+00  1.626613242E+03  1.626613242E+03  0.000000000E+00  0.00000E+00  9.000E+00
      21    -1     0     0   511   502  0.000000000E+00  0.000000000E+00 -4.689400065E+02  4.689400065E+02  0.000000000E+00  0.00000E+00  9.000E+00
      25     1     1     2     0     0  6.298543268E+02  3.196572403E+02  5.688416888E+02  9.154797055E+02  1.250000000E+02  0.00000E+00  9.000E+00
      25     1     1     2     0     0 -7.229599111E+02 -4.304310394E+02  5.902600146E+02  1.035361675E+03  1.250000000E+02  0.00000E+00  9.000E+00
      21     1     1     2   511   501  9.310558432E+01  1.107737991E+02 -1.428467541E+00  1.447118686E+02  3.046549603E-06  0.00000E+00  9.000E+00
#rwgt            1           1   3.0551070931418390E-002           1        7381           0
</event>
<event>
      5   9999  3.19816E-02  1.05941E+02 -1.00000E+00  1.22711E-01
      21    -1     0     0   512   501  0.000000000E+00  0.000000000E+00  5.229263795E+02  5.229263795E+02  0.000000000E+00  0.00000E+00  9.000E+00
      21    -1     0     0   501   502  0.000000000E+00  0.000000000E+00 -1.098964973E+02  1.098964973E+02  0.000000000E+00  0.00000E+00  9.000E+00
      25     1     1     2     0     0  5.479630228E+01 -1.597162111E+02  1.221201578E+02  2.430025427E+02  1.250000000E+02  0.00000E+00  9.000E+00
      25     1     1     2     0     0 -7.021895135E+01  5.490431176E+01  1.742972478E+02  2.322707798E+02  1.250000000E+02  0.00000E+00  9.000E+00
      21     1     1     2   512   502  1.542264908E+01  1.048118994E+02  1.166124766E+02  1.575495543E+02  1.907348633E-06  0.00000E+00  9.000E+00
#rwgt            1           1   3.3133040002355632E-002           1        7441           0
</event>
<event>
      5   9999  3.19816E-02  3.46272E+01 -1.00000E+00  1.48835E-01
       2    -1     0     0   502     0  0.000000000E+00  0.000000000E+00  2.295335347E+03  2.295335347E+03  0.000000000E+00  0.00000E+00  9.000E+00
      21    -1     0     0   501   502  0.000000000E+00  0.000000000E+00 -1.883569830E+02  1.883569830E+02  0.000000000E+00  0.00000E+00  9.000E+00
      25     1     1     2     0     0  2.196539906E+02 -2.340700437E+02  3.070703986E+01  3.458389556E+02  1.250000000E+02  0.00000E+00  9.000E+00
      25     1     1     2     0     0 -1.946410639E+02  2.580158027E+02  9.529755990E+02  1.014024058E+03  1.250000000E+02  0.00000E+00  9.000E+00
       2     1     1     2   501     0 -2.501292667E+01 -2.394575906E+01  1.123295726E+03  1.123829317E+03  1.525878906E-05  0.00000E+00  9.000E+00
#rwgt            1           1   3.0661159516567758E-002           1        7487           0
</event>
<event>
      5   9999  3.19816E-02  6.63312E+01 -1.00000E+00  1.32416E-01
      21    -1     0     0   511   501  0.000000000E+00  0.000000000E+00  4.832279419E+02  4.832279419E+02  0.000000000E+00  0.00000E+00  9.000E+00
      21    -1     0     0   501   502  0.000000000E+00  0.000000000E+00 -5.714689642E+02  5.714689642E+02  0.000000000E+00  0.00000E+00  9.000E+00
      25     1     1     2     0     0  2.322895275E+01 -1.087379591E+02 -4.987106383E+02  5.260236010E+02  1.250000000E+02  0.00000E+00  9.000E+00
      25     1     1     2     0     0 -8.955305932E+01  1.077646726E+02  1.030717503E+02  2.142002820E+02  1.250000000E+02  0.00000E+00  9.000E+00
      21     1     1     2   511   502  6.632410657E+01  9.732864433E-01  3.073978658E+02  3.144730232E+02  3.814697266E-06  0.00000E+00  9.000E+00
#rwgt            1           1   2.6672625676595910E-002           1        7652           0
</event>
<event>
      5   9999  3.19816E-02  5.05838E+01 -1.00000E+00  1.38788E-01
      21    -1     0     0   502   512  0.000000000E+00  0.000000000E+00  1.786983080E+03  1.786983080E+03  0.000000000E+00  0.00000E+00  9.000E+00
      21    -1     0     0   501   502  0.000000000E+00  0.000000000E+00 -4.080416891E+01  4.080416891E+01  0.000000000E+00  0.00000E+00  9.000E+00
      25     1     1     2     0     0 -1.829317749E+02 -2.146486297E+01  1.082708746E+03  1.105354243E+03  1.250000000E+02  0.00000E+00  9.000E+00
      25     1     1     2     0     0  1.804925968E+02  7.198979013E+01  4.900804886E+02  5.418154600E+02  1.250000000E+02  0.00000E+00  9.000E+00
      21     1     1     2   501   512  2.439178062E+00 -5.052492715E+01  1.733896767E+02  1.806175457E+02  1.907348633E-06  0.00000E+00  9.000E+00
#rwgt            1           1   3.1345294785444164E-002           1        7736           0
</event>
<event>
      5   9999  3.19816E-02  9.11289E+01 -1.00000E+00  1.25670E-01
      21    -1     0     0   511   501  0.000000000E+00  0.000000000E+00  5.249421458E+02  5.249421458E+02  0.000000000E+00  0.00000E+00  9.000E+00
      21    -1     0     0   501   502  0.000000000E+00  0.000000000E+00 -2.903129901E+03  2.903129901E+03  0.000000000E+00  0.00000E+00  9.000E+00
      25     1     1     2     0     0  5.718816300E+02 -7.816835875E+02 -1.419196709E+03  1.722736814E+03  1.250000000E+02  0.00000E+00  9.000E+00
      25     1     1     2     0     0 -5.091752921E+02  7.155594743E+02 -1.174206239E+03  1.471621599E+03  1.250000000E+02  0.00000E+00  9.000E+00
      21     1     1     2   511   502 -6.270633790E+01  6.612411316E+01  2.152151933E+02  2.337136337E+02  7.136645101E-06  0.00000E+00  9.000E+00
#rwgt            1           1   2.3653987105285074E-002           1        7831           0
</event>
<event>
      5   9999  3.19816E-02  1.83297E+01 -1.00000E+00  1.69556E-01
      21    -1     0     0   502   512  0.000000000E+00  0.000000000E+00  4.035348646E+02  4.035348646E+02  0.000000000E+00  0.00000E+00  9.000E+00
      21    -1     0     0   501   502  0.000000000E+00  0.000000000E+00 -3.913465600E+02  3.913465600E+02  0.000000000E+00  0.00000E+00  9.000E+00
      25     1     1     2     0     0 -2.261221008E+02 -1.652434762E+02 -2.229753676E+02  3.791828391E+02  1.250000000E+02  0.00000E+00  9.000E+00
      25     1     1     2     0     0  2.353891003E+02  1.810580793E+02  2.321434686E+02  3.971217025E+02  1.250000000E+02  0.00000E+00  9.000E+00
      21     1     1     2   501   512 -9.266999493E+00 -1.581460312E+01  3.020203621E+00  1.857688298E+01  2.632069846E-07  0.00000E+00  9.000E+00
#rwgt            1           1   2.9395871291347381E-002           1        7963           0
</event>
<event>
      5   9999  3.19816E-02  1.22849E+02 -1.00000E+00  1.19937E-01
      21    -1     0     0   502   511  0.000000000E+00  0.000000000E+00  1.007204566E+03  1.007204566E+03  0.000000000E+00  0.00000E+00  9.000E+00
      21    -1     0     0   501   502  0.000000000E+00  0.000000000E+00 -6.009915700E+02  6.009915700E+02  0.000000000E+00  0.00000E+00  9.000E+00
      25     1     1     2     0     0  3.878347126E+01 -2.919384439E+02 -4.855717557E+02  5.814956084E+02  1.250000000E+02  0.00000E+00  9.000E+00
      25     1     1     2     0     0  5.876212059E+01  2.172614507E+02  2.052298846E+02  3.292412950E+02  1.250000000E+02  0.00000E+00  9.000E+00
      21     1     1     2   501   511 -9.754559185E+01  7.467699317E+01  6.865548668E+02  6.974592324E+02  0.000000000E+00  0.00000E+00  9.000E+00
#rwgt            1           1   2.5697999129570614E-002           1        8151           0
</event>
<event>
      5   9999  3.19816E-02  5.67057E+02 -1.00000E+00  9.73237E-02
      21    -1     0     0   502   501  0.000000000E+00  0.000000000E+00  8.046041071E+02  8.046041071E+02  0.000000000E+00  0.00000E+00  9.000E+00
      21    -1     0     0   512   502  0.000000000E+00  0.000000000E+00 -5.511073135E+02  5.511073135E+02  0.000000000E+00  0.00000E+00  9.000E+00
      25     1     1     2     0     0 -2.396496534E+01 -2.770233368E+02  2.762509387E+02  4.114071339E+02  1.250000000E+02  0.00000E+00  9.000E+00
      25     1     1     2     0     0  1.012898400E+02 -2.847369203E+02  1.378963560E+02  3.549297825E+02  1.250000000E+02  0.00000E+00  9.000E+00
      21     1     1     2   512   501 -7.732487462E+01  5.617602571E+02 -1.606505011E+02  5.893745042E+02  1.907348633E-06  0.00000E+00  9.000E+00
#rwgt            1           1   5.7314353615669375E-002           1        8228           0
</event>
<event>
      5   9999  3.19816E-02  1.50923E+02 -1.00000E+00  1.16288E-01
      21    -1     0     0   511   501  0.000000000E+00  0.000000000E+00  1.329468051E+03  1.329468051E+03  0.000000000E+00  0.00000E+00  9.000E+00
      21    -1     0     0   501   502  0.000000000E+00  0.000000000E+00 -1.345194490E+03  1.345194490E+03  0.000000000E+00  0.00000E+00  9.000E+00
      25     1     1     2     0     0  5.945895531E+02  3.915809618E+02 -1.013466253E+03  1.244833817E+03  1.250000000E+02  0.00000E+00  9.000E+00
      25     1     1     2     0     0 -6.324169202E+02 -5.376866032E+02  6.883528268E+02  1.085593229E+03  1.250000000E+02  0.00000E+00  9.000E+00
      21     1     1     2   511   502  3.782736710E+01  1.461056415E+02  3.093869874E+02  3.442354952E+02  0.000000000E+00  0.00000E+00  9.000E+00
#rwgt            2          11   6.0918043821397904E-003           1        8260           0
</event>
<event>
      5   9999  3.19816E-02  2.43429E+02 -1.00000E+00  1.08627E-01
      21    -1     0     0   502   501  0.000000000E+00  0.000000000E+00  5.961077772E+02  5.961077772E+02  0.000000000E+00  0.00000E+00  9.000E+00
      21    -1     0     0   501   512  0.000000000E+00  0.000000000E+00 -3.122713053E+02  3.122713053E+02  0.000000000E+00  0.00000E+00  9.000E+00
      25     1     1     2     0     0 -1.383663485E+02 -9.182356317E+00 -7.637407197E+00  1.868499185E+02  1.250000000E+02  0.00000E+00  9.000E+00
      25     1     1     2     0     0 -4.629296758E+01 -1.494323299E+02  4.058553503E+02  4.525667083E+02  1.250000000E+02  0.00000E+00  9.000E+00
      21     1     1     2   502   512  1.846593161E+02  1.586146862E+02 -1.143814712E+02  2.689624558E+02  1.907348633E-06  0.00000E+00  9.000E+00
#rwgt            2          11   4.5059248016660371E-003           1        8340           0
</event>
<event>
      5   9999  3.19816E-02  1.09999E+02 -1.00000E+00  1.21995E-01
      21    -1     0     0   511   501  0.000000000E+00  0.000000000E+00  5.209628662E+02  5.209628662E+02  0.000000000E+00  0.00000E+00  9.000E+00
      21    -1     0     0   501   502  0.000000000E+00  0.000000000E+00 -7.977548739E+02  7.977548739E+02  0.000000000E+00  0.00000E+00  9.000E+00
      25     1     1     2     0     0 -1.972195731E+02  1.621864683E+02 -4.152187249E+02  5.032212237E+02  1.250000000E+02  0.00000E+00  9.000E+00
      25     1     1     2     0     0  2.425497750E+02 -6.196236068E+01 -2.722140216E+02  3.903782794E+02  1.250000000E+02  0.00000E+00  9.000E+00
      21     1     1     2   511   502 -4.533020194E+01 -1.002241076E+02  4.106407388E+02  4.251182369E+02  0.000000000E+00  0.00000E+00  9.000E+00
#rwgt            1           1   2.6430944254560530E-002           1        8360           0
</event>
<event>
      5   9999  3.28395E-02  2.70829E+01 -1.00000E+00  1.56191E-01
      21    -1     0     0   502   512  0.000000000E+00  0.000000000E+00  1.455943095E+02  1.455943095E+02  0.000000000E+00  0.00000E+00  9.000E+00
      21    -1     0     0   501   502  0.000000000E+00  0.000000000E+00 -2.534013069E+03  2.534013069E+03  0.000000000E+00  0.00000E+00  9.000E+00
      25     1     1     2     0     0 -3.826521142E+01  2.803665012E+02 -1.320632756E+02  3.363559278E+02  1.250000000E+02  0.00000E+00  9.000E+00
      25     1     1     2     0     0  6.501160708E+01 -2.761107792E+02 -2.283772349E+03  2.304713607E+03  1.250000000E+02  0.00000E+00  9.000E+00
      21     1     1     2   501   512 -2.674639566E+01 -4.255721979E+00  2.741686511E+01  3.853784299E+01  1.581489940E-06  0.00000E+00  9.000E+00
#rwgt            1           1   9.5507463015505473E-002           1        8412           0
</event>
<event>
      5   9999  3.19816E-02  1.06914E+02 -1.00000E+00  1.22536E-01
      21    -1     0     0   502   501  0.000000000E+00  0.000000000E+00  1.936340508E+03  1.936340508E+03  0.000000000E+00  0.00000E+00  9.000E+00
      21    -1     0     0   511   502  0.000000000E+00  0.000000000E+00 -3.770267140E+02  3.770267140E+02  0.000000000E+00  0.00000E+00  9.000E+00
      25     1     1     2     0     0 -1.713001862E+02  2.954986393E+02  4.655249556E+02  5.907636447E+02  1.250000000E+02  0.00000E+00  9.000E+00
      25     1     1     2     0     0  2.689393369E+02 -3.390561918E+02  1.361632985E+03  1.434209487E+03  1.250000000E+02  0.00000E+00  9.000E+00
      21     1     1     2   511   501 -9.763915069E+01  4.355755250E+01 -2.678441466E+02  2.883940897E+02  6.607249480E-06  0.00000E+00  9.000E+00
#rwgt            1           1   3.6691664912904334E-002           1        8556           0
</event>
<event>
      5   9999  3.19816E-02  6.86766E+00 -1.00000E+00  2.16732E-01
      21    -1     0     0   502   512  0.000000000E+00  0.000000000E+00  3.575357050E+02  3.575357050E+02  0.000000000E+00  0.00000E+00  9.000E+00
      21    -1     0     0   501   502  0.000000000E+00  0.000000000E+00 -1.774854451E+02  1.774854451E+02  0.000000000E+00  0.00000E+00  9.000E+00
      25     1     1     2     0     0  5.245280787E+01  1.042032434E+01 -1.336970870E+02  1.906824357E+02  1.250000000E+02  0.00000E+00  9.000E+00
      25     1     1     2     0     0 -4.918662106E+01 -4.379073164E+00  2.902267944E+02  3.198360395E+02  1.250000000E+02  0.00000E+00  9.000E+00
      21     1     1     2   501   512 -3.266186811E+00 -6.041251178E+00  2.352055242E+01  2.450267492E+01  0.000000000E+00  0.00000E+00  9.000E+00
#rwgt            1           1   3.2841370864979652E-002           1        8626           0
</event>
<event>
      5   9999  3.19816E-02  3.98235E+02 -1.00000E+00  1.01743E-01
      21    -1     0     0   502   501  0.000000000E+00  0.000000000E+00  3.319705335E+02  3.319705335E+02  0.000000000E+00  0.00000E+00  9.000E+00
       2    -1     0     0   501     0  0.000000000E+00  0.000000000E+00 -1.459681034E+03  1.459681034E+03  0.000000000E+00  0.00000E+00  9.000E+00
      25     1     1     2     0     0 -3.663004363E+02 -2.434313977E+02  4.315397423E+01  4.592625834E+02  1.250000000E+02  0.00000E+00  9.000E+00
      25     1     1     2     0     0 -2.617213060E+01  1.759279694E+02 -5.841142877E+02  6.232576769E+02  1.250000000E+02  0.00000E+00  9.000E+00
       2     1     1     2   502     0  3.924725669E+02  6.750342833E+01 -5.867501870E+02  7.091313070E+02  7.629394531E-06  0.00000E+00  9.000E+00
#rwgt            1           1   2.6598079878531390E-002           1        8953           0
</event>
<event>
      5   9999  3.19816E-02  1.39854E+01 -1.00000E+00  1.80298E-01
      21    -1     0     0   502   501  0.000000000E+00  0.000000000E+00  1.516953875E+03  1.516953875E+03  0.000000000E+00  0.00000E+00  9.000E+00
      21    -1     0     0   501   511  0.000000000E+00  0.000000000E+00 -4.648429752E+01  4.648429752E+01  0.000000000E+00  0.00000E+00  9.000E+00
      25     1     1     2     0     0 -1.844736597E+02  1.064131424E+02  9.484668153E+02  9.800860103E+02  1.250000000E+02  0.00000E+00  9.000E+00
      25     1     1     2     0     0  1.764763838E+02 -1.178863569E+02  4.897644827E+02  5.482110504E+02  1.250000000E+02  0.00000E+00  9.000E+00
      21     1     1     2   502   511  7.997275866E+00  1.147321454E+01  3.223827908E+01  3.514111141E+01  8.259061849E-07  0.00000E+00  9.000E+00
#rwgt            1           1   4.8440130638862142E-002           1        8988           0
</event>
<event>
      5   9999  3.19816E-02  9.46794E+01 -1.00000E+00  1.24905E-01
      21    -1     0     0   502   501  0.000000000E+00  0.000000000E+00  8.473128582E+02  8.473128582E+02  0.000000000E+00  0.00000E+00  9.000E+00
       5    -1     0     0   501     0  0.000000000E+00  0.000000000E+00 -2.427880758E+02  2.427880758E+02  0.000000000E+00  0.00000E+00  9.000E+00
      25     1     1     2     0     0 -1.052726116E+02  1.383629385E+02  4.930004575E+02  5.374951875E+02  1.250000000E+02  0.00000E+00  9.000E+00
      25     1     1     2     0     0  1.350157059E+02 -2.282491659E+02  2.497029808E+02  3.851019361E+02  1.250000000E+02  0.00000E+00  9.000E+00
       5     1     1     2   502     0 -2.974309436E+01  8.988622737E+01 -1.381786559E+02  1.675038104E+02  1.907348633E-06  0.00000E+00  9.000E+00
#rwgt            1           1   2.6939735867594745E-002           1        9196           0
</event>
<event>
      5   9999  3.19816E-02  2.22945E+01 -1.00000E+00  1.62569E-01
      21    -1     0     0   511   501  0.000000000E+00  0.000000000E+00  2.897123338E+02  2.897123338E+02  0.000000000E+00  0.00000E+00  9.000E+00
      21    -1     0     0   501   502  0.000000000E+00  0.000000000E+00 -1.121325203E+03  1.121325203E+03  0.000000000E+00  0.00000E+00  9.000E+00
      25     1     1     2     0     0 -9.929376154E+01 -1.327965540E+02  1.977244908E+02  2.867300997E+02  1.250000000E+02  0.00000E+00  9.000E+00
      25     1     1     2     0     0  7.710872187E+01  1.305902331E+02 -1.064599852E+03  1.082588291E+03  1.250000000E+02  0.00000E+00  9.000E+00
      21     1     1     2   511   502  2.218503967E+01  2.206320940E+00  3.526249155E+01  4.171914606E+01  1.261592536E-06  0.00000E+00  9.000E+00
#rwgt            1           1   2.9438033667253297E-002           1        9288           0
</event>
<event>
      5   9999  3.19816E-02  2.55979E+01 -1.00000E+00  1.57986E-01
      21    -1     0     0   512   501  0.000000000E+00  0.000000000E+00  3.841865952E+02  3.841865952E+02  0.000000000E+00  0.00000E+00  9.000E+00
      21    -1     0     0   501   502  0.000000000E+00  0.000000000E+00 -2.852010143E+02  2.852010143E+02  0.000000000E+00  0.00000E+00  9.000E+00
      25     1     1     2     0     0 -1.755579999E+02  7.017805393E+01 -1.705057902E+02  2.836243908E+02  1.250000000E+02  0.00000E+00  9.000E+00
      25     1     1     2     0     0  1.879629538E+02 -9.256937633E+01  2.642096668E+02  3.596260689E+02  1.250000000E+02  0.00000E+00  9.000E+00
      21     1     1     2   512   502 -1.240495389E+01  2.239132239E+01  5.281704341E+00  2.613714981E+01  3.674277069E-07  0.00000E+00  9.000E+00
#rwgt            1           1   2.7018653866603650E-002           1        9488           0
</event>
<event>
      5   9999  3.19816E-02  2.48115E+02 -1.00000E+00  1.08343E-01
      21    -1     0     0   511   501  0.000000000E+00  0.000000000E+00  1.482314486E+03  1.482314486E+03  0.000000000E+00  0.00000E+00  9.000E+00
      21    -1     0     0   501   502  0.000000000E+00  0.000000000E+00 -1.292790761E+03  1.292790761E+03  0.000000000E+00  0.00000E+00  9.000E+00
      25     1     1     2     0     0  3.400117419E+02 -3.168005219E+02 -1.202032587E+03  1.294788746E+03  1.250000000E+02  0.00000E+00  9.000E+00
      25     1     1     2     0     0 -1.521254405E+02  1.547514583E+02  5.820103584E+02  6.336017841E+02  1.250000000E+02  0.00000E+00  9.000E+00
      21     1     1     2   511   502 -1.878863015E+02  1.620490636E+02  8.095459536E+02  8.467147172E+02  1.078959322E-05  0.00000E+00  9.000E+00
#rwgt            1           1   3.0796914700893584E-002           1        9614           0
</event>
<event>
      5   9999  3.19816E-02  2.50715E+01 -1.00000E+00  1.58658E-01
      21    -1     0     0   502   501  0.000000000E+00  0.000000000E+00  1.892592482E+02  1.892592482E+02  0.000000000E+00  0.00000E+00  9.000E+00
      21    -1     0     0   512   502  0.000000000E+00  0.000000000E+00 -8.547870704E+02  8.547870704E+02  0.000000000E+00  0.00000E+00  9.000E+00
      25     1     1     2     0     0 -1.646848335E+02 -2.608296225E+02 -3.212099325E+02  4.625516264E+02  1.250000000E+02  0.00000E+00  9.000E+00
      25     1     1     2     0     0  1.885423095E+02  2.531224045E+02 -1.265633499E+02  3.623015811E+02  1.250000000E+02  0.00000E+00  9.000E+00
      21     1     1     2   512   501 -2.385747598E+01  7.707218043E+00 -2.177545398E+02  2.191931111E+02  2.697398305E-06  0.00000E+00  9.000E+00
#rwgt            1           1   2.8495421591880610E-002           1        9673           0
</event>
<event>
      5   9999  3.19816E-02  6.25346E+01 -1.00000E+00  1.33750E-01
      21    -1     0     0   502   511  0.000000000E+00  0.000000000E+00  4.203133805E+02  4.203133805E+02  0.000000000E+00  0.00000E+00  9.000E+00
      21    -1     0     0   501   502  0.000000000E+00  0.000000000E+00 -1.509828359E+03  1.509828359E+03  0.000000000E+00  0.00000E+00  9.000E+00
      25     1     1     2     0     0 -5.421494384E+02  3.302797326E+02 -1.049599944E+03  1.233002740E+03  1.250000000E+02  0.00000E+00  9.000E+00
      25     1     1     2     0     0  4.964914879E+02 -3.730106682E+02 -3.554800155E+01  6.344520601E+02  1.250000000E+02  0.00000E+00  9.000E+00
      21     1     1     2   501   511  4.565795055E+01  4.273093565E+01 -4.367032569E+00  6.268693870E+01  9.329602624E-07  0.00000E+00  9.000E+00
#rwgt            1           1   2.3087290030396192E-002           1        9837           0
</event>
<event>
      5   9999  3.19816E-02  3.72277E+01 -1.00000E+00  1.46802E-01
      21    -1     0     0   502   501  0.000000000E+00  0.000000000E+00  1.035255878E+03  1.035255878E+03  0.000000000E+00  0.00000E+00  9.000E+00
       2    -1     0     0   501     0  0.000000000E+00  0.000000000E+00 -2.551312671E+02  2.551312671E+02  0.000000000E+00  0.00000E+00  9.000E+00
      25     1     1     2     0     0  2.086253048E+02 -2.125546381E+02  7.938235788E+02  8.570209252E+02  1.250000000E+02  0.00000E+00  9.000E+00
      25     1     1     2     0     0 -1.770047135E+02  1.929066809E+02  1.053332376E+02  3.086482578E+02  1.250000000E+02  0.00000E+00  9.000E+00
       2     1     1     2   502     0 -3.162059136E+01  1.964795726E+01 -1.190322057E+02  1.247179619E+02  1.348699152E-06  0.00000E+00  9.000E+00
#rwgt            1           1   2.8998185296420547E-002           1        9991           0
</event>
<event>
      5   9999  3.19816E-02  4.51232E+02 -1.00000E+00  1.00135E-01
      21    -1     0     0   502   501  0.000000000E+00  0.000000000E+00  1.104615997E+03  1.104615997E+03  0.000000000E+00  0.00000E+00  9.000E+00
      21    -1     0     0   511   502  0.000000000E+00  0.000000000E+00 -5.723696653E+02  5.723696653E+02  0.000000000E+00  0.00000E+00  9.000E+00
      25     1     1     2     0     0 -3.347051964E+02 -2.005911499E+02 -2.932924956E+02  5.038946972E+02  1.250000000E+02  0.00000E+00  9.000E+00
      25     1     1     2     0     0 -3.785159526E+01 -5.399016559E+01  6.865405980E+02  7.009355705E+02  1.250000000E+02  0.00000E+00  9.000E+00
      21     1     1     2   511   501  3.725567916E+02  2.545813154E+02  1.389982296E+02  4.721553950E+02  9.344061824E-06  0.00000E+00  9.000E+00
#rwgt            2          11   2.5857366062274419E-003           1       10143           0
</event>
<event>
      5   9999  3.19816E-02  6.87151E+01 -1.00000E+00  1.31629E-01
      21    -1     0     0   502   501  0.000000000E+00  0.000000000E+00  9.965235794E+01  9.965235794E+01  0.000000000E+00  0.00000E+00  9.000E+00
      21    -1     0     0   512   502  0.000000000E+00  0.000000000E+00 -1.991386829E+03  1.991386829E+03  0.000000000E+00  0.00000E+00  9.000E+00
      25     1     1     2     0     0 -3.379673893E+02  5.408948308E+01 -1.280760902E+03  1.331585941E+03  1.250000000E+02  0.00000E+00  9.000E+00
      25     1     1     2     0     0  3.109097188E+02 -1.172530935E+02 -3.869891955E+02  5.251654774E+02  1.250000000E+02  0.00000E+00  9.000E+00
      21     1     1     2   512   501  2.705767048E+01  6.316361037E+01 -2.239843731E+02  2.342877687E+02  4.672030912E-06  0.00000E+00  9.000E+00
#rwgt            1           1   2.6570346859324481E-002           1       10163           0
</event>
<event>
      5   9999  3.19816E-02  1.59223E+02 -1.00000E+00  1.15376E-01
      21    -1     0     0   502   501  0.000000000E+00  0.000000000E+00  2.316844174E+03  2.316844174E+03  0.000000000E+00  0.00000E+00  9.000E+00
      21    -1     0     0   511   502  0.000000000E+00  0.000000000E+00 -9.101499743E+01  9.101499743E+01  0.000000000E+00  0.00000E+00  9.000E+00
      25     1     1     2     0     0  1.505788646E+02 -2.326807596E+02  1.659624476E+03  1.687244124E+03  1.250000000E+02  0.00000E+00  9.000E+00
      25     1     1     2     0     0 -4.408158159E+01  1.143150923E+02  5.288585344E+02  5.570704404E+02  1.250000000E+02  0.00000E+00  9.000E+00
      21     1     1     2   511   501 -1.064972830E+02  1.183656673E+02  3.734616578E+01  1.635446073E+02  4.523674479E-06  0.00000E+00  9.000E+00
#rwgt            2          11   1.4966003914231748E-002           1       10477           0
</event>
<event>
      5   9999  3.19816E-02  5.43223E+01 -1.00000E+00  1.37052E-01
       2    -1     0     0   502     0  0.000000000E+00  0.000000000E+00  1.227434270E+03  1.227434270E+03  0.000000000E+00  0.00000E+00  9.000E+00
      21    -1     0     0   501   502  0.000000000E+00  0.000000000E+00 -2.569060539E+02  2.569060539E+02  0.000000000E+00  0.00000E+00  9.000E+00
      25     1     1     2     0     0 -8.731058899E+01  1.980300918E+02 -1.521654187E+02  2.926061702E+02  1.250000000E+02  0.00000E+00  9.000E+00
      25     1     1     2     0     0  3.387787569E+01 -2.078208978E+02  4.142604596E+02  4.812213258E+02  1.250000000E+02  0.00000E+00  9.000E+00
       2     1     1     2   501     0  5.343271331E+01  9.790805994E+00  7.084331755E+02  7.105128281E+02  1.078959322E-05  0.00000E+00  9.000E+00
#rwgt            1           1   2.8811367620088818E-002           1       10527           0
</event>
<event>
      5   9999  3.19816E-02  7.74496E+01 -1.00000E+00  1.29034E-01
      -4    -1     0     0     0   501  0.000000000E+00  0.000000000E+00  4.396438686E+02  4.396438686E+02  0.000000000E+00  0.00000E+00  9.000E+00
      21    -1     0     0   501   502  0.000000000E+00  0.000000000E+00 -5.360010398E+02  5.360010398E+02  0.000000000E+00  0.00000E+00  9.000E+00
      25     1     1     2     0     0 -2.117436512E+02 -1.551903965E+02 -3.128435464E+02  4.271012965E+02  1.250000000E+02  0.00000E+00  9.000E+00
      25     1     1     2     0     0  2.582353432E+02  9.324717191E+01 -1.739474435E+01  3.021723096E+02  1.250000000E+02  0.00000E+00  9.000E+00
      -4     1     1     2     0   502 -4.649169206E+01  6.194322459E+01  2.338811196E+02  2.463713023E+02  0.000000000E+00  0.00000E+00  9.000E+00
#rwgt            1           1   2.8513948190051559E-002           1       10656           0
</event>
<event>
      5   9999  3.19816E-02  1.83682E+01 -1.00000E+00  1.69478E-01
      21    -1     0     0   502   501  0.000000000E+00  0.000000000E+00  8.187063639E+02  8.187063639E+02  0.000000000E+00  0.00000E+00  9.000E+00
      21    -1     0     0   511   502  0.000000000E+00  0.000000000E+00 -7.525307343E+01  7.525307343E+01  0.000000000E+00  0.00000E+00  9.000E+00
      25     1     1     2     0     0 -4.211408945E+01  1.486609717E+02  2.410645717E+02  3.124272855E+02  1.250000000E+02  0.00000E+00  9.000E+00
      25     1     1     2     0     0  3.476243031E+01 -1.654938054E+02  5.169547442E+02  5.580894496E+02  1.250000000E+02  0.00000E+00  9.000E+00
      21     1     1     2   511   501  7.351659138E+00  1.683283376E+01 -1.456602549E+01  2.344270213E+01  3.371747881E-07  0.00000E+00  9.000E+00
#rwgt            1           1   2.7370047927735508E-002           1       10713           0
</event>
<event>
      5   9999  3.19816E-02  7.97975E+00 -1.00000E+00  2.07815E-01
      21    -1     0     0   502   501  0.000000000E+00  0.000000000E+00  6.271592150E+02  6.271592150E+02  0.000000000E+00  0.00000E+00  9.000E+00
      21    -1     0     0   512   502  0.000000000E+00  0.000000000E+00 -2.362827301E+03  2.362827301E+03  0.000000000E+00  0.00000E+00  9.000E+00
      25     1     1     2     0     0 -1.018398915E+03 -4.798258805E+02 -7.609938850E+02  1.364590019E+03  1.250000000E+02  0.00000E+00  9.000E+00
      25     1     1     2     0     0  1.014392600E+03  4.867270229E+02 -6.595330541E+02  1.310154338E+03  1.250000000E+02  0.00000E+00  9.000E+00
      21     1     1     2   512   501  4.006315631E+00 -6.901142408E+00 -3.151411474E+02  3.152421595E+02  6.607249480E-06  0.00000E+00  9.000E+00
#rwgt            1           1   3.0010709522624388E-002           1       10807           0
</event>
<event>
      5   9999  3.19816E-02  8.22374E+01 -1.00000E+00  1.27772E-01
      21    -1     0     0   502   501  0.000000000E+00  0.000000000E+00  2.354498797E+02  2.354498797E+02  0.000000000E+00  0.00000E+00  9.000E+00
      21    -1     0     0   501   511  0.000000000E+00  0.000000000E+00 -5.512633088E+02  5.512633088E+02  0.000000000E+00  0.00000E+00  9.000E+00
      25     1     1     2     0     0 -1.469583371E+02 -1.277796060E+02 -4.154023708E+02  4.755086857E+02  1.250000000E+02  0.00000E+00  9.000E+00
      25     1     1     2     0     0  7.728627029E+01  8.408982749E+01  1.398811000E+02  2.196269309E+02  1.250000000E+02  0.00000E+00  9.000E+00
      21     1     1     2   502   511  6.967206676E+01  4.368977851E+01 -4.029215829E+01  9.157757178E+01  2.132480600E-06  0.00000E+00  9.000E+00
#rwgt            1           1   2.7586997129455313E-002           1       11279           0
</event>
<event>
      5   9999  3.19816E-02  1.04893E+02 -1.00000E+00  1.22902E-01
      21    -1     0     0   512   501  0.000000000E+00  0.000000000E+00  9.683947249E+02  9.683947249E+02  0.000000000E+00  0.00000E+00  9.000E+00
      21    -1     0     0   501   502  0.000000000E+00  0.000000000E+00 -3.547258591E+02  3.547258591E+02  0.000000000E+00  0.00000E+00  9.000E+00
      25     1     1     2     0     0 -2.262066991E+02  1.454341520E+02 -9.517777751E+01  3.114552498E+02  1.250000000E+02  0.00000E+00  9.000E+00
      25     1     1     2     0     0  2.946770064E+02 -2.248968027E+02  1.137611346E+02  4.074060698E+02  1.250000000E+02  0.00000E+00  9.000E+00
      21     1     1     2   512   502 -6.847030734E+01  7.946265067E+01  5.950855087E+02  6.042592643E+02  0.000000000E+00  0.00000E+00  9.000E+00
#rwgt            1           1   2.8420973681546963E-002           1       11402           0
</event>
<event>
      5   9999  3.19816E-02  1.03332E+02 -1.00000E+00  1.23191E-01
      21    -1     0     0   511   501  0.000000000E+00  0.000000000E+00  4.427914322E+02  4.427914322E+02  0.000000000E+00  0.00000E+00  9.000E+00
      21    -1     0     0   501   502  0.000000000E+00  0.000000000E+00 -4.054432367E+02  4.054432367E+02  0.000000000E+00  0.00000E+00  9.000E+00
      25     1     1     2     0     0 -1.093387686E+02 -4.907443284E+01 -1.457285683E+02  2.263295869E+02  1.250000000E+02  0.00000E+00  9.000E+00
      25     1     1     2     0     0  1.817560915E+02  1.227847817E+02 -1.358257875E+02  2.866793051E+02  1.250000000E+02  0.00000E+00  9.000E+00
      21     1     1     2   511   502 -7.241732291E+01 -7.371034885E+01  3.189025514E+02  3.352257768E+02  3.814697266E-06  0.00000E+00  9.000E+00
#rwgt            1           1   3.0182471962034444E-002           1       11499           0
</event>
<event>
      5   9999  3.19816E-02  4.06674E+01 -1.00000E+00  1.44396E-01
      21    -1     0     0   502   501  0.000000000E+00  0.000000000E+00  1.950969566E+02  1.950969566E+02  0.000000000E+00  0.00000E+00  9.000E+00
      21    -1     0     0   501   512  0.000000000E+00  0.000000000E+00 -1.723781793E+03  1.723781793E+03  0.000000000E+00  0.00000E+00  9.000E+00
      25     1     1     2     0     0 -1.684830781E+01 -1.118769514E+02  1.255262426E+02  2.101955169E+02  1.250000000E+02  0.00000E+00  9.000E+00
      25     1     1     2     0     0  1.120262226E+00  7.437406018E+01 -1.692548722E+02  2.231702659E+02  1.250000000E+02  0.00000E+00  9.000E+00
      21     1     1     2   502   512  1.572804559E+01  3.750289123E+01 -1.484956207E+03  1.485512967E+03  0.000000000E+00  0.00000E+00  9.000E+00
#rwgt            1           1   2.5677021851123409E-002           1       11609           0
</event>
<event>
      5   9999  3.19816E-02  1.45109E+01 -1.00000E+00  1.78751E-01
       2    -1     0     0   502     0  0.000000000E+00  0.000000000E+00  1.229165832E+03  1.229165832E+03  0.000000000E+00  0.00000E+00  9.000E+00
      21    -1     0     0   501   502  0.000000000E+00  0.000000000E+00 -1.164247977E+02  1.164247977E+02  0.000000000E+00  0.00000E+00  9.000E+00
      25     1     1     2     0     0 -1.136669660E+02 -2.672311866E+02  5.811774727E+02  6.616078454E+02  1.250000000E+02  0.00000E+00  9.000E+00
      25     1     1     2     0     0  9.917316855E+01  2.665268719E+02  2.412771090E+02  3.933338711E+02  1.250000000E+02  0.00000E+00  9.000E+00
       2     1     1     2   501     0  1.449379750E+01  7.043147567E-01  2.902864522E+02  2.906489129E+02  3.814697266E-06  0.00000E+00  9.000E+00
#rwgt            1           1   2.8507448654690251E-002           1       11701           0
</event>
<event>
      5   9999  3.19816E-02  1.09071E+02 -1.00000E+00  1.22155E-01
      21    -1     0     0   502   511  0.000000000E+00  0.000000000E+00  8.422968335E+02  8.422968335E+02  0.000000000E+00  0.00000E+00  9.000E+00
      21    -1     0     0   501   502  0.000000000E+00  0.000000000E+00 -8.288732004E+01  8.288732004E+01  0.000000000E+00  0.00000E+00  9.000E+00
      25     1     1     2     0     0  7.182809553E+01 -1.793374955E+02  2.389464888E+02  3.317252434E+02  1.250000000E+02  0.00000E+00  9.000E+00
      25     1     1     2     0     0  2.003444911E+01  1.205344424E+02  3.472865591E+02  3.887967144E+02  1.250000000E+02  0.00000E+00  9.000E+00
      21     1     1     2   501   511 -9.186254464E+01  5.880305308E+01  1.731764656E+02  2.046621958E+02  1.907348633E-06  0.00000E+00  9.000E+00
#rwgt            1           1   3.1768341939350311E-002           1       11905           0
</event>
<event>
      5   9999  3.19816E-02  6.14010E+01 -1.00000E+00  1.34170E-01
      21    -1     0     0   502   501  0.000000000E+00  0.000000000E+00  1.582956547E+02  1.582956547E+02  0.000000000E+00  0.00000E+00  9.000E+00
      21    -1     0     0   501   512  0.000000000E+00  0.000000000E+00 -1.217233572E+03  1.217233572E+03  0.000000000E+00  0.00000E+00  9.000E+00
      25     1     1     2     0     0  2.344581457E+02  1.323216345E+02 -6.588703934E+02  7.226443332E+02  1.250000000E+02  0.00000E+00  9.000E+00
      25     1     1     2     0     0 -2.435255637E+02 -7.159382728E+01 -3.780427011E+01  2.854549687E+02  1.250000000E+02  0.00000E+00  9.000E+00
      21     1     1     2   502   512  9.067417998E+00 -6.072780724E+01 -3.622632540E+02  3.674299251E+02  5.394796609E-06  0.00000E+00  9.000E+00
#rwgt            1           1   2.9327629943129041E-002           1       12023           0
</event>
<event>
      5   9999  3.19816E-02  3.33291E+01 -1.00000E+00  1.49932E-01
      21    -1     0     0   511   501  0.000000000E+00  0.000000000E+00  1.154073309E+03  1.154073309E+03  0.000000000E+00  0.00000E+00  9.000E+00
      21    -1     0     0   501   502  0.000000000E+00  0.000000000E+00 -6.250646617E+02  6.250646617E+02  0.000000000E+00  0.00000E+00  9.000E+00
      25     1     1     2     0     0 -4.095487400E+02 -5.222505723E+02  1.257260451E+02  6.869555074E+02  1.250000000E+02  0.00000E+00  9.000E+00
      25     1     1     2     0     0  3.762235687E+02  5.217360205E+02 -3.159418504E+01  6.560303660E+02  1.250000000E+02  0.00000E+00  9.000E+00
      21     1     1     2   511   502  3.332517138E+01  5.145518243E-01  4.348767871E+02  4.361520970E+02  5.394796609E-06  0.00000E+00  9.000E+00
#rwgt            1           1   2.8725920892318957E-002           1       12138           0
</event>
<event>
      5   9999  3.19816E-02  7.64593E+00 -1.00000E+00  2.10275E-01
      21    -1     0     0   502   512  0.000000000E+00  0.000000000E+00  4.332928742E+02  4.332928742E+02  0.000000000E+00  0.00000E+00  9.000E+00
      21    -1     0     0   501   502  0.000000000E+00  0.000000000E+00 -2.113779542E+02  2.113779542E+02  0.000000000E+00  0.00000E+00  9.000E+00
      25     1     1     2     0     0 -7.148344043E+01 -2.326104010E+02  2.222008531E+02  3.524424776E+02  1.250000000E+02  0.00000E+00  9.000E+00
      25     1     1     2     0     0  7.559569306E+01  2.390562949E+02 -9.422234184E+00  2.803148220E+02  1.250000000E+02  0.00000E+00  9.000E+00
      21     1     1     2   501   512 -4.112252627E+00 -6.445893923E+00  9.136301121E+00  1.191352879E+01  1.192092896E-07  0.00000E+00  9.000E+00
#rwgt            1           1   2.4730411415676595E-002           1       12231           0
</event>
<event>
      5   9999  3.19816E-02  2.03957E+01 -1.00000E+00  1.65670E-01
      21    -1     0     0   502   501  0.000000000E+00  0.000000000E+00  2.902012350E+02  2.902012350E+02  0.000000000E+00  0.00000E+00  9.000E+00
      21    -1     0     0   501   511  0.000000000E+00  0.000000000E+00 -3.700549556E+02  3.700549556E+02  0.000000000E+00  0.00000E+00  9.000E+00
      25     1     1     2     0     0  2.626787195E+02  9.661331797E+01  7.235486475E+01  3.149515349E+02  1.250000000E+02  0.00000E+00  9.000E+00
      25     1     1     2     0     0 -2.477152710E+02 -8.275403250E+01 -1.415806644E+02  3.223060190E+02  1.250000000E+02  0.00000E+00  9.000E+00
      21     1     1     2   502   511 -1.496344849E+01 -1.385928547E+01 -1.062792097E+01  2.299863667E+01  3.953724850E-07  0.00000E+00  9.000E+00
#rwgt            1           1   3.0118956646280517E-002           1       12481           0
</event>
<event>
      5   9999  3.19816E-02  5.23898E+01 -1.00000E+00  1.37928E-01
      21    -1     0     0   502   501  0.000000000E+00  0.000000000E+00  2.155690336E+02  2.155690336E+02  0.000000000E+00  0.00000E+00  9.000E+00
       1    -1     0     0   501     0  0.000000000E+00  0.000000000E+00 -1.997112799E+03  1.997112799E+03  0.000000000E+00  0.00000E+00  9.000E+00
      25     1     1     2     0     0 -2.654699531E+02 -1.872345580E+02 -3.403832161E+02  4.868437219E+02  1.250000000E+02  0.00000E+00  9.000E+00
      25     1     1     2     0     0  2.424769746E+02  2.343091023E+02 -8.611368640E+01  3.697788605E+02  1.250000000E+02  0.00000E+00  9.000E+00
       1     1     1     2   502     0  2.299297846E+01 -4.707454438E+01 -1.355046863E+03  1.356059250E+03  1.525878906E-05  0.00000E+00  9.000E+00
#rwgt            1           1   1.8702711214584725E-002           1       12705           0
</event>
<event>
      5   9999  3.19816E-02  1.51483E+02 -1.00000E+00  1.16224E-01
       2    -1     0     0   502     0  0.000000000E+00  0.000000000E+00  1.054345278E+03  1.054345278E+03  0.000000000E+00  0.00000E+00  9.000E+00
      21    -1     0     0   501   502  0.000000000E+00  0.000000000E+00 -8.172320461E+02  8.172320461E+02  0.000000000E+00  0.00000E+00  9.000E+00
      25     1     1     2     0     0  1.717410452E+01  1.882303232E+02  5.974331945E+02  6.389655908E+02  1.250000000E+02  0.00000E+00  9.000E+00
      25     1     1     2     0     0 -3.080138975E+01 -3.390994290E+02 -7.398440231E+02  8.239728921E+02  1.250000000E+02  0.00000E+00  9.000E+00
       2     1     1     2   501     0  1.362728524E+01  1.508691059E+02  3.795240606E+02  4.086388413E+02  5.394796609E-06  0.00000E+00  9.000E+00
#rwgt            1           1   3.2663646512302552E-002           1       12803           0
</event>
<event>
      5   9999  3.19816E-02  2.11524E+02 -1.00000E+00  1.10769E-01
      21    -1     0     0   502   501  0.000000000E+00  0.000000000E+00  2.039128982E+02  2.039128982E+02  0.000000000E+00  0.00000E+00  9.000E+00
      21    -1     0     0   511   502  0.000000000E+00  0.000000000E+00 -8.582819919E+02  8.582819919E+02  0.000000000E+00  0.00000E+00  9.000E+00
      25     1     1     2     0     0  6.683269910E+01  1.856513211E+02 -1.215883490E+02  2.633282160E+02  1.250000000E+02  0.00000E+00  9.000E+00
      25     1     1     2     0     0  7.449350792E+01 -2.826851690E+01  6.715279057E+01  1.627356416E+02  1.250000000E+02  0.00000E+00  9.000E+00
      21     1     1     2   511   501 -1.413262070E+02 -1.573828042E+02 -5.999335352E+02  6.361310325E+02  7.629394531E-06  0.00000E+00  9.000E+00
#rwgt            2          11   3.7778140517029722E-003           1       12854           0
</event>
<event>
      5   9999  3.19816E-02  1.57729E+01 -1.00000E+00  1.75352E-01
      21    -1     0     0   512   501  0.000000000E+00  0.000000000E+00  1.853732912E+02  1.853732912E+02  0.000000000E+00  0.00000E+00  9.000E+00
      21    -1     0     0   501   502  0.000000000E+00  0.000000000E+00 -3.382298030E+02  3.382298030E+02  0.000000000E+00  0.00000E+00  9.000E+00
      25     1     1     2     0     0  9.295283484E+01  4.146724224E+01  1.083577842E+02  1.942322606E+02  1.250000000E+02  0.00000E+00  9.000E+00
      25     1     1     2     0     0 -9.061734217E+01 -2.586825452E+01 -2.694154622E+02  3.115932615E+02  1.250000000E+02  0.00000E+00  9.000E+00
      21     1     1     2   512   502 -2.335492675E+00 -1.559898772E+01  8.201166286E+00  1.777757218E+01  3.371747881E-07  0.00000E+00  9.000E+00
#rwgt            1           1   2.6952326353803523E-002           1       12889           0
</event>
<event>
      5   9999  3.19816E-02  5.14871E+01 -1.00000E+00  1.38353E-01
      21    -1     0     0   511   501  0.000000000E+00  0.000000000E+00  8.870243742E+02  8.870243742E+02  0.000000000E+00  0.00000E+00  9.000E+00
      21    -1     0     0   501   502  0.000000000E+00  0.000000000E+00 -1.540857889E+02  1.540857889E+02  0.000000000E+00  0.00000E+00  9.000E+00
      25     1     1     2     0     0  1.657848679E+02 -2.433358509E+01  6.984981773E+02  7.291100393E+02  1.250000000E+02  0.00000E+00  9.000E+00
      25     1     1     2     0     0 -1.601025631E+02  7.550612780E+01 -4.111837329E+01  2.205668304E+02  1.250000000E+02  0.00000E+00  9.000E+00
      21     1     1     2   511   502 -5.682304857E+00 -5.117254271E+01  7.555878131E+01  9.143329344E+01  1.348699152E-06  0.00000E+00  9.000E+00
#rwgt            1           1   2.9440204771895916E-002           1       13087           0
</event>
<event>
      5   9999  3.19816E-02  4.66743E+02 -1.00000E+00  9.97087E-02
      21    -1     0     0   502   501  0.000000000E+00  0.000000000E+00  2.420480946E+02  2.420480946E+02  0.000000000E+00  0.00000E+00  9.000E+00
      21    -1     0     0   501   512  0.000000000E+00  0.000000000E+00 -1.882706538E+03  1.882706538E+03  0.000000000E+00  0.00000E+00  9.000E+00
      25     1     1     2     0     0 -5.637706682E+01  4.569328630E+02 -3.580568355E+02  5.964861377E+02  1.250000000E+02  0.00000E+00  9.000E+00
      25     1     1     2     0     0 -2.927799691E+02 -1.471930724E+02 -6.891261793E+02  7.732436886E+02  1.250000000E+02  0.00000E+00  9.000E+00
      21     1     1     2   502   512  3.491570360E+02 -3.097397907E+02 -5.934754281E+02  7.550248058E+02  1.321449896E-05  0.00000E+00  9.000E+00
#rwgt            2          11   1.8817583387936154E-003           1       13352           0
</event>
<event>
      5   9999  3.19816E-02  3.71644E+01 -1.00000E+00  1.46849E-01
      21    -1     0     0   511   501  0.000000000E+00  0.000000000E+00  2.036870433E+03  2.036870433E+03  0.000000000E+00  0.00000E+00  9.000E+00
      21    -1     0     0   501   502  0.000000000E+00  0.000000000E+00 -2.248231426E+02  2.248231426E+02  0.000000000E+00  0.00000E+00  9.000E+00
      25     1     1     2     0     0 -1.265087087E+01  5.079784508E+01  1.508913526E+03  1.514986962E+03  1.250000000E+02  0.00000E+00  9.000E+00
      25     1     1     2     0     0 -1.205615208E+01 -2.303531536E+01 -2.026733859E+02  2.395359637E+02  1.250000000E+02  0.00000E+00  9.000E+00
      21     1     1     2   511   502  2.470702295E+01 -2.776252972E+01  5.058071501E+02  5.071706499E+02  5.394796609E-06  0.00000E+00  9.000E+00
#rwgt            1           1   3.4449461447614113E-002           1       13387           0
</event>
<event>
      5   9999  3.19816E-02  9.67987E+01 -1.00000E+00  1.24467E-01
      21    -1     0     0   502   501  0.000000000E+00  0.000000000E+00  5.847099525E+02  5.847099525E+02  0.000000000E+00  0.00000E+00  9.000E+00
      21    -1     0     0   512   502  0.000000000E+00  0.000000000E+00 -8.809191777E+02  8.809191777E+02  0.000000000E+00  0.00000E+00  9.000E+00
      25     1     1     2     0     0 -1.526896330E+01  5.221816681E+02  2.579728120E+02  5.958874118E+02  1.250000000E+02  0.00000E+00  9.000E+00
      25     1     1     2     0     0  1.115086783E+02 -5.325691228E+02 -5.303797575E+02  7.700595711E+02  1.250000000E+02  0.00000E+00  9.000E+00
      21     1     1     2   512   501 -9.623971499E+01  1.038745469E+01 -2.380227969E+01  9.968214723E+01  1.215700987E-06  0.00000E+00  9.000E+00
#rwgt            1           1   2.2144734601946270E-002           1       13580           0
</event>
<event>
      5   9999  3.19816E-02  3.99874E+01 -1.00000E+00  1.44849E-01
      21    -1     0     0   511   501  0.000000000E+00  0.000000000E+00  2.500648822E+02  2.500648822E+02  0.000000000E+00  0.00000E+00  9.000E+00
      21    -1     0     0   501   502  0.000000000E+00  0.000000000E+00 -1.069155593E+03  1.069155593E+03  0.000000000E+00  0.00000E+00  9.000E+00
      25     1     1     2     0     0 -2.758968144E+02  7.717972465E+01 -8.797305530E+02  9.336094516E+02  1.250000000E+02  0.00000E+00  9.000E+00
      25     1     1     2     0     0  3.112765520E+02 -5.854462697E+01  5.906519303E+01  3.455926247E+02  1.250000000E+02  0.00000E+00  9.000E+00
      21     1     1     2   511   502 -3.537973759E+01 -1.863509768E+01  1.574649660E+00  4.001839850E+01  7.096458018E-07  0.00000E+00  9.000E+00
#rwgt            1           1   2.8958567709601323E-002           1       13697           0
</event>
<event>
      5   9999  3.19816E-02  7.69261E+01 -1.00000E+00  1.29179E-01
      21    -1     0     0   502   501  0.000000000E+00  0.000000000E+00  3.908193279E+02  3.908193279E+02  0.000000000E+00  0.00000E+00  9.000E+00
       3    -1     0     0   501     0  0.000000000E+00  0.000000000E+00 -1.486212294E+02  1.486212294E+02  0.000000000E+00  0.00000E+00  9.000E+00
      25     1     1     2     0     0 -7.826651738E+01 -8.915468006E+01  3.672269934E+01  1.762037496E+02  1.250000000E+02  0.00000E+00  9.000E+00
      25     1     1     2     0     0  1.047729601E+02  1.693950332E+01  2.300232158E+02  2.824889374E+02  1.250000000E+02  0.00000E+00  9.000E+00
       3     1     1     2   502     0 -2.650644272E+01  7.221517674E+01 -2.454781670E+01  8.074787033E+01  1.215700987E-06  0.00000E+00  9.000E+00
#rwgt            1           1   2.5048656197140959E-002           1       13828           0
</event>
<event>
      5   9999  3.19816E-02  5.12387E+01 -1.00000E+00  1.38472E-01
      21    -1     0     0   502   501  0.000000000E+00  0.000000000E+00  5.146254777E+02  5.146254777E+02  0.000000000E+00  0.00000E+00  9.000E+00
      -3    -1     0     0     0   502  0.000000000E+00  0.000000000E+00 -1.581712470E+03  1.581712470E+03  0.000000000E+00  0.00000E+00  9.000E+00
      25     1     1     2     0     0  2.551348410E+02 -1.110303699E+02  4.400206521E+01  3.081926538E+02  1.250000000E+02  0.00000E+00  9.000E+00
      25     1     1     2     0     0 -2.215056579E+02  1.496889693E+02  2.736441131E+02  4.024644638E+02  1.250000000E+02  0.00000E+00  9.000E+00
      -3     1     1     2     0   501 -3.362918313E+01 -3.865859940E+01 -1.384733170E+03  1.385680830E+03  1.525878906E-05  0.00000E+00  9.000E+00
#rwgt            1           1   2.5537906826843530E-002           1       14060           0
</event>
<event>
      5   9999  3.19816E-02  9.76869E+01 -1.00000E+00  1.24287E-01
      21    -1     0     0   511   501  0.000000000E+00  0.000000000E+00  2.899677112E+02  2.899677112E+02  0.000000000E+00  0.00000E+00  9.000E+00
      21    -1     0     0   501   502  0.000000000E+00  0.000000000E+00 -4.522491593E+02  4.522491593E+02  0.000000000E+00  0.00000E+00  9.000E+00
      25     1     1     2     0     0  1.144539176E+02  9.615041338E+01 -3.243826462E+02  3.784094375E+02  1.250000000E+02  0.00000E+00  9.000E+00
      25     1     1     2     0     0 -1.871489009E+02 -3.089568492E+01  1.252045433E+02  2.593847184E+02  1.250000000E+02  0.00000E+00  9.000E+00
      21     1     1     2   511   502  7.269498336E+01 -6.525472847E+01  3.689665483E+01  1.044227146E+02  3.015782986E-06  0.00000E+00  9.000E+00
#rwgt            1           1   3.4237070884777933E-002           1       14136           0
</event>
<event>
      5   9999  3.19816E-02  1.05644E+01 -1.00000E+00  1.93040E-01
      21    -1     0     0   502   512  0.000000000E+00  0.000000000E+00  4.947665776E+02  4.947665776E+02  0.000000000E+00  0.00000E+00  9.000E+00
      21    -1     0     0   501   502  0.000000000E+00  0.000000000E+00 -1.917307526E+02  1.917307526E+02  0.000000000E+00  0.00000E+00  9.000E+00
      25     1     1     2     0     0 -1.319725090E+02 -1.634943597E+02  2.759248989E+02  3.686552571E+02  1.250000000E+02  0.00000E+00  9.000E+00
      25     1     1     2     0     0  1.392798516E+02  1.558647902E+02 -4.267352599E+01  2.472624915E+02  1.250000000E+02  0.00000E+00  9.000E+00
      21     1     1     2   501   512 -7.307342613E+00  7.629569410E+00  6.978445207E+01  7.057958158E+01  9.536743164E-07  0.00000E+00  9.000E+00
#rwgt            1           1   2.5947106078036651E-002           1       14211           0
</event>
<event>
      5   9999  3.19816E-02  3.29945E+01 -1.00000E+00  1.50224E-01
      21    -1     0     0   502   511  0.000000000E+00  0.000000000E+00  3.510153471E+02  3.510153471E+02  0.000000000E+00  0.00000E+00  9.000E+00
      21    -1     0     0   501   502  0.000000000E+00  0.000000000E+00 -1.643411876E+02  1.643411876E+02  0.000000000E+00  0.00000E+00  9.000E+00
      25     1     1     2     0     0  7.477385125E+01  1.450754005E+02  5.607383563E+01  2.130898301E+02  1.250000000E+02  0.00000E+00  9.000E+00
      25     1     1     2     0     0 -9.636877967E+01 -1.201295278E+02  3.536637644E+01  2.014790950E+02  1.250000000E+02  0.00000E+00  9.000E+00
      21     1     1     2   501   511  2.159492842E+01 -2.494587273E+01  9.523394745E+01  1.007876096E+02  1.348699152E-06  0.00000E+00  9.000E+00
#rwgt            1           1   2.9563588593098898E-002           1       14435           0
</event>
<event>
      5   9999  3.19816E-02  2.24592E+01 -1.00000E+00  1.62318E-01
      21    -1     0     0   512   501  0.000000000E+00  0.000000000E+00  1.489618459E+02  1.489618459E+02  0.000000000E+00  0.00000E+00  9.000E+00
      21    -1     0     0   501   502  0.000000000E+00  0.000000000E+00 -2.702834077E+02  2.702834077E+02  0.000000000E+00  0.00000E+00  9.000E+00
      25     1     1     2     0     0 -1.118930598E+02 -1.379118696E+00 -1.637594931E+02  2.344443012E+02  1.250000000E+02  0.00000E+00  9.000E+00
      25     1     1     2     0     0  8.974565660E+01 -2.350529404E+00  4.881311907E+01  1.614544160E+02  1.250000000E+02  0.00000E+00  9.000E+00
      21     1     1     2   512   502  2.214740319E+01  3.729648100E+00 -6.375187778E+00  2.334653640E+01  4.616955931E-07  0.00000E+00  9.000E+00
#rwgt            1           1   2.4674347309497389E-002           1       14527           0
</event>
<event>
      5   9999  3.19816E-02  6.10613E+02 -1.00000E+00  9.64472E-02
       2    -1     0     0   502     0  0.000000000E+00  0.000000000E+00  1.560164076E+03  1.560164076E+03  0.000000000E+00  0.00000E+00  9.000E+00
      21    -1     0     0   501   502  0.000000000E+00  0.000000000E+00 -7.946212169E+02  7.946212169E+02  0.000000000E+00  0.00000E+00  9.000E+00
      25     1     1     2     0     0  4.256901776E+02  3.333012072E+02 -2.554901430E+02  6.109026397E+02  1.250000000E+02  0.00000E+00  9.000E+00
      25     1     1     2     0     0 -1.845529695E+02  2.276807438E+02 -2.017420712E+02  3.771248904E+02  1.250000000E+02  0.00000E+00  9.000E+00
       2     1     1     2   501     0 -2.411372081E+02 -5.609819510E+02  1.222775074E+03  1.366757763E+03  1.525878906E-05  0.00000E+00  9.000E+00
#rwgt            2          18   2.8688201081719304E-003           1       14685           0
</event>
<event>
      5   9999  3.19816E-02  3.55272E+01 -1.00000E+00  1.48108E-01
      21    -1     0     0   502   501  0.000000000E+00  0.000000000E+00  8.142455186E+02  8.142455186E+02  0.000000000E+00  0.00000E+00  9.000E+00
      21    -1     0     0   511   502  0.000000000E+00  0.000000000E+00 -1.741446053E+03  1.741446053E+03  0.000000000E+00  0.00000E+00  9.000E+00
      25     1     1     2     0     0  6.827082373E+02  1.395612216E+02  4.177824612E+02  8.220310558E+02  1.250000000E+02  0.00000E+00  9.000E+00
      25     1     1     2     0     0 -6.841238085E+02 -1.040622024E+02 -4.432629412E+02  8.312408570E+02  1.250000000E+02  0.00000E+00  9.000E+00
      21     1     1     2   511   501  1.415571247E+00 -3.549901915E+01 -9.017200546E+02  9.024196590E+02  0.000000000E+00  0.00000E+00  9.000E+00
#rwgt            1           1   3.1065015768521005E-002           1       14704           0
</event>
<event>
      5   9999  3.19816E-02  1.24160E+02 -1.00000E+00  1.19743E-01
      -5    -1     0     0     0   501  0.000000000E+00  0.000000000E+00  1.088060996E+03  1.088060996E+03  0.000000000E+00  0.00000E+00  9.000E+00
      21    -1     0     0   501   502  0.000000000E+00  0.000000000E+00 -3.450531180E+02  3.450531180E+02  0.000000000E+00  0.00000E+00  9.000E+00
      25     1     1     2     0     0  3.188551026E+02 -3.555717719E+02  3.051080263E+02  5.803583110E+02  1.250000000E+02  0.00000E+00  9.000E+00
      25     1     1     2     0     0 -4.315237014E+02  4.077397306E+02  3.475274210E+02  6.991886019E+02  1.250000000E+02  0.00000E+00  9.000E+00
      -5     1     1     2     0   502  1.126685988E+02 -5.216795865E+01  9.037243114E+01  1.535672015E+02  3.568322551E-06  0.00000E+00  9.000E+00
#rwgt            2           1   5.4852882157199009E-006           1       15051           0
</event>
<event>
      5   9999  3.19816E-02  1.76559E+02 -1.00000E+00  1.13655E-01
       2    -1     0     0   502     0  0.000000000E+00  0.000000000E+00  1.494907465E+03  1.494907465E+03  0.000000000E+00  0.00000E+00  9.000E+00
      21    -1     0     0   501   502  0.000000000E+00  0.000000000E+00 -1.880123332E+02  1.880123332E+02  0.000000000E+00  0.00000E+00  9.000E+00
      25     1     1     2     0     0  3.021338856E+01 -3.537599222E+02  1.171570408E+02  3.942203744E+02  1.250000000E+02  0.00000E+00  9.000E+00
      25     1     1     2     0     0 -1.075576127E+02  1.950435327E+02  3.663602138E+02  4.466043282E+02  1.250000000E+02  0.00000E+00  9.000E+00
       2     1     1     2   501     0  7.734422416E+01  1.587163894E+02  8.233778775E+02  8.420950958E+02  1.525878906E-05  0.00000E+00  9.000E+00
#rwgt            1           1   2.8280019112191985E-002           1       15070           0
</event>
<event>
      5   9999  3.19816E-02  4.30155E+01 -1.00000E+00  1.42909E-01
      21    -1     0     0   502   501  0.000000000E+00  0.000000000E+00  2.584553583E+02  2.584553583E+02  0.000000000E+00  0.00000E+00  9.000E+00
      21    -1     0     0   511   502  0.000000000E+00  0.000000000E+00 -4.070890161E+02  4.070890161E+02  0.000000000E+00  0.00000E+00  9.000E+00
      25     1     1     2     0     0  1.491495099E+02  5.038566057E+01 -1.568653275E+02  2.549823956E+02  1.250000000E+02  0.00000E+00  9.000E+00
      25     1     1     2     0     0 -1.597988377E+02 -8.709187841E+00  1.563749872E+02  2.562999319E+02  1.250000000E+02  0.00000E+00  9.000E+00
      21     1     1     2   511   501  1.064932775E+01 -4.167647273E+01 -1.481433175E+02  1.542620468E+02  1.907348633E-06  0.00000E+00  9.000E+00
#rwgt            1           1   2.8670997168975452E-002           1       15117           0
</event>
<event>
      5   9999  3.56829E-02  6.84481E+01 -1.00000E+00  1.31716E-01
      21    -1     0     0   502   512  0.000000000E+00  0.000000000E+00  2.166686614E+02  2.166686614E+02  0.000000000E+00  0.00000E+00  9.000E+00
      21    -1     0     0   501   502  0.000000000E+00  0.000000000E+00 -1.872282461E+03  1.872282461E+03  0.000000000E+00  0.00000E+00  9.000E+00
      25     1     1     2     0     0  1.026591118E+02  5.341144461E+02 -6.386752639E+02  8.481439898E+02  1.250000000E+02  0.00000E+00  9.000E+00
      25     1     1     2     0     0 -8.911617420E+01 -6.012093673E+02 -9.875691726E+02  1.166324254E+03  1.250000000E+02  0.00000E+00  9.000E+00
      21     1     1     2   501   512 -1.354293758E+01  6.709492125E+01 -2.936936279E+01  7.448287781E+01  7.539457465E-07  0.00000E+00  9.000E+00
#rwgt            1           1   3.5426994670335721E-002           1       15254           0
</event>
<event>
      5   9999  3.19816E-02  3.47369E+01 -1.00000E+00  1.48745E-01
       2    -1     0     0   502     0  0.000000000E+00  0.000000000E+00  1.912924164E+03  1.912924164E+03  0.000000000E+00  0.00000E+00  9.000E+00
      21    -1     0     0   501   502  0.000000000E+00  0.000000000E+00 -2.910473843E+02  2.910473843E+02  0.000000000E+00  0.00000E+00  9.000E+00
      25     1     1     2     0     0  2.430625613E+02  1.449535848E+02  1.070280501E+03  1.114098874E+03  1.250000000E+02  0.00000E+00  9.000E+00
      25     1     1     2     0     0 -2.201798120E+02 -1.188186390E+02 -1.959661243E+02  3.415036463E+02  1.250000000E+02  0.00000E+00  9.000E+00
       2     1     1     2   501     0 -2.288274928E+01 -2.613494585E+01  7.475624028E+02  7.483690278E+02  0.000000000E+00  0.00000E+00  9.000E+00
#rwgt            1           1   2.5358577459080697E-002           1       15362           0
</event>
<event>
      5   9999  3.19816E-02  2.76243E+01 -1.00000E+00  1.55571E-01
      21    -1     0     0   502   501  0.000000000E+00  0.000000000E+00  2.860084607E+02  2.860084607E+02  0.000000000E+00  0.00000E+00  9.000E+00
      21    -1     0     0   501   511  0.000000000E+00  0.000000000E+00 -2.833912135E+02  2.833912135E+02  0.000000000E+00  0.00000E+00  9.000E+00
      25     1     1     2     0     0  2.316933274E+02  1.974170178E+01 -6.312335849E+01  2.714426112E+02  1.250000000E+02  0.00000E+00  9.000E+00
      25     1     1     2     0     0 -2.215733070E+02 -4.544554394E+01  7.454322236E+01  2.689641609E+02  1.250000000E+02  0.00000E+00  9.000E+00
      21     1     1     2   502   511 -1.012002040E+01  2.570384216E+01 -8.802616647E+00  2.899290214E+01  1.685873940E-07  0.00000E+00  9.000E+00
#rwgt            1           1   2.7521250965511741E-002           1       15496           0
</event>
<event>
      5   9999  3.19816E-02  5.17894E+01 -1.00000E+00  1.38210E-01
      21    -1     0     0   502   501  0.000000000E+00  0.000000000E+00  4.215975552E+02  4.215975552E+02  0.000000000E+00  0.00000E+00  9.000E+00
      21    -1     0     0   512   502  0.000000000E+00  0.000000000E+00 -6.620684326E+02  6.620684326E+02  0.000000000E+00  0.00000E+00  9.000E+00
      25     1     1     2     0     0 -2.798008764E+02 -2.813190225E+02  1.055876695E+02  4.291883954E+02  1.250000000E+02  0.00000E+00  9.000E+00
      25     1     1     2     0     0  3.313179397E+02  2.866235390E+02 -1.963926447E+02  4.961045265E+02  1.250000000E+02  0.00000E+00  9.000E+00
      21     1     1     2   512   501 -5.151706337E+01 -5.304516535E+00 -1.496659022E+02  1.583730659E+02  1.907348633E-06  0.00000E+00  9.000E+00
#rwgt            1           1   3.0153605611110228E-002           1       15587           0
</event>
<event>
      5   9999  3.19816E-02  5.25447E+01 -1.00000E+00  1.37857E-01
      21    -1     0     0   502   501  0.000000000E+00  0.000000000E+00  8.764190184E+02  8.764190184E+02  0.000000000E+00  0.00000E+00  9.000E+00
      21    -1     0     0   511   502  0.000000000E+00  0.000000000E+00 -1.267178403E+02  1.267178403E+02  0.000000000E+00  0.00000E+00  9.000E+00
      25     1     1     2     0     0 -2.004662374E+01  2.926549187E+02  4.982437683E+02  5.915408872E+02  1.250000000E+02  0.00000E+00  9.000E+00
      25     1     1     2     0     0  3.523434145E+00 -2.427757537E+02  2.052025387E+02  3.415926859E+02  1.250000000E+02  0.00000E+00  9.000E+00
      21     1     1     2   511   501  1.652318959E+01 -4.987916502E+01  4.625487120E+01  7.000328569E+01  0.000000000E+00  0.00000E+00  9.000E+00
#rwgt            1           1   2.6651066183021318E-002           1       15685           0
</event>
<event>
      5   9999  3.19816E-02  3.84387E+01 -1.00000E+00  1.45921E-01
       2    -1     0     0   502     0  0.000000000E+00  0.000000000E+00  1.235663547E+03  1.235663547E+03  0.000000000E+00  0.00000E+00  9.000E+00
      21    -1     0     0   501   502  0.000000000E+00  0.000000000E+00 -5.236557341E+02  5.236557341E+02  0.000000000E+00  0.00000E+00  9.000E+00
      25     1     1     2     0     0 -4.446846025E+02 -3.765343972E+02  2.740932555E+02  6.559532457E+02  1.250000000E+02  0.00000E+00  9.000E+00
      25     1     1     2     0     0  4.074072949E+02  3.859117937E+02 -8.313531249E+01  5.809002467E+02  1.250000000E+02  0.00000E+00  9.000E+00
       2     1     1     2   501     0  3.727730758E+01 -9.377396564E+00  5.210498702E+02  5.224657888E+02  0.000000000E+00  0.00000E+00  9.000E+00
#rwgt            1           1   2.3133963150501303E-002           1       15820           0
</event>
<event>
      5   9999  3.19816E-02  2.02190E+02 -1.00000E+00  1.11476E-01
      21    -1     0     0   511   501  0.000000000E+00  0.000000000E+00  8.451429356E+02  8.451429356E+02  0.000000000E+00  0.00000E+00  9.000E+00
      21    -1     0     0   501   502  0.000000000E+00  0.000000000E+00 -2.997701477E+02  2.997701477E+02  0.000000000E+00  0.00000E+00  9.000E+00
      25     1     1     2     0     0 -4.233348441E+01 -9.947422387E+01 -1.990495851E+02  2.587140940E+02  1.250000000E+02  0.00000E+00  9.000E+00
      25     1     1     2     0     0 -1.274691474E+02 -1.028900217E+01  8.792995638E+01  1.992760004E+02  1.250000000E+02  0.00000E+00  9.000E+00
      21     1     1     2   511   502  1.698026318E+02  1.097632260E+02  6.564924167E+02  6.869229889E+02  7.629394531E-06  0.00000E+00  9.000E+00
#rwgt            1           1   2.5143299001223168E-002           1       16036           0
</event>
<event>
      5   9999  3.19816E-02  2.29634E+01 -1.00000E+00  1.61566E-01
      21    -1     0     0   502   501  0.000000000E+00  0.000000000E+00  9.174389716E+02  9.174389716E+02  0.000000000E+00  0.00000E+00  9.000E+00
      21    -1     0     0   512   502  0.000000000E+00  0.000000000E+00 -3.391363684E+02  3.391363684E+02  0.000000000E+00  0.00000E+00  9.000E+00
      25     1     1     2     0     0 -4.857742910E+02  5.192294834E+01  1.742209045E+02  5.335265484E+02  1.250000000E+02  0.00000E+00  9.000E+00
      25     1     1     2     0     0  4.853200165E+02 -7.488180472E+01  4.461360218E+02  6.751334335E+02  1.250000000E+02  0.00000E+00  9.000E+00
      21     1     1     2   512   501  4.542745137E-01  2.295885638E+01 -4.205432311E+01  4.791535812E+01  8.259061849E-07  0.00000E+00  9.000E+00
#rwgt            1           1   2.7190502163420182E-002           1       16076           0
</event>
<event>
      5   9999  3.19816E-02  2.14236E+01 -1.00000E+00  1.63942E-01
      21    -1     0     0   502   511  0.000000000E+00  0.000000000E+00  1.638820368E+03  1.638820368E+03  0.000000000E+00  0.00000E+00  9.000E+00
      21    -1     0     0   501   502  0.000000000E+00  0.000000000E+00 -2.031465460E+02  2.031465460E+02  0.000000000E+00  0.00000E+00  9.000E+00
      25     1     1     2     0     0 -3.253991227E+02 -1.075259579E+02  1.221334703E+03  1.274648923E+03  1.250000000E+02  0.00000E+00  9.000E+00
      25     1     1     2     0     0  3.108026213E+02  1.232075361E+02  5.087295302E+00  3.569723336E+02  1.250000000E+02  0.00000E+00  9.000E+00
      21     1     1     2   501   511  1.459650137E+01 -1.568157824E+01  2.092518231E+02  2.103456565E+02  0.000000000E+00  0.00000E+00  9.000E+00
#rwgt            1           1   2.6699246325333596E-002           1       16223           0
</event>
<event>
      5   9999  3.19816E-02  1.21127E+02 -1.00000E+00  1.20196E-01
      21    -1     0     0   502   501  0.000000000E+00  0.000000000E+00  1.937330026E+03  1.937330026E+03  0.000000000E+00  0.00000E+00  9.000E+00
      21    -1     0     0   501   512  0.000000000E+00  0.000000000E+00 -1.057398450E+02  1.057398450E+02  0.000000000E+00  0.00000E+00  9.000E+00
      25     1     1     2     0     0 -3.530459392E+02  2.939511280E+01  1.231697517E+03  1.287714752E+03  1.250000000E+02  0.00000E+00  9.000E+00
      25     1     1     2     0     0  2.494252233E+02  3.333112556E+01  5.621903749E+02  6.284957626E+02  1.250000000E+02  0.00000E+00  9.000E+00
      21     1     1     2   502   512  1.036207159E+02 -6.272623836E+01  3.770228860E+01  1.268593564E+02  1.066240300E-06  0.00000E+00  9.000E+00
#rwgt            1           1   3.2892196383844427E-002           1       16366           0
</event>
<event>
      5   9999  3.19816E-02  1.03293E+01 -1.00000E+00  1.94144E-01
      21    -1     0     0   502   511  0.000000000E+00  0.000000000E+00  8.748414867E+02  8.748414867E+02  0.000000000E+00  0.00000E+00  9.000E+00
      21    -1     0     0   501   502  0.000000000E+00  0.000000000E+00 -1.592387265E+02  1.592387265E+02  0.000000000E+00  0.00000E+00  9.000E+00
      25     1     1     2     0     0  8.499264211E+01  7.425340269E+01 -1.012007816E+02  1.964787908E+02  1.250000000E+02  0.00000E+00  9.000E+00
      25     1     1     2     0     0 -7.551198217E+01 -7.015321242E+01  6.295388872E+02  6.500521080E+02  1.250000000E+02  0.00000E+00  9.000E+00
      21     1     1     2   501   511 -9.480659940E+00 -4.100190272E+00  1.872646546E+02  1.875493144E+02  2.697398305E-06  0.00000E+00  9.000E+00
#rwgt            1           1   2.7468812960180555E-002           1       16412           0
</event>
<event>
      5   9999  3.19816E-02  3.85660E+01 -1.00000E+00  1.45830E-01
      21    -1     0     0   502   501  0.000000000E+00  0.000000000E+00  2.500646476E+03  2.500646476E+03  0.000000000E+00  0.00000E+00  9.000E+00
      21    -1     0     0   501   512  0.000000000E+00  0.000000000E+00 -2.287967354E+02  2.287967354E+02  0.000000000E+00  0.00000E+00  9.000E+00
      25     1     1     2     0     0  5.012368275E+02 -1.903742352E+02  8.177453853E+02  9.858058743E+02  1.250000000E+02  0.00000E+00  9.000E+00
      25     1     1     2     0     0 -4.636636159E+02  1.990683893E+02  1.552889678E+03  1.637590769E+03  1.250000000E+02  0.00000E+00  9.000E+00
      21     1     1     2   502   512 -3.757321162E+01 -8.694154099E+00 -9.878532326E+01  1.060465683E+02  2.336015456E-06  0.00000E+00  9.000E+00
#rwgt            1           1   2.0403567444307005E-002           1       16597           0
</event>
<event>
      5   9999  3.19816E-02  2.51302E+02 -1.00000E+00  1.08153E-01
      21    -1     0     0   502   501  0.000000000E+00  0.000000000E+00  9.062344117E+02  9.062344117E+02  0.000000000E+00  0.00000E+00  9.000E+00
      21    -1     0     0   511   502  0.000000000E+00  0.000000000E+00 -1.078232318E+03  1.078232318E+03  0.000000000E+00  0.00000E+00  9.000E+00
      25     1     1     2     0     0  3.734212923E+02 -4.438243086E+01  7.746612880E+02  8.701369851E+02  1.250000000E+02  0.00000E+00  9.000E+00
      25     1     1     2     0     0 -2.470568533E+02 -1.728381058E+02 -6.349982871E+02  7.139733357E+02  1.250000000E+02  0.00000E+00  9.000E+00
      21     1     1     2   511   501 -1.263644389E+02  2.172205366E+02 -3.116609073E+02  4.003564088E+02  6.607249480E-06  0.00000E+00  9.000E+00
#rwgt            1           1   3.2099625337922578E-002           1       16739           0
</event>
<event>
      5   9999  3.19816E-02  2.59275E+02 -1.00000E+00  1.07692E-01
       2    -1     0     0   502     0  0.000000000E+00  0.000000000E+00  3.691125098E+02  3.691125098E+02  0.000000000E+00  0.00000E+00  9.000E+00
      21    -1     0     0   501   502  0.000000000E+00  0.000000000E+00 -1.190286606E+03  1.190286606E+03  0.000000000E+00  0.00000E+00  9.000E+00
      25     1     1     2     0     0  1.503686170E+02  2.191719381E+02 -9.907412415E+02  1.033363570E+03  1.250000000E+02  0.00000E+00  9.000E+00
      25     1     1     2     0     0 -9.750271274E+01  3.465648115E+01 -6.651900911E+01  1.753785313E+02  1.250000000E+02  0.00000E+00  9.000E+00
       2     1     1     2   501     0 -5.286590425E+01 -2.538284192E+02  2.360861539E+02  3.506570152E+02  4.672030912E-06  0.00000E+00  9.000E+00
#rwgt            2          18   1.0582053108465555E-003           1       16946           0
</event>
<event>
      5   9999  3.19816E-02  3.02565E+01 -1.00000E+00  1.52783E-01
      21    -1     0     0   502   501  0.000000000E+00  0.000000000E+00  6.387992039E+02  6.387992039E+02  0.000000000E+00  0.00000E+00  9.000E+00
       2    -1     0     0   501     0  0.000000000E+00  0.000000000E+00 -3.293359856E+03  3.293359856E+03  0.000000000E+00  0.00000E+00  9.000E+00
      25     1     1     2     0     0 -2.658820495E+02 -1.872718470E+02  3.041902242E+02  4.625156229E+02  1.250000000E+02  0.00000E+00  9.000E+00
      25     1     1     2     0     0  2.942346211E+02  1.978352955E+02  1.170071676E+02  3.937365791E+02  1.250000000E+02  0.00000E+00  9.000E+00
       2     1     1     2   502     0 -2.835257163E+01 -1.056344857E+01 -3.075758044E+03  3.075906858E+03  4.315837288E-05  0.00000E+00  9.000E+00
#rwgt            1           1   2.8140620451410820E-002           1       16965           0
</event>
<event>
      5   9999  3.19816E-02  5.90578E+01 -1.00000E+00  1.35072E-01
      21    -1     0     0   502   501  0.000000000E+00  0.000000000E+00  8.430339559E+02  8.430339559E+02  0.000000000E+00  0.00000E+00  9.000E+00
      21    -1     0     0   511   502  0.000000000E+00  0.000000000E+00 -3.953439603E+02  3.953439603E+02  0.000000000E+00  0.00000E+00  9.000E+00
      25     1     1     2     0     0  4.161832542E+02  2.653226525E+02  1.105401342E+02  5.210074205E+02  1.250000000E+02  0.00000E+00  9.000E+00
      25     1     1     2     0     0 -4.667923013E+02 -2.957618315E+02  3.351666971E+02  6.582794455E+02  1.250000000E+02  0.00000E+00  9.000E+00
      21     1     1     2   511   501  5.060904716E+01  3.043917901E+01  1.983164310E+00  5.909105020E+01  5.960464478E-07  0.00000E+00  9.000E+00
#rwgt            1           1   3.0471959301984684E-002           1       17070           0
</event>
<event>
      5   9999  3.19816E-02  1.68021E+02 -1.00000E+00  1.14474E-01
      21    -1     0     0   512   501  0.000000000E+00  0.000000000E+00  8.727671951E+02  8.727671951E+02  0.000000000E+00  0.00000E+00  9.000E+00
      21    -1     0     0   501   502  0.000000000E+00  0.000000000E+00 -3.778041815E+02  3.778041815E+02  0.000000000E+00  0.00000E+00  9.000E+00
      25     1     1     2     0     0 -3.380305968E+01 -2.976354442E+02  1.729140754E+02  3.677686527E+02  1.250000000E+02  0.00000E+00  9.000E+00
      25     1     1     2     0     0 -1.334872487E+02  2.819801868E+02 -1.600571135E+02  3.722565659E+02  1.250000000E+02  0.00000E+00  9.000E+00
      21     1     1     2   512   502  1.672903084E+02  1.565525738E+01  4.821060517E+02  5.105461580E+02  7.629394531E-06  0.00000E+00  9.000E+00
#rwgt            1           1   2.8669364943306699E-002           1       17184           0
</event>
<event>
      5   9999  3.19816E-02  1.42262E+02 -1.00000E+00  1.17313E-01
      21    -1     0     0   511   501  0.000000000E+00  0.000000000E+00  8.762898381E+02  8.762898381E+02  0.000000000E+00  0.00000E+00  9.000E+00
      21    -1     0     0   501   502  0.000000000E+00  0.000000000E+00 -5.748170037E+02  5.748170037E+02  0.000000000E+00  0.00000E+00  9.000E+00
      25     1     1     2     0     0 -5.098708710E+02 -5.977595552E+01  4.380197072E+02  6.863146027E+02  1.250000000E+02  0.00000E+00  9.000E+00
      25     1     1     2     0     0  4.616303140E+02 -7.405677095E+01 -2.829943661E+02  5.606226569E+02  1.250000000E+02  0.00000E+00  9.000E+00
      21     1     1     2   511   502  4.824055701E+01  1.338327265E+02  1.464474934E+02  2.041695823E+02  3.814697266E-06  0.00000E+00  9.000E+00
#rwgt            2          11   5.1519227269004077E-003           1       17303           0
</event>
<event>
      5   9999  3.19816E-02  1.89676E+02 -1.00000E+00  1.12492E-01
      21    -1     0     0   502   501  0.000000000E+00  0.000000000E+00  5.238851565E+02  5.238851565E+02  0.000000000E+00  0.00000E+00  9.000E+00
      21    -1     0     0   512   502  0.000000000E+00  0.000000000E+00 -8.211483152E+02  8.211483152E+02  0.000000000E+00  0.00000E+00  9.000E+00
      25     1     1     2     0     0 -7.227623257E+01 -1.892802165E+02  3.893569624E+02  4.563712286E+02  1.250000000E+02  0.00000E+00  9.000E+00
      25     1     1     2     0     0  2.548140669E+02  2.408262535E+02 -4.164044341E+02  5.585204972E+02  1.250000000E+02  0.00000E+00  9.000E+00
      21     1     1     2   512   501 -1.825378344E+02 -5.154603700E+01 -2.702156870E+02  3.301417459E+02  3.814697266E-06  0.00000E+00  9.000E+00
#rwgt            1           1   2.7986997379161979E-002           1       17338           0
</event>
<event>
      5   9999  3.19816E-02  5.33358E+01 -1.00000E+00  1.37494E-01
      21    -1     0     0   511   501  0.000000000E+00  0.000000000E+00  2.104652472E+02  2.104652472E+02  0.000000000E+00  0.00000E+00  9.000E+00
      21    -1     0     0   501   502  0.000000000E+00  0.000000000E+00 -5.170154891E+02  5.170154891E+02  0.000000000E+00  0.00000E+00  9.000E+00
      25     1     1     2     0     0  2.260037063E+02 -4.984475192E+01 -1.453900402E+02  3.005419078E+02  1.250000000E+02  0.00000E+00  9.000E+00
      25     1     1     2     0     0 -2.660587741E+02  1.462685117E+01 -2.043501469E+02  3.583088034E+02  1.250000000E+02  0.00000E+00  9.000E+00
      21     1     1     2   511   502  4.005506776E+01  3.521790074E+01  4.318994516E+01  6.863002512E+01  1.261592536E-06  0.00000E+00  9.000E+00
#rwgt            1           1   2.5970502775317830E-002           1       17374           0
</event>
<event>
      5   9999  3.19816E-02  1.69241E+01 -1.00000E+00  1.72584E-01
      21    -1     0     0   502   501  0.000000000E+00  0.000000000E+00  8.984461616E+02  8.984461616E+02  0.000000000E+00  0.00000E+00  9.000E+00
      -4    -1     0     0     0   502  0.000000000E+00  0.000000000E+00 -5.645181775E+02  5.645181775E+02  0.000000000E+00  0.00000E+00  9.000E+00
      25     1     1     2     0     0  2.150257701E+02  4.147291853E+02  4.737089440E+02  6.769501773E+02  1.250000000E+02  0.00000E+00  9.000E+00
      25     1     1     2     0     0 -2.172139079E+02 -4.315112132E+02  1.300315253E+02  5.156714133E+02  1.250000000E+02  0.00000E+00  9.000E+00
      -4     1     1     2     0   501  2.188137819E+00  1.678202796E+01 -2.698124853E+02  2.703427485E+02  0.000000000E+00  0.00000E+00  9.000E+00
#rwgt            1           1   2.9103657950359317E-002           1       17481           0
</event>
<event>
      5   9999  3.19816E-02  1.60628E+02 -1.00000E+00  1.15227E-01
      21    -1     0     0   502   501  0.000000000E+00  0.000000000E+00  8.694346181E+01  8.694346181E+01  0.000000000E+00  0.00000E+00  9.000E+00
      21    -1     0     0   511   502  0.000000000E+00  0.000000000E+00 -1.193634882E+03  1.193634882E+03  0.000000000E+00  0.00000E+00  9.000E+00
      25     1     1     2     0     0  1.273233399E+02 -4.397833475E+00 -4.872317425E+02  5.188933848E+02  1.250000000E+02  0.00000E+00  9.000E+00
      25     1     1     2     0     0 -1.949331421E+02  1.501043229E+02 -3.258183884E+02  4.269811001E+02  1.250000000E+02  0.00000E+00  9.000E+00
      21     1     1     2   511   501  6.760980222E+01 -1.457064895E+02 -2.936412895E+02  3.347038591E+02  3.814697266E-06  0.00000E+00  9.000E+00
#rwgt            2          11   2.8724982044193918E-003           1       17734           0
</event>
<event>
      5   9999  3.19816E-02  2.84378E+02 -1.00000E+00  1.06352E-01
      21    -1     0     0   502   501  0.000000000E+00  0.000000000E+00  1.184704912E+02  1.184704912E+02  0.000000000E+00  0.00000E+00  9.000E+00
       2    -1     0     0   501     0  0.000000000E+00  0.000000000E+00 -1.823561882E+03  1.823561882E+03  0.000000000E+00  0.00000E+00  9.000E+00
      25     1     1     2     0     0  1.109875318E+02  8.639948835E+01 -1.770319582E+02  2.583571521E+02  1.250000000E+02  0.00000E+00  9.000E+00
      25     1     1     2     0     0 -1.719342258E+02 -3.641693307E+02 -8.702037679E+02  9.669851483E+02  1.250000000E+02  0.00000E+00  9.000E+00
       2     1     1     2   502     0  6.094669404E+01  2.777698424E+02 -6.578556651E+02  7.166900732E+02  0.000000000E+00  0.00000E+00  9.000E+00
#rwgt            2          13   1.3488876359077505E-003           1       17784           0
</event>
<event>
      5   9999  3.19816E-02  9.76884E+00 -1.00000E+00  1.96939E-01
      21    -1     0     0   502   501  0.000000000E+00  0.000000000E+00  3.261513375E+02  3.261513375E+02  0.000000000E+00  0.00000E+00  9.000E+00
      21    -1     0     0   501   511  0.000000000E+00  0.000000000E+00 -5.743271075E+02  5.743271075E+02  0.000000000E+00  0.00000E+00  9.000E+00
      25     1     1     2     0     0 -3.932537866E+01  2.735810513E+01 -5.428802539E+02  5.591412357E+02  1.250000000E+02  0.00000E+00  9.000E+00
      25     1     1     2     0     0  4.364618703E+01 -1.859678010E+01  3.012442293E+02  3.295814248E+02  1.250000000E+02  0.00000E+00  9.000E+00
      21     1     1     2   502   511 -4.320808367E+00 -8.761325028E+00 -6.539745377E+00  1.175578457E+01  1.460009660E-07  0.00000E+00  9.000E+00
#rwgt            1           1   2.9603931625535911E-002           1       17803           0
</event>
<event>
      5   9999  3.19816E-02  9.52061E+00 -1.00000E+00  1.98256E-01
      21    -1     0     0   502   512  0.000000000E+00  0.000000000E+00  6.749293201E+02  6.749293201E+02  0.000000000E+00  0.00000E+00  9.000E+00
      21    -1     0     0   501   502  0.000000000E+00  0.000000000E+00 -9.266983980E+01  9.266983980E+01  0.000000000E+00  0.00000E+00  9.000E+00
      25     1     1     2     0     0  3.511437683E+01 -3.816366655E+01  5.845074208E+02  5.999695074E+02  1.250000000E+02  0.00000E+00  9.000E+00
      25     1     1     2     0     0 -2.623789439E+01  4.160605342E+01 -3.055791382E+01  1.377616669E+02  1.250000000E+02  0.00000E+00  9.000E+00
      21     1     1     2   501   512 -8.876482443E+00 -3.442386866E+00  2.830997331E+01  2.986798548E+01  3.371747881E-07  0.00000E+00  9.000E+00
#rwgt            1           1   2.7752850432688398E-002           1       18008           0
</event>
<event>
      5   9999  3.19816E-02  3.62297E+01 -1.00000E+00  1.47558E-01
      21    -1     0     0   511   501  0.000000000E+00  0.000000000E+00  1.218576541E+02  1.218576541E+02  0.000000000E+00  0.00000E+00  9.000E+00
      21    -1     0     0   501   502  0.000000000E+00  0.000000000E+00 -6.624537565E+02  6.624537565E+02  0.000000000E+00  0.00000E+00  9.000E+00
      25     1     1     2     0     0  1.033072879E+02  1.544466466E+02 -4.229291348E+02  4.785605661E+02  1.250000000E+02  0.00000E+00  9.000E+00
      25     1     1     2     0     0 -1.104614202E+02 -1.189302818E+02 -1.525741053E+02  2.554407855E+02  1.250000000E+02  0.00000E+00  9.000E+00
      21     1     1     2   511   502  7.154132240E+00 -3.551636481E+01  3.490713766E+01  5.031005900E+01  6.743495762E-07  0.00000E+00  9.000E+00
#rwgt            1           1   2.6790969767386201E-002           1       18239           0
</event>
<event>
      5   9999  3.19816E-02  1.19144E+02 -1.00000E+00  1.20500E-01
      21    -1     0     0   512   501  0.000000000E+00  0.000000000E+00  2.651745979E+02  2.651745979E+02  0.000000000E+00  0.00000E+00  9.000E+00
      21    -1     0     0   501   502  0.000000000E+00  0.000000000E+00 -5.220020876E+02  5.220020876E+02  0.000000000E+00  0.00000E+00  9.000E+00
      25     1     1     2     0     0  3.393186154E+01  3.721485082E+00  1.664705821E+02  2.109565723E+02  1.250000000E+02  0.00000E+00  9.000E+00
      25     1     1     2     0     0 -5.133119451E+00  1.118894857E+02 -4.251296375E+02  4.570621561E+02  1.250000000E+02  0.00000E+00  9.000E+00
      21     1     1     2   512   502 -2.879874209E+01 -1.156109708E+02  1.831565686E+00  1.191579571E+02  1.840640264E-06  0.00000E+00  9.000E+00
#rwgt            1           1   2.8207263195250996E-002           1       18348           0
</event>
<event>
      5   9999  3.19816E-02  4.92281E+01 -1.00000E+00  1.39462E-01
      21    -1     0     0   502   501  0.000000000E+00  0.000000000E+00  9.402700094E+02  9.402700094E+02  0.000000000E+00  0.00000E+00  9.000E+00
       2    -1     0     0   501     0  0.000000000E+00  0.000000000E+00 -2.137529807E+02  2.137529807E+02  0.000000000E+00  0.00000E+00  9.000E+00
      25     1     1     2     0     0  1.208859913E+02  2.188685097E+02  5.959241748E+02  6.582305595E+02  1.250000000E+02  0.00000E+00  9.000E+00
      25     1     1     2     0     0 -1.563742740E+02 -2.529858177E+02  2.222453434E+02  3.917559574E+02  1.250000000E+02  0.00000E+00  9.000E+00
       2     1     1     2   502     0  3.548828263E+01  3.411730801E+01 -9.165248947E+01  1.040364731E+02  2.336015456E-06  0.00000E+00  9.000E+00
#rwgt            1           1   2.8518410196485964E-002           1       18434           0
</event>
<event>
      5   9999  3.19816E-02  1.53505E+01 -1.00000E+00  1.76444E-01
      21    -1     0     0   502   501  0.000000000E+00  0.000000000E+00  2.258934074E+02  2.258934074E+02  0.000000000E+00  0.00000E+00  9.000E+00
      21    -1     0     0   511   502  0.000000000E+00  0.000000000E+00 -2.847553745E+02  2.847553745E+02  0.000000000E+00  0.00000E+00  9.000E+00
      25     1     1     2     0     0 -1.225354847E+02 -2.664942358E+01  3.945045158E+01  1.814014193E+02  1.250000000E+02  0.00000E+00  9.000E+00
      25     1     1     2     0     0  1.377738120E+02  2.479717822E+01  3.849512762E+01  1.915813096E+02  1.250000000E+02  0.00000E+00  9.000E+00
      21     1     1     2   511   501 -1.523832736E+01  1.852245351E+00 -1.368075463E+02  1.376660530E+02  1.907348633E-06  0.00000E+00  9.000E+00
#rwgt            1           1   2.4838934626715169E-002           1       18507           0
</event>
<event>
      5   9999  3.81357E-02  8.04647E+01 -1.00000E+00  1.28228E-01
      21    -1     0     0   502   501  0.000000000E+00  0.000000000E+00  2.018959431E+03  2.018959431E+03  0.000000000E+00  0.00000E+00  9.000E+00
      21    -1     0     0   501   512  0.000000000E+00  0.000000000E+00 -2.867114028E+01  2.867114028E+01  0.000000000E+00  0.00000E+00  9.000E+00
      25     1     1     2     0     0  9.550677368E+01 -1.188540840E+02  6.492511906E+02  6.785277780E+02  1.250000000E+02  0.00000E+00  9.000E+00
      25     1     1     2     0     0 -2.646865204E+01  7.752245149E+01  1.176393649E+03  1.185848784E+03  1.250000000E+02  0.00000E+00  9.000E+00
      21     1     1     2   502   512 -6.903812163E+01  4.133163248E+01  1.646434515E+02  1.832540100E+02  1.907348633E-06  0.00000E+00  9.000E+00
#rwgt            1           1  0.10610323884485108                1       18713           0
</event>
<event>
      5   9999  3.19816E-02  2.07970E+01 -1.00000E+00  1.64981E-01
      21    -1     0     0   502   501  0.000000000E+00  0.000000000E+00  8.343909600E+02  8.343909600E+02  0.000000000E+00  0.00000E+00  9.000E+00
      21    -1     0     0   501   511  0.000000000E+00  0.000000000E+00 -3.890612004E+02  3.890612004E+02  0.000000000E+00  0.00000E+00  9.000E+00
      25     1     1     2     0     0  5.141794690E+02  1.516761626E+02  2.530225746E+02  6.058313362E+02  1.250000000E+02  0.00000E+00  9.000E+00
      25     1     1     2     0     0 -5.330561665E+02 -1.429478262E+02  1.887713915E+02  5.965254361E+02  1.250000000E+02  0.00000E+00  9.000E+00
      21     1     1     2   502   511  1.887669747E+01 -8.728336457E+00  3.535793507E+00  2.109538813E+01  3.908537939E-07  0.00000E+00  9.000E+00
#rwgt            1           1   2.9357447371269406E-002           1       18790           0
</event>
<event>
      5   9999  3.19816E-02  8.54191E+00 -1.00000E+00  2.04017E-01
      21    -1     0     0   502   512  0.000000000E+00  0.000000000E+00  8.559021168E+01  8.559021168E+01  0.000000000E+00  0.00000E+00  9.000E+00
      21    -1     0     0   501   502  0.000000000E+00  0.000000000E+00 -6.407594884E+02  6.407594884E+02  0.000000000E+00  0.00000E+00  9.000E+00
      25     1     1     2     0     0  9.478797837E+01  2.697595031E+00 -5.208441339E+02  5.439629120E+02  1.250000000E+02  0.00000E+00  9.000E+00
      25     1     1     2     0     0 -1.027680024E+02 -5.744475607E+00 -4.561838925E+01  1.682269264E+02  1.250000000E+02  0.00000E+00  9.000E+00
      21     1     1     2   501   512  7.980024070E+00  3.046880576E+00  1.129324646E+01  1.415986161E+01  1.685873940E-07  0.00000E+00  9.000E+00
#rwgt            1           1   2.7907178730177229E-002           1       18909           0
</event>
<event>
      5   9999  3.19816E-02  5.15976E+01 -1.00000E+00  1.38301E-01
      21    -1     0     0   502   501  0.000000000E+00  0.000000000E+00  1.575089523E+02  1.575089523E+02  0.000000000E+00  0.00000E+00  9.000E+00
      21    -1     0     0   501   511  0.000000000E+00  0.000000000E+00 -9.396120391E+02  9.396120391E+02  0.000000000E+00  0.00000E+00  9.000E+00
      25     1     1     2     0     0  1.967288559E+02 -9.612135160E+01 -6.848977689E+02  7.298297821E+02  1.250000000E+02  0.00000E+00  9.000E+00
      25     1     1     2     0     0 -2.466902638E+02  8.323065615E+01 -4.219819983E+01  2.918717466E+02  1.250000000E+02  0.00000E+00  9.000E+00
      21     1     1     2   502   511  4.996140794E+01  1.289069545E+01 -5.500711802E+01  7.541946264E+01  6.743495762E-07  0.00000E+00  9.000E+00
#rwgt            1           1   2.8659813763904481E-002           1       19150           0
</event>
<event>
      5   9999  3.19816E-02  5.36237E+01 -1.00000E+00  1.37364E-01
       2    -1     0     0   502     0  0.000000000E+00  0.000000000E+00  2.874670896E+03  2.874670896E+03  0.000000000E+00  0.00000E+00  9.000E+00
      21    -1     0     0   501   502  0.000000000E+00  0.000000000E+00 -6.925559814E+01  6.925559814E+01  0.000000000E+00  0.00000E+00  9.000E+00
      25     1     1     2     0     0  1.825107429E+02 -1.532348473E+02  2.246151861E+03  2.262214462E+03  1.250000000E+02  0.00000E+00  9.000E+00
      25     1     1     2     0     0 -1.983174744E+02  1.019938130E+02  2.171678018E+02  3.354391341E+02  1.250000000E+02  0.00000E+00  9.000E+00
       2     1     1     2   501     0  1.580673142E+01  5.124103430E+01  3.420956356E+02  3.462728985E+02  6.607249480E-06  0.00000E+00  9.000E+00
#rwgt            1           1   7.5523336028925941E-002           1       19278           0
</event>
<event>
      5   9999  3.19816E-02  3.97981E+01 -1.00000E+00  1.44977E-01
      21    -1     0     0   502   511  0.000000000E+00  0.000000000E+00  1.035614222E+03  1.035614222E+03  0.000000000E+00  0.00000E+00  9.000E+00
      21    -1     0     0   501   502  0.000000000E+00  0.000000000E+00 -9.148886032E+02  9.148886032E+02  0.000000000E+00  0.00000E+00  9.000E+00
      25     1     1     2     0     0  8.671622232E+00  7.432056992E+02  6.219245121E+02  9.771617098E+02  1.250000000E+02  0.00000E+00  9.000E+00
      25     1     1     2     0     0 -4.092338789E+01 -7.198881165E+02 -5.462740455E+02  9.132107953E+02  1.250000000E+02  0.00000E+00  9.000E+00
      21     1     1     2   501   511  3.225176566E+01 -2.331758272E+01  4.507515214E+01  6.013032007E+01  1.261592536E-06  0.00000E+00  9.000E+00
#rwgt            1           1   1.9284721166981839E-002           1       19359           0
</event>
<event>
      5   9999  3.19816E-02  3.90917E+01 -1.00000E+00  1.45462E-01
      21    -1     0     0   502   501  0.000000000E+00  0.000000000E+00  1.723904537E+02  1.723904537E+02  0.000000000E+00  0.00000E+00  9.000E+00
      21    -1     0     0   512   502  0.000000000E+00  0.000000000E+00 -1.288938463E+03  1.288938463E+03  0.000000000E+00  0.00000E+00  9.000E+00
      25     1     1     2     0     0  2.703813801E+02  3.252741813E+02 -3.133463957E+02  5.410363642E+02  1.250000000E+02  0.00000E+00  9.000E+00
      25     1     1     2     0     0 -2.381458458E+02 -3.031601734E+02 -6.862897146E+02  7.970182601E+02  1.250000000E+02  0.00000E+00  9.000E+00
      21     1     1     2   512   501 -3.223553428E+01 -2.211400792E+01 -1.169118986E+02  1.232742919E+02  1.348699152E-06  0.00000E+00  9.000E+00
#rwgt            1           1   3.1255606029088202E-002           1       19536           0
</event>
<event>
      5   9999  3.19816E-02  1.02061E+02 -1.00000E+00  1.23431E-01
      21    -1     0     0   502   501  0.000000000E+00  0.000000000E+00  1.045203552E+03  1.045203552E+03  0.000000000E+00  0.00000E+00  9.000E+00
      21    -1     0     0   511   502  0.000000000E+00  0.000000000E+00 -1.176561667E+02  1.176561667E+02  0.000000000E+00  0.00000E+00  9.000E+00
      25     1     1     2     0     0  1.114103592E+02 -1.657468499E+02  5.481381114E+02  5.966277529E+02  1.250000000E+02  0.00000E+00  9.000E+00
      25     1     1     2     0     0 -1.053226615E+02  2.676258215E+02  2.477777398E+02  3.996689276E+02  1.250000000E+02  0.00000E+00  9.000E+00
      21     1     1     2   511   501 -6.087697631E+00 -1.018789716E+02  1.316315343E+02  1.665630383E+02  2.697398305E-06  0.00000E+00  9.000E+00
#rwgt            1           1   3.1825335139442093E-002           1       19665           0
</event>
<event>
      5   9999  3.19816E-02  2.08381E+02 -1.00000E+00  1.11003E-01
      21    -1     0     0   502   512  0.000000000E+00  0.000000000E+00  8.579893753E+02  8.579893753E+02  0.000000000E+00  0.00000E+00  9.000E+00
      21    -1     0     0   501   502  0.000000000E+00  0.000000000E+00 -6.421917483E+02  6.421917483E+02  0.000000000E+00  0.00000E+00  9.000E+00
      25     1     1     2     0     0  5.573729723E+02 -2.842999048E+02  3.961934252E+02  7.510561206E+02  1.250000000E+02  0.00000E+00  9.000E+00
      25     1     1     2     0     0 -4.504643119E+02  1.054338925E+02 -2.349469274E+02  5.337222692E+02  1.250000000E+02  0.00000E+00  9.000E+00
      21     1     1     2   501   512 -1.069086604E+02  1.788660123E+02  5.455112915E+01  2.154027338E+02  3.754619538E-06  0.00000E+00  9.000E+00
#rwgt            1           1   3.1280799119073568E-002           1       19742           0
</event>
<event>
      5   9999  3.19816E-02  9.95699E+01 -1.00000E+00  1.23912E-01
       2    -1     0     0   502     0  0.000000000E+00  0.000000000E+00  1.029272990E+03  1.029272990E+03  0.000000000E+00  0.00000E+00  9.000E+00
      21    -1     0     0   501   502  0.000000000E+00  0.000000000E+00 -1.265832823E+03  1.265832823E+03  0.000000000E+00  0.00000E+00  9.000E+00
      25     1     1     2     0     0  8.064388791E+00  1.750109298E+02 -1.065975756E+03  1.087484791E+03  1.250000000E+02  0.00000E+00  9.000E+00
      25     1     1     2     0     0  8.289841862E+01 -1.345147651E+02 -1.321289940E+02  2.409345158E+02  1.250000000E+02  0.00000E+00  9.000E+00
       2     1     1     2   501     0 -9.096280742E+01 -4.049616473E+01  9.615449173E+02  9.666865054E+02  1.525878906E-05  0.00000E+00  9.000E+00
#rwgt            1           1   2.7171969293567504E-002           1       19796           0
</event>
<event>
      5   9999  3.19816E-02  1.43849E+01 -1.00000E+00  1.79114E-01
      21    -1     0     0   502   501  0.000000000E+00  0.000000000E+00  9.035382818E+01  9.035382818E+01  0.000000000E+00  0.00000E+00  9.000E+00
      21    -1     0     0   501   511  0.000000000E+00  0.000000000E+00 -1.201302777E+03  1.201302777E+03  0.000000000E+00  0.00000E+00  9.000E+00
      25     1     1     2     0     0  1.754033264E+02 -2.124667595E+02 -4.885512153E+02  5.746440122E+02  1.250000000E+02  0.00000E+00  9.000E+00
      25     1     1     2     0     0 -1.889285070E+02  2.173653092E+02 -4.778952569E+02  5.717958858E+02  1.250000000E+02  0.00000E+00  9.000E+00
      21     1     1     2   502   511  1.352518067E+01 -4.898549715E+00 -1.445024764E+02  1.452167070E+02  0.000000000E+00  0.00000E+00  9.000E+00
#rwgt            1           1   3.0337430504516493E-002           1       19931           0
</event>
<event>
      5   9999  3.19816E-02  5.61912E+01 -1.00000E+00  1.36243E-01
      21    -1     0     0   502   501  0.000000000E+00  0.000000000E+00  7.317165346E+02  7.317165346E+02  0.000000000E+00  0.00000E+00  9.000E+00
      21    -1     0     0   512   502  0.000000000E+00  0.000000000E+00 -4.404560057E+02  4.404560057E+02  0.000000000E+00  0.00000E+00  9.000E+00
      25     1     1     2     0     0  4.488949124E+02  2.061554105E+02  2.200247452E+02  5.550158414E+02  1.250000000E+02  0.00000E+00  9.000E+00
      25     1     1     2     0     0 -5.045879232E+02 -1.986893527E+02  5.888251985E+01  5.596236076E+02  1.250000000E+02  0.00000E+00  9.000E+00
      21     1     1     2   512   501  5.569301076E+01 -7.466057847E+00  1.235326380E+01  5.753309129E+01  8.760057960E-07  0.00000E+00  9.000E+00
#rwgt            1           1   3.0025756379557018E-002           1       20195           0
</event>
<event>
      5   9999  3.19816E-02  3.74190E+01 -1.00000E+00  1.46660E-01
      21    -1     0     0   502   511  0.000000000E+00  0.000000000E+00  1.456877022E+02  1.456877022E+02  0.000000000E+00  0.00000E+00  9.000E+00
      21    -1     0     0   501   502  0.000000000E+00  0.000000000E+00 -2.017509764E+02  2.017509764E+02  0.000000000E+00  0.00000E+00  9.000E+00
      25     1     1     2     0     0 -5.178758747E+01  3.257673979E+01 -8.453806738E+01  1.628339124E+02  1.250000000E+02  0.00000E+00  9.000E+00
      25     1     1     2     0     0  7.136648172E+01 -6.886239362E-01  3.048202318E+01  1.471319226E+02  1.250000000E+02  0.00000E+00  9.000E+00
      21     1     1     2   501   511 -1.957889425E+01 -3.188811585E+01 -2.007229955E+00  3.747284356E+01  5.975347059E-07  0.00000E+00  9.000E+00
#rwgt            1           1   5.8490735385185635E-002           1       20270           0
</event>
<event>
      5   9999  3.19816E-02  4.05945E+01 -1.00000E+00  1.44444E-01
      21    -1     0     0   512   501  0.000000000E+00  0.000000000E+00  2.428551806E+02  2.428551806E+02  0.000000000E+00  0.00000E+00  9.000E+00
      21    -1     0     0   501   502  0.000000000E+00  0.000000000E+00 -1.024942904E+03  1.024942904E+03  0.000000000E+00  0.00000E+00  9.000E+00
      25     1     1     2     0     0  2.140289073E+02  2.738104305E+02  1.495539904E+01  3.696338580E+02  1.250000000E+02  0.00000E+00  9.000E+00
      25     1     1     2     0     0 -2.277188462E+02 -2.355939634E+02 -7.778724193E+02  8.532707010E+02  1.250000000E+02  0.00000E+00  9.000E+00
      21     1     1     2   512   502  1.368993887E+01 -3.821646707E+01 -1.917070306E+01  4.489352557E+01  4.768371582E-07  0.00000E+00  9.000E+00
#rwgt            1           1   2.8675003734942906E-002           1       20347           0
</event>
<event>
      5   9999  3.19816E-02  8.54586E+01 -1.00000E+00  1.26977E-01
      21    -1     0     0   502   511  0.000000000E+00  0.000000000E+00  2.046327332E+03  2.046327332E+03  0.000000000E+00  0.00000E+00  9.000E+00
      21    -1     0     0   501   502  0.000000000E+00  0.000000000E+00 -4.051505369E+02  4.051505369E+02  0.000000000E+00  0.00000E+00  9.000E+00
      25     1     1     2     0     0 -2.220554692E+02  6.659662286E+02  1.526682442E+02  7.292134405E+02  1.250000000E+02  0.00000E+00  9.000E+00
      25     1     1     2     0     0  3.061527770E+02 -6.811587460E+02  1.179240843E+03  1.401406696E+03  1.250000000E+02  0.00000E+00  9.000E+00
      21     1     1     2   501   511 -8.409730783E+01  1.519251744E+01  3.092677072E+02  3.208577325E+02  3.814697266E-06  0.00000E+00  9.000E+00
#rwgt            1           1   2.0197175809561912E-002           1       20506           0
</event>
<event>
      5   9999  3.19816E-02  4.53160E+02 -1.00000E+00  1.00081E-01
      21    -1     0     0   502   501  0.000000000E+00  0.000000000E+00  1.072043959E+03  1.072043959E+03  0.000000000E+00  0.00000E+00  9.000E+00
       1    -1     0     0   501     0  0.000000000E+00  0.000000000E+00 -3.214632391E+03  3.214632391E+03  0.000000000E+00  0.00000E+00  9.000E+00
      25     1     1     2     0     0 -2.054600906E+02 -1.117643948E+03 -7.923407030E+02  1.390960328E+03  1.250000000E+02  0.00000E+00  9.000E+00
      25     1     1     2     0     0 -2.205105153E+02  1.272251285E+03  1.709352242E+02  1.308469362E+03  1.250000000E+02  0.00000E+00  9.000E+00
       1     1     1     2   502     0  4.259706059E+02 -1.546073368E+02 -1.521182953E+03  1.587246661E+03  0.000000000E+00  0.00000E+00  9.000E+00
#rwgt            2          12   3.9437122394359720E-004           1       20857           0
</event>
<event>
      5   9999  3.19816E-02  1.17953E+02 -1.00000E+00  1.20686E-01
      21    -1     0     0   502   511  0.000000000E+00  0.000000000E+00  5.295980355E+02  5.295980355E+02  0.000000000E+00  0.00000E+00  9.000E+00
      21    -1     0     0   501   502  0.000000000E+00  0.000000000E+00 -3.005536398E+02  3.005536398E+02  0.000000000E+00  0.00000E+00  9.000E+00
      25     1     1     2     0     0  1.239395580E+01 -7.033300558E+01 -2.184611931E+02  2.616307220E+02  1.250000000E+02  0.00000E+00  9.000E+00
      25     1     1     2     0     0 -7.940746142E+01  1.674000072E+02  3.510074216E+02  4.161244014E+02  1.250000000E+02  0.00000E+00  9.000E+00
      21     1     1     2   501   511  6.701350561E+01 -9.706700165E+01  9.649816726E+01  1.523965519E+02  1.907348633E-06  0.00000E+00  9.000E+00
#rwgt            1           1   2.8186888762968283E-002           1       20921           0
</event>
<event>
      5   9999  3.19816E-02  5.85536E+01 -1.00000E+00  1.35272E-01
      -1    -1     0     0     0   501  0.000000000E+00  0.000000000E+00  9.347168216E+02  9.347168216E+02  0.000000000E+00  0.00000E+00  9.000E+00
      21    -1     0     0   501   502  0.000000000E+00  0.000000000E+00 -1.825087422E+02  1.825087422E+02  0.000000000E+00  0.00000E+00  9.000E+00
      25     1     1     2     0     0  5.129427594E+01 -9.113485159E+01 -1.280000629E+02  2.072333951E+02  1.250000000E+02  0.00000E+00  9.000E+00
      25     1     1     2     0     0 -3.100924395E+01  3.620725169E+01  3.214946209E+02  3.482187955E+02  1.250000000E+02  0.00000E+00  9.000E+00
      -1     1     1     2     0   502 -2.028503199E+01  5.492759990E+01  5.587135215E+02  5.617733732E+02  1.078959322E-05  0.00000E+00  9.000E+00
#rwgt            1           1   3.1062115527456993E-002           1       20959           0
</event>
<event>
      5   9999  3.19816E-02  3.37386E+02 -1.00000E+00  1.03961E-01
      21    -1     0     0   502   501  0.000000000E+00  0.000000000E+00  2.141693864E+02  2.141693864E+02  0.000000000E+00  0.00000E+00  9.000E+00
       2    -1     0     0   501     0  0.000000000E+00  0.000000000E+00 -1.244866621E+03  1.244866621E+03  0.000000000E+00  0.00000E+00  9.000E+00
      25     1     1     2     0     0 -1.105919903E+02 -1.065350242E+02 -6.611899631E+01  2.087510991E+02  1.250000000E+02  0.00000E+00  9.000E+00
      25     1     1     2     0     0 -6.834348102E+01  3.925624052E+02 -3.325587243E+02  5.338505207E+02  1.250000000E+02  0.00000E+00  9.000E+00
       2     1     1     2   502     0  1.789354713E+02 -2.860273810E+02 -6.320195135E+02  7.164343871E+02  7.629394531E-06  0.00000E+00  9.000E+00
#rwgt            1           1   3.1972139235171039E-002           1       21038           0
</event>
<event>
      5   9999  3.19816E-02  3.48701E+01 -1.00000E+00  1.48636E-01
      21    -1     0     0   511   501  0.000000000E+00  0.000000000E+00  9.914173127E+02  9.914173127E+02  0.000000000E+00  0.00000E+00  9.000E+00
      21    -1     0     0   501   502  0.000000000E+00  0.000000000E+00 -7.336961745E+02  7.336961745E+02  0.000000000E+00  0.00000E+00  9.000E+00
      25     1     1     2     0     0 -2.256702634E+02 -7.767537774E+01 -5.848046862E+02  6.438804649E+02  1.250000000E+02  0.00000E+00  9.000E+00
      25     1     1     2     0     0  1.929914177E+02  6.550914487E+01  1.103622107E+00  2.390885889E+02  1.250000000E+02  0.00000E+00  9.000E+00
      21     1     1     2   511   502  3.267884577E+01  1.216623286E+01  8.414222023E+02  8.421444334E+02  1.078959322E-05  0.00000E+00  9.000E+00
#rwgt            1           1   2.8380655647607427E-002           1       21107           0
</event>
<event>
      5   9999  3.19816E-02  1.37108E+02 -1.00000E+00  1.17962E-01
      21    -1     0     0   502   501  0.000000000E+00  0.000000000E+00  6.907704954E+02  6.907704954E+02  0.000000000E+00  0.00000E+00  9.000E+00
      21    -1     0     0   501   512  0.000000000E+00  0.000000000E+00 -4.672075500E+02  4.672075500E+02  0.000000000E+00  0.00000E+00  9.000E+00
      25     1     1     2     0     0 -4.341544755E+02  8.352351657E+01  3.853243878E+02  5.996383662E+02  1.250000000E+02  0.00000E+00  9.000E+00
      25     1     1     2     0     0  3.648074530E+02  3.475399186E+01 -1.657414678E+02  4.211740161E+02  1.250000000E+02  0.00000E+00  9.000E+00
      21     1     1     2   502   512  6.934702254E+01 -1.182775084E+02  3.980025425E+00  1.371656631E+02  2.078484985E-06  0.00000E+00  9.000E+00
#rwgt            1           1   3.0767118780381939E-002           1       21225           0
</event>
<event>
      5   9999  3.19816E-02  7.28663E+01 -1.00000E+00  1.30344E-01
      21    -1     0     0   502   501  0.000000000E+00  0.000000000E+00  5.071526255E+02  5.071526255E+02  0.000000000E+00  0.00000E+00  9.000E+00
      21    -1     0     0   511   502  0.000000000E+00  0.000000000E+00 -1.994702188E+03  1.994702188E+03  0.000000000E+00  0.00000E+00  9.000E+00
      25     1     1     2     0     0 -5.180822917E+02 -5.328168663E+02  7.377277746E+01  7.572123194E+02  1.250000000E+02  0.00000E+00  9.000E+00
      25     1     1     2     0     0  4.452162065E+02  5.329731255E+02 -1.413637565E+03  1.579960123E+03  1.250000000E+02  0.00000E+00  9.000E+00
      21     1     1     2   511   501  7.286608519E+01 -1.562592700E-01 -1.476847750E+02  1.646823717E+02  1.907348633E-06  0.00000E+00  9.000E+00
#rwgt            1           1   1.0133328826307490E-002           1       21331           0
</event>
<event>
      5   9999  3.19816E-02  7.96049E+01 -1.00000E+00  1.28454E-01
       1    -1     0     0   502     0  0.000000000E+00  0.000000000E+00  2.208390187E+03  2.208390187E+03  0.000000000E+00  0.00000E+00  9.000E+00
      21    -1     0     0   501   502  0.000000000E+00  0.000000000E+00 -1.159999412E+02  1.159999412E+02  0.000000000E+00  0.00000E+00  9.000E+00
      25     1     1     2     0     0 -1.893441496E+02  2.231020713E+02  2.282425582E+02  3.915934200E+02  1.250000000E+02  0.00000E+00  9.000E+00
      25     1     1     2     0     0  1.585006964E+02 -1.497153048E+02  1.828300098E+03  1.845492723E+03  1.250000000E+02  0.00000E+00  9.000E+00
       1     1     1     2   501     0  3.084345321E+01 -7.338676648E+01  3.584758930E+01  8.730398478E+01  8.259061849E-07  0.00000E+00  9.000E+00
#rwgt            1           1   2.8701812046672066E-002           1       21444           0
</event>
<event>
      5   9999  3.19816E-02  1.11553E+01 -1.00000E+00  1.90424E-01
      21    -1     0     0   511   501  0.000000000E+00  0.000000000E+00  2.252712151E+02  2.252712151E+02  0.000000000E+00  0.00000E+00  9.000E+00
      21    -1     0     0   501   502  0.000000000E+00  0.000000000E+00 -2.587318349E+02  2.587318349E+02  0.000000000E+00  0.00000E+00  9.000E+00
      25     1     1     2     0     0  1.525002128E+02  9.576446685E+01  6.224191287E+01  2.278732185E+02  1.250000000E+02  0.00000E+00  9.000E+00
      25     1     1     2     0     0 -1.607300453E+02 -8.823389472E+01 -1.009601123E+02  2.437976864E+02  1.250000000E+02  0.00000E+00  9.000E+00
      21     1     1     2   511   502  8.229832470E+00 -7.530572130E+00  5.257579535E+00  1.233214505E+01  2.064765462E-07  0.00000E+00  9.000E+00
#rwgt            1           1   2.3875807056191505E-002           1       21557           0
</event>
<event>
      5   9999  3.19816E-02  9.55253E+01 -1.00000E+00  1.24729E-01
      21    -1     0     0   502   512  0.000000000E+00  0.000000000E+00  3.489409582E+02  3.489409582E+02  0.000000000E+00  0.00000E+00  9.000E+00
      21    -1     0     0   501   502  0.000000000E+00  0.000000000E+00 -9.242111259E+02  9.242111259E+02  0.000000000E+00  0.00000E+00  9.000E+00
      25     1     1     2     0     0 -1.356286084E+02 -2.506523422E+02  1.093063599E+02  3.298402589E+02  1.250000000E+02  0.00000E+00  9.000E+00
      25     1     1     2     0     0  5.307778161E+01  2.025851843E+02 -7.745771696E+02  8.120669920E+02  1.250000000E+02  0.00000E+00  9.000E+00
      21     1     1     2   501   512  8.255082683E+01  4.806715795E+01  9.000064201E+01  1.312448332E+02  1.348699152E-06  0.00000E+00  9.000E+00
#rwgt            2          11   3.2998933543876433E-003           1       21748           0
</event>
<event>
      5   9999  3.19816E-02  1.92204E+01 -1.00000E+00  1.67806E-01
      21    -1     0     0   502   501  0.000000000E+00  0.000000000E+00  8.408763608E+01  8.408763608E+01  0.000000000E+00  0.00000E+00  9.000E+00
      21    -1     0     0   511   502  0.000000000E+00  0.000000000E+00 -5.568606849E+02  5.568606849E+02  0.000000000E+00  0.00000E+00  9.000E+00
      25     1     1     2     0     0 -4.735891207E+01  8.824818325E+01 -3.423545100E+02  3.779711879E+02  1.250000000E+02  0.00000E+00  9.000E+00
      25     1     1     2     0     0  6.212053718E+01 -7.593884150E+01 -3.123109274E+01  1.619445891E+02  1.250000000E+02  0.00000E+00  9.000E+00
      21     1     1     2   511   501 -1.476162512E+01 -1.230934175E+01 -9.918744609E+01  1.010325439E+02  0.000000000E+00  0.00000E+00  9.000E+00
#rwgt            1           1   3.1722031329510930E-002           1       21768           0
</event>
<event>
      5   9999  3.19816E-02  2.24894E+01 -1.00000E+00  1.62272E-01
      21    -1     0     0   502   512  0.000000000E+00  0.000000000E+00  8.093891772E+02  8.093891772E+02  0.000000000E+00  0.00000E+00  9.000E+00
      21    -1     0     0   501   502  0.000000000E+00  0.000000000E+00 -1.988425260E+02  1.988425260E+02  0.000000000E+00  0.00000E+00  9.000E+00
      25     1     1     2     0     0  1.960414352E+02 -1.341724004E+02  2.678069525E+01  2.697715385E+02  1.250000000E+02  0.00000E+00  9.000E+00
      25     1     1     2     0     0 -1.819625890E+02  1.517097829E+02  1.557498015E+02  3.098535827E+02  1.250000000E+02  0.00000E+00  9.000E+00
      21     1     1     2   501   512 -1.407884619E+01 -1.753738251E+01  4.280161545E+02  4.286065821E+02  5.394796609E-06  0.00000E+00  9.000E+00
#rwgt            1           1   2.7867587006912390E-002           1       21893           0
</event>
<event>
      5   9999  3.19816E-02  4.43087E+02 -1.00000E+00  1.00366E-01
       2    -1     0     0   502     0  0.000000000E+00  0.000000000E+00  9.074897420E+02  9.074897420E+02  0.000000000E+00  0.00000E+00  9.000E+00
      21    -1     0     0   501   502  0.000000000E+00  0.000000000E+00 -2.299513842E+03  2.299513842E+03  0.000000000E+00  0.00000E+00  9.000E+00
      25     1     1     2     0     0  6.901074441E+02  5.208348438E+02 -1.263708973E+03  1.536262539E+03  1.250000000E+02  0.00000E+00  9.000E+00
      25     1     1     2     0     0 -4.721917855E+02 -1.350387755E+02 -7.513081698E+02  9.062502520E+02  1.250000000E+02  0.00000E+00  9.000E+00
       2     1     1     2   501     0 -2.179156585E+02 -3.857960682E+02  6.229930433E+02  7.644907930E+02  1.705984480E-05  0.00000E+00  9.000E+00
#rwgt            1           1   2.9375908295356672E-002           1       22060           0
</event>
<event>
      5   9999  3.19816E-02  7.05543E+02 -1.00000E+00  9.47812E-02
      21    -1     0     0   502   501  0.000000000E+00  0.000000000E+00  1.848744601E+03  1.848744601E+03  0.000000000E+00  0.00000E+00  9.000E+00
      21    -1     0     0   501   511  0.000000000E+00  0.000000000E+00 -1.388331308E+03  1.388331308E+03  0.000000000E+00  0.00000E+00  9.000E+00
      25     1     1     2     0     0  9.897760529E+01 -9.390795301E+02  1.144959283E+03  1.489370232E+03  1.250000000E+02  0.00000E+00  9.000E+00
      25     1     1     2     0     0  5.078296474E+02  5.791130698E+02 -6.907662706E+02  1.042135279E+03  1.250000000E+02  0.00000E+00  9.000E+00
      21     1     1     2   502   511 -6.068072526E+02  3.599664603E+02  6.220281324E+00  7.055703978E+02  1.285002048E-05  0.00000E+00  9.000E+00
#rwgt            1           1   7.2472290768033534E-002           1       22102           0
</event>
<event>
      5   9999  3.19816E-02  8.26412E+01 -1.00000E+00  1.27670E-01
      21    -1     0     0   502   512  0.000000000E+00  0.000000000E+00  6.603443345E+02  6.603443345E+02  0.000000000E+00  0.00000E+00  9.000E+00
      21    -1     0     0   501   502  0.000000000E+00  0.000000000E+00 -3.043687768E+02  3.043687768E+02  0.000000000E+00  0.00000E+00  9.000E+00
      25     1     1     2     0     0  3.463830007E+02 -2.336950334E+02  1.580662074E+02  4.639013664E+02  1.250000000E+02  0.00000E+00  9.000E+00
      25     1     1     2     0     0 -2.834591291E+02  1.801212839E+02  9.871317650E+01  3.717015550E+02  1.250000000E+02  0.00000E+00  9.000E+00
      21     1     1     2   501   512 -6.292387157E+01  5.357374950E+01  9.919617376E+01  1.291101899E+02  2.336015456E-06  0.00000E+00  9.000E+00
#rwgt            1           1   2.7048185503409098E-002           1       22165           0
</event>
<event>
      5   9999  3.19816E-02  1.11671E+02 -1.00000E+00  1.21709E-01
      21    -1     0     0   511   501  0.000000000E+00  0.000000000E+00  2.970378209E+02  2.970378209E+02  0.000000000E+00  0.00000E+00  9.000E+00
      21    -1     0     0   501   502  0.000000000E+00  0.000000000E+00 -3.123456398E+03  3.123456398E+03  0.000000000E+00  0.00000E+00  9.000E+00
      25     1     1     2     0     0 -5.272150116E+02 -4.164687170E+02 -3.247878055E+02  7.566465352E+02  1.250000000E+02  0.00000E+00  9.000E+00
      25     1     1     2     0     0  6.229851524E+02  3.590355551E+02 -2.413960779E+03  2.521874040E+03  1.250000000E+02  0.00000E+00  9.000E+00
      21     1     1     2   511   502 -9.577014079E+01  5.743316182E+01 -8.766999221E+01  1.419736436E+02  9.536743164E-07  0.00000E+00  9.000E+00
#rwgt            1           1   2.1944872315030898E-002           1       22229           0
</event>
<event>
      5   9999  3.19816E-02  1.87431E+02 -1.00000E+00  1.12684E-01
      21    -1     0     0   512   501  0.000000000E+00  0.000000000E+00  2.781425716E+02  2.781425716E+02  0.000000000E+00  0.00000E+00  9.000E+00
      21    -1     0     0   501   502  0.000000000E+00  0.000000000E+00 -8.047177826E+02  8.047177826E+02  0.000000000E+00  0.00000E+00  9.000E+00
      25     1     1     2     0     0 -1.759996337E+02  1.524590172E+02 -2.241969281E+02  3.465672887E+02  1.250000000E+02  0.00000E+00  9.000E+00
      25     1     1     2     0     0  3.608876208E+02 -1.216864731E+02 -3.614850653E+02  5.397628414E+02  1.250000000E+02  0.00000E+00  9.000E+00
      21     1     1     2   512   502 -1.848879871E+02 -3.077254406E+01  5.910678240E+01  1.965302241E+02  3.631483605E-06  0.00000E+00  9.000E+00
#rwgt            1           1   2.7277731594109053E-002           1       22291           0
</event>
<event>
      5   9999  3.19816E-02  5.18899E+01 -1.00000E+00  1.38162E-01
      21    -1     0     0   502   501  0.000000000E+00  0.000000000E+00  1.005727919E+03  1.005727919E+03  0.000000000E+00  0.00000E+00  9.000E+00
      21    -1     0     0   511   502  0.000000000E+00  0.000000000E+00 -3.578373529E+02  3.578373529E+02  0.000000000E+00  0.00000E+00  9.000E+00
      25     1     1     2     0     0 -7.201898047E+01 -8.099886016E+01  8.127248619E+02  8.293939052E+02  1.250000000E+02  0.00000E+00  9.000E+00
      25     1     1     2     0     0  1.238978431E+02  8.206849402E+01  1.307235399E+02  2.340930523E+02  1.250000000E+02  0.00000E+00  9.000E+00
      21     1     1     2   511   501 -5.187886263E+01 -1.069633861E+00 -2.955578357E+02  3.000783144E+02  3.814697266E-06  0.00000E+00  9.000E+00
#rwgt            1           1   2.7717467815446414E-002           1       22339           0
</event>
<event>
      5   9999  3.19816E-02  2.98798E+01 -1.00000E+00  1.53161E-01
      21    -1     0     0   512   501  0.000000000E+00  0.000000000E+00  2.857609348E+02  2.857609348E+02  0.000000000E+00  0.00000E+00  9.000E+00
      21    -1     0     0   501   502  0.000000000E+00  0.000000000E+00 -9.189865410E+02  9.189865410E+02  0.000000000E+00  0.00000E+00  9.000E+00
      25     1     1     2     0     0 -2.344265125E+02  1.607508221E+02  1.322201495E+02  3.374963474E+02  1.250000000E+02  0.00000E+00  9.000E+00
      25     1     1     2     0     0  2.420386582E+02 -1.896447744E+02 -7.685963961E+02  8.372056334E+02  1.250000000E+02  0.00000E+00  9.000E+00
      21     1     1     2   512   502 -7.612145679E+00  2.889395222E+01  3.150640426E+00  3.004549504E+01  5.161913656E-07  0.00000E+00  9.000E+00
#rwgt            1           1   2.7808695089967254E-002           1       22444           0
</event>
<event>
      5   9999  3.19816E-02  1.10396E+01 -1.00000E+00  1.90919E-01
      21    -1     0     0   502   501  0.000000000E+00  0.000000000E+00  7.683864918E+02  7.683864918E+02  0.000000000E+00  0.00000E+00  9.000E+00
      21    -1     0     0   501   511  0.000000000E+00  0.000000000E+00 -6.025534826E+02  6.025534826E+02  0.000000000E+00  0.00000E+00  9.000E+00
      25     1     1     2     0     0 -3.360566098E+02 -1.426344136E+02  6.393652920E+02  7.467875183E+02  1.250000000E+02  0.00000E+00  9.000E+00
      25     1     1     2     0     0  3.425420508E+02  1.515681997E+02 -4.658874808E+02  6.107242590E+02  1.250000000E+02  0.00000E+00  9.000E+00
      21     1     1     2   502   511 -6.485441018E+00 -8.933786174E+00 -7.644801883E+00  1.342819707E+01  2.528810911E-07  0.00000E+00  9.000E+00
#rwgt            2          11   3.0306798874116373E-003           1       22604           0
</event>
<event>
      5   9999  3.19816E-02  2.71165E+02 -1.00000E+00  1.07038E-01
      21    -1     0     0   502   501  0.000000000E+00  0.000000000E+00  1.391753949E+02  1.391753949E+02  0.000000000E+00  0.00000E+00  9.000E+00
      21    -1     0     0   512   502  0.000000000E+00  0.000000000E+00 -1.812203456E+03  1.812203456E+03  0.000000000E+00  0.00000E+00  9.000E+00
      25     1     1     2     0     0 -2.278709530E+02 -2.821563660E+02 -3.289853286E+02  5.053649498E+02  1.250000000E+02  0.00000E+00  9.000E+00
      25     1     1     2     0     0  3.887102694E+01  8.770988239E+01 -1.367315964E+02  2.086252853E+02  1.250000000E+02  0.00000E+00  9.000E+00
      21     1     1     2   512   501  1.889999260E+02  1.944464837E+02 -1.207311136E+03  1.237388616E+03  0.000000000E+00  0.00000E+00  9.000E+00
#rwgt            1           1   3.1246227397962133E-002           1       22624           0
</event>
<event>
      5   9999  3.19816E-02  3.05860E+02 -1.00000E+00  1.05320E-01
       2    -1     0     0   502     0  0.000000000E+00  0.000000000E+00  1.955397536E+03  1.955397536E+03  0.000000000E+00  0.00000E+00  9.000E+00
      21    -1     0     0   501   502  0.000000000E+00  0.000000000E+00 -1.467871790E+02  1.467871790E+02  0.000000000E+00  0.00000E+00  9.000E+00
      25     1     1     2     0     0  2.579171267E+02 -3.489681729E+02  5.566275628E+02  7.167700285E+02  1.250000000E+02  0.00000E+00  9.000E+00
      25     1     1     2     0     0 -2.364691563E+02  4.386123703E+01  4.292005006E+02  5.076214532E+02  1.250000000E+02  0.00000E+00  9.000E+00
       2     1     1     2   501     0 -2.144797047E+01  3.051069359E+02  8.227822932E+02  8.777932329E+02  1.525878906E-05  0.00000E+00  9.000E+00
#rwgt            1           1   2.7181607775327424E-002           1       22676           0
</event>
<event>
      5   9999  3.19816E-02  4.71143E+01 -1.00000E+00  1.40565E-01
      21    -1     0     0   502   501  0.000000000E+00  0.000000000E+00  1.725462261E+03  1.725462261E+03  0.000000000E+00  0.00000E+00  9.000E+00
      21    -1     0     0   501   511  0.000000000E+00  0.000000000E+00 -1.042982735E+02  1.042982735E+02  0.000000000E+00  0.00000E+00  9.000E+00
      25     1     1     2     0     0 -2.800099341E+02 -1.377127137E+02  5.854149415E+02  6.750600036E+02  1.250000000E+02  0.00000E+00  9.000E+00
      25     1     1     2     0     0  3.254525755E+02  1.501513965E+02  1.040277192E+03  1.107369160E+03  1.250000000E+02  0.00000E+00  9.000E+00
      21     1     1     2   502   511 -4.544264147E+01 -1.243868278E+01 -4.528146551E+00  4.733137019E+01  4.842304232E-07  0.00000E+00  9.000E+00
#rwgt            1           1   2.6106240919970807E-002           1       22715           0
</event>
<event>
      5   9999  3.19816E-02  6.16819E+01 -1.00000E+00  1.34065E-01
      21    -1     0     0   502   512  0.000000000E+00  0.000000000E+00  1.081630780E+03  1.081630780E+03  0.000000000E+00  0.00000E+00  9.000E+00
      21    -1     0     0   501   502  0.000000000E+00  0.000000000E+00 -3.109262536E+01  3.109262536E+01  0.000000000E+00  0.00000E+00  9.000E+00
      25     1     1     2     0     0 -1.239744342E+01 -6.834302689E+00  1.743107954E+02  2.149643173E+02  1.250000000E+02  0.00000E+00  9.000E+00
      25     1     1     2     0     0 -3.876738324E+01 -2.761589910E+01  5.973379449E+02  6.121300256E+02  1.250000000E+02  0.00000E+00  9.000E+00
      21     1     1     2   501   512  5.116482667E+01  3.445020179E+01  2.788894142E+02  2.856290623E+02  3.814697266E-06  0.00000E+00  9.000E+00
#rwgt            1           1   3.7926154115362862E-002           1       22858           0
</event>
<event>
      5   9999  3.19816E-02  4.40835E+01 -1.00000E+00  1.42270E-01
       1    -1     0     0   502     0  0.000000000E+00  0.000000000E+00  1.000150142E+03  1.000150142E+03  0.000000000E+00  0.00000E+00  9.000E+00
      21    -1     0     0   501   502  0.000000000E+00  0.000000000E+00 -5.405499925E+01  5.405499925E+01  0.000000000E+00  0.00000E+00  9.000E+00
      25     1     1     2     0     0  5.089122021E+01  1.041344187E+02  2.697309465E+02  3.190825551E+02  1.250000000E+02  0.00000E+00  9.000E+00
      25     1     1     2     0     0 -1.638660902E+01 -7.669751638E+01  1.630232472E+02  2.198922671E+02  1.250000000E+02  0.00000E+00  9.000E+00
       1     1     1     2   501     0 -3.450461119E+01 -2.743690230E+01  5.133409486E+02  5.152303187E+02  0.000000000E+00  0.00000E+00  9.000E+00
#rwgt            2          17   2.5435760893181548E-004           1       23020           0
</event>
<event>
      5   9999  3.19816E-02  4.49967E+01 -1.00000E+00  1.41739E-01
      21    -1     0     0   502   501  0.000000000E+00  0.000000000E+00  4.016745424E+02  4.016745424E+02  0.000000000E+00  0.00000E+00  9.000E+00
      21    -1     0     0   501   511  0.000000000E+00  0.000000000E+00 -3.496453470E+02  3.496453470E+02  0.000000000E+00  0.00000E+00  9.000E+00
      25     1     1     2     0     0 -3.016951798E+02  1.141531307E+02 -1.026364378E+02  3.608464454E+02  1.250000000E+02  0.00000E+00  9.000E+00
      25     1     1     2     0     0  2.653611171E+02 -8.761000759E+01  1.595459090E+02  3.452128807E+02  1.250000000E+02  0.00000E+00  9.000E+00
      21     1     1     2   502   511  3.633406276E+01 -2.654312315E+01 -4.880275818E+00  4.526056336E+01  2.308477966E-07  0.00000E+00  9.000E+00
#rwgt            1           1   2.8708616396605800E-002           1       23054           0
</event>
<event>
      5   9999  3.19816E-02  4.81599E+01 -1.00000E+00  1.40011E-01
      21    -1     0     0   512   501  0.000000000E+00  0.000000000E+00  3.381328648E+01  3.381328648E+01  0.000000000E+00  0.00000E+00  9.000E+00
      21    -1     0     0   501   502  0.000000000E+00  0.000000000E+00 -2.880847649E+03  2.880847649E+03  0.000000000E+00  0.00000E+00  9.000E+00
      25     1     1     2     0     0 -4.652296987E+01 -1.479685800E+02 -2.232367270E+03  2.241237987E+03  1.250000000E+02  0.00000E+00  9.000E+00
      25     1     1     2     0     0  9.428851848E+01  1.541189751E+02 -4.339059011E+02  4.863561598E+02  1.250000000E+02  0.00000E+00  9.000E+00
      21     1     1     2   512   502 -4.776554861E+01 -6.150395066E+00 -1.807611913E+02  1.870667883E+02  2.697398305E-06  0.00000E+00  9.000E+00
#rwgt            1           1   4.4221337952290780E-002           1       23150           0
</event>
<event>
      5   9999  3.19816E-02  1.22244E+02 -1.00000E+00  1.20028E-01
      21    -1     0     0   502   511  0.000000000E+00  0.000000000E+00  1.928188071E+03  1.928188071E+03  0.000000000E+00  0.00000E+00  9.000E+00
      21    -1     0     0   501   502  0.000000000E+00  0.000000000E+00 -2.664304780E+01  2.664304780E+01  0.000000000E+00  0.00000E+00  9.000E+00
      25     1     1     2     0     0 -4.958307697E+01 -3.635452426E+01  6.559022328E+02  6.705317829E+02  1.250000000E+02  0.00000E+00  9.000E+00
      25     1     1     2     0     0  8.673554419E+01 -8.010692872E+01  5.008969552E+02  5.295875134E+02  1.250000000E+02  0.00000E+00  9.000E+00
      21     1     1     2   501   511 -3.715246723E+01  1.164614530E+02  7.447458357E+02  7.547118229E+02  1.525878906E-05  0.00000E+00  9.000E+00
#rwgt            1           1   4.4978681973910785E-002           1       23239           0
</event>
<event>
      5   9999  3.19816E-02  3.36131E+01 -1.00000E+00  1.49687E-01
      21    -1     0     0   502   512  0.000000000E+00  0.000000000E+00  1.550407422E+03  1.550407422E+03  0.000000000E+00  0.00000E+00  9.000E+00
      21    -1     0     0   501   502  0.000000000E+00  0.000000000E+00 -4.241164594E+02  4.241164594E+02  0.000000000E+00  0.00000E+00  9.000E+00
      25     1     1     2     0     0 -1.860905314E+02 -5.193323142E+01 -3.770132380E+02  4.416907606E+02  1.250000000E+02  0.00000E+00  9.000E+00
      25     1     1     2     0     0  1.969099512E+02  2.010902521E+01  9.466940779E+02  9.752089924E+02  1.250000000E+02  0.00000E+00  9.000E+00
      21     1     1     2   501   512 -1.081941981E+01  3.182420621E+01  5.566101230E+02  5.576241287E+02  7.629394531E-06  0.00000E+00  9.000E+00
#rwgt            1           1   2.8790811806944629E-002           1       23301           0
</event>
<event>
      5   9999  3.19816E-02  2.75916E+02 -1.00000E+00  1.06786E-01
      21    -1     0     0   502   511  0.000000000E+00  0.000000000E+00  8.162993974E+02  8.162993974E+02  0.000000000E+00  0.00000E+00  9.000E+00
      21    -1     0     0   501   502  0.000000000E+00  0.000000000E+00 -5.883994358E+02  5.883994358E+02  0.000000000E+00  0.00000E+00  9.000E+00
      25     1     1     2     0     0  3.034108045E+02 -1.541373164E+02  3.647175037E+02  5.142570234E+02  1.250000000E+02  0.00000E+00  9.000E+00
      25     1     1     2     0     0 -6.211955455E+01  2.879589786E+02 -3.978766169E+02  5.105977034E+02  1.250000000E+02  0.00000E+00  9.000E+00
      21     1     1     2   501   511 -2.412912500E+02 -1.338216622E+02  2.610590748E+02  3.798441064E+02  6.607249480E-06  0.00000E+00  9.000E+00
#rwgt            2          11   3.4110223433817190E-003           1       23432           0
</event>
<event>
      5   9999  3.19816E-02  1.08948E+02 -1.00000E+00  1.22177E-01
      21    -1     0     0   502   501  0.000000000E+00  0.000000000E+00  8.784243339E+02  8.784243339E+02  0.000000000E+00  0.00000E+00  9.000E+00
      21    -1     0     0   512   502  0.000000000E+00  0.000000000E+00 -1.534688654E+02  1.534688654E+02  0.000000000E+00  0.00000E+00  9.000E+00
      25     1     1     2     0     0  3.925875019E+01 -1.990249602E+02  5.666750094E+02  6.147338859E+02  1.250000000E+02  0.00000E+00  9.000E+00
      25     1     1     2     0     0 -1.400060586E+02  1.575550727E+02  1.825100960E+02  3.055490673E+02  1.250000000E+02  0.00000E+00  9.000E+00
      21     1     1     2   512   501  1.007473084E+02  4.146988746E+01 -2.422963688E+01  1.116102461E+02  1.011524364E-06  0.00000E+00  9.000E+00
#rwgt            1           1   2.8996612866933048E-002           1       23467           0
</event>
<event>
      5   9999  3.19816E-02  2.50710E+01 -1.00000E+00  1.58659E-01
      21    -1     0     0   502   501  0.000000000E+00  0.000000000E+00  1.978978193E+02  1.978978193E+02  0.000000000E+00  0.00000E+00  9.000E+00
      21    -1     0     0   501   511  0.000000000E+00  0.000000000E+00 -2.643576541E+02  2.643576541E+02  0.000000000E+00  0.00000E+00  9.000E+00
      25     1     1     2     0     0  3.344204480E+01 -1.321644970E+02 -1.577597635E+01  1.856332569E+02  1.250000000E+02  0.00000E+00  9.000E+00
      25     1     1     2     0     0 -1.112496902E+01  1.435882610E+02  2.917676410E+01  1.929187321E+02  1.250000000E+02  0.00000E+00  9.000E+00
      21     1     1     2   502   511 -2.231707578E+01 -1.142376404E+01 -7.986062263E+01  8.370348442E+01  9.536743164E-07  0.00000E+00  9.000E+00
#rwgt            1           1   2.6120137675159298E-002           1       23565           0
</event>
<event>
      5   9999  3.92396E-02  4.90049E+01 -1.00000E+00  1.39575E-01
      21    -1     0     0   502   501  0.000000000E+00  0.000000000E+00  2.181572683E+01  2.181572683E+01  0.000000000E+00  0.00000E+00  9.000E+00
      21    -1     0     0   512   502  0.000000000E+00  0.000000000E+00 -2.425098917E+03  2.425098917E+03  0.000000000E+00  0.00000E+00  9.000E+00
      25     1     1     2     0     0 -9.601597849E+01 -7.976585258E+01 -8.046822240E+02  8.238447312E+02  1.250000000E+02  0.00000E+00  9.000E+00
      25     1     1     2     0     0  1.449304990E+02  7.679091404E+01 -9.259354897E+02  9.486217502E+02  1.250000000E+02  0.00000E+00  9.000E+00
      21     1     1     2   512   501 -4.891452048E+01  2.974938541E+00 -6.726654764E+02  6.744481623E+02  0.000000000E+00  0.00000E+00  9.000E+00
#rwgt            1           1  0.12211264548803140                1       23639           0
</event>
<event>
      5   9999  3.19816E-02  1.57025E+01 -1.00000E+00  1.75531E-01
      21    -1     0     0   511   501  0.000000000E+00  0.000000000E+00  3.731823578E+02  3.731823578E+02  0.000000000E+00  0.00000E+00  9.000E+00
      21    -1     0     0   501   502  0.000000000E+00  0.000000000E+00 -1.681382501E+03  1.681382501E+03  0.000000000E+00  0.00000E+00  9.000E+00
      25     1     1     2     0     0  7.057686594E+02 -2.885638550E+02 -5.050021358E+02  9.230550667E+02  1.250000000E+02  0.00000E+00  9.000E+00
      25     1     1     2     0     0 -7.014751212E+02  3.036679536E+02 -8.031932255E+02  1.115807299E+03  1.250000000E+02  0.00000E+00  9.000E+00
      21     1     1     2   511   502 -4.293538201E+00 -1.510409857E+01 -4.782197454E-03  1.570249301E+01  1.106983617E-07  0.00000E+00  9.000E+00
#rwgt            1           1   2.0918623523019764E-002           1       23724           0
</event>
<event>
      5   9999  3.19816E-02  8.40215E+01 -1.00000E+00  1.27327E-01
      21    -1     0     0   502   501  0.000000000E+00  0.000000000E+00  3.331092818E+02  3.331092818E+02  0.000000000E+00  0.00000E+00  9.000E+00
      21    -1     0     0   501   512  0.000000000E+00  0.000000000E+00 -1.411172069E+03  1.411172069E+03  0.000000000E+00  0.00000E+00  9.000E+00
      25     1     1     2     0     0 -2.105578444E+02 -3.066142199E+02 -8.032065828E+01  4.005287678E+02  1.250000000E+02  0.00000E+00  9.000E+00
      25     1     1     2     0     0  2.931006969E+02  2.909206683E+02 -1.010683301E+02  4.431508334E+02  1.250000000E+02  0.00000E+00  9.000E+00
      21     1     1     2   502   512 -8.254285249E+01  1.569355154E+01 -8.966737988E+02  9.006017497E+02  1.078959322E-05  0.00000E+00  9.000E+00
#rwgt            1           1   2.4590783275498546E-002           1       23995           0
</event>
<event>
      5   9999  3.19816E-02  2.24446E+01 -1.00000E+00  1.62340E-01
      21    -1     0     0   502   501  0.000000000E+00  0.000000000E+00  8.496003906E+01  8.496003906E+01  0.000000000E+00  0.00000E+00  9.000E+00
      21    -1     0     0   501   511  0.000000000E+00  0.000000000E+00 -4.529600359E+02  4.529600359E+02  0.000000000E+00  0.00000E+00  9.000E+00
      25     1     1     2     0     0  4.597606251E+00 -1.096090245E+02 -6.297902592E+01  1.778387864E+02  1.250000000E+02  0.00000E+00  9.000E+00
      25     1     1     2     0     0  1.784227348E+01  1.100686264E+02 -2.815144609E+02  3.275802817E+02  1.250000000E+02  0.00000E+00  9.000E+00
      21     1     1     2   502   511 -2.243987974E+01 -4.596019362E-01 -2.350651000E+01  3.250100689E+01  3.371747881E-07  0.00000E+00  9.000E+00
#rwgt            1           1   2.7498627092904033E-002           1       24085           0
</event>
<event>
      5   9999  3.19816E-02  1.11556E+01 -1.00000E+00  1.90423E-01
      21    -1     0     0   512   501  0.000000000E+00  0.000000000E+00  6.760696878E+02  6.760696878E+02  0.000000000E+00  0.00000E+00  9.000E+00
      21    -1     0     0   501   502  0.000000000E+00  0.000000000E+00 -1.531214392E+02  1.531214392E+02  0.000000000E+00  0.00000E+00  9.000E+00
      25     1     1     2     0     0  2.436549499E+02  3.208548207E+01  6.500282968E+01  2.832800392E+02  1.250000000E+02  0.00000E+00  9.000E+00
      25     1     1     2     0     0 -2.547820341E+02 -3.288264424E+01  4.354927226E+02  5.208397686E+02  1.250000000E+02  0.00000E+00  9.000E+00
      21     1     1     2   512   502  1.112708419E+01  7.971621718E-01  2.245269634E+01  2.507131913E+01  4.768371582E-07  0.00000E+00  9.000E+00
#rwgt            1           1   2.7423961309018287E-002           1       24216           0
</event>
<event>
      5   9999  3.19816E-02  2.07764E+01 -1.00000E+00  1.65016E-01
      21    -1     0     0   502   511  0.000000000E+00  0.000000000E+00  2.484157201E+02  2.484157201E+02  0.000000000E+00  0.00000E+00  9.000E+00
      21    -1     0     0   501   502  0.000000000E+00  0.000000000E+00 -2.412673798E+02  2.412673798E+02  0.000000000E+00  0.00000E+00  9.000E+00
      25     1     1     2     0     0 -1.732142727E+02 -4.031962805E+01  5.281831086E+01  2.237043375E+02  1.250000000E+02  0.00000E+00  9.000E+00
      25     1     1     2     0     0  1.907745754E+02  5.142351106E+01 -5.920348720E+01  2.411832685E+02  1.250000000E+02  0.00000E+00  9.000E+00
      21     1     1     2   501   511 -1.756030271E+01 -1.110388301E+01  1.353351666E+01  2.479549399E+01  4.460403188E-07  0.00000E+00  9.000E+00
#rwgt            1           1   2.8681237376199754E-002           1       24421           0
</event>
<event>
      5   9999  3.19816E-02  4.39978E+01 -1.00000E+00  1.42320E-01
      21    -1     0     0   512   501  0.000000000E+00  0.000000000E+00  1.278708905E+02  1.278708905E+02  0.000000000E+00  0.00000E+00  9.000E+00
      21    -1     0     0   501   502  0.000000000E+00  0.000000000E+00 -6.596995857E+02  6.596995857E+02  0.000000000E+00  0.00000E+00  9.000E+00
      25     1     1     2     0     0 -1.892244178E+02 -8.238264400E+01 -2.817963152E+02  3.709810555E+02  1.250000000E+02  0.00000E+00  9.000E+00
      25     1     1     2     0     0  2.332031921E+02  8.108877326E+01 -2.494749775E+02  3.725880867E+02  1.250000000E+02  0.00000E+00  9.000E+00
      21     1     1     2   512   502 -4.397877430E+01  1.293870732E+00 -5.574025363E-01  4.400133393E+01  1.229548979E-06  0.00000E+00  9.000E+00
#rwgt            1           1   2.9473413060889454E-002           1       24565           0
</event>
<event>
      5   9999  3.19816E-02  9.66803E+01 -1.00000E+00  1.24491E-01
      21    -1     0     0   502   511  0.000000000E+00  0.000000000E+00  1.859472863E+03  1.859472863E+03  0.000000000E+00  0.00000E+00  9.000E+00
      21    -1     0     0   501   502  0.000000000E+00  0.000000000E+00 -1.613909815E+02  1.613909815E+02  0.000000000E+00  0.00000E+00  9.000E+00
      25     1     1     2     0     0  4.783289688E+01  4.322327866E+02  3.253036045E+02  5.572796452E+02  1.250000000E+02  0.00000E+00  9.000E+00
      25     1     1     2     0     0 -9.496082277E+01 -3.478168754E+02  8.470288744E+02  9.290194028E+02  1.250000000E+02  0.00000E+00  9.000E+00
      21     1     1     2   501   511  4.712792589E+01 -8.441591118E+01  5.257494027E+02  5.345647967E+02  7.629394531E-06  0.00000E+00  9.000E+00
#rwgt            1           1   3.0222914563407050E-002           1       24681           0
</event>
<event>
      5   9999  3.19816E-02  1.77566E+02 -1.00000E+00  1.13562E-01
      21    -1     0     0   502   501  0.000000000E+00  0.000000000E+00  1.225063058E+03  1.225063058E+03  0.000000000E+00  0.00000E+00  9.000E+00
      21    -1     0     0   501   512  0.000000000E+00  0.000000000E+00 -1.984136194E+02  1.984136194E+02  0.000000000E+00  0.00000E+00  9.000E+00
      25     1     1     2     0     0  3.960080476E+02  7.648935083E+01  3.936744671E+02  5.773019839E+02  1.250000000E+02  0.00000E+00  9.000E+00
      25     1     1     2     0     0 -3.187457885E+02  8.338654378E+01  5.424591779E+02  6.468687294E+02  1.250000000E+02  0.00000E+00  9.000E+00
      21     1     1     2   502   512 -7.726225904E+01 -1.598758946E+02  9.051579325E+01  1.993059637E+02  1.348699152E-06  0.00000E+00  9.000E+00
#rwgt            1           1   2.7233072595019631E-002           1       24767           0
</event>
<event>
      5   9999  3.19816E-02  4.29760E+02 -1.00000E+00  1.00756E-01
       5    -1     0     0   502     0  0.000000000E+00  0.000000000E+00  5.390097093E+02  5.390097093E+02  0.000000000E+00  0.00000E+00  9.000E+00
      21    -1     0     0   501   502  0.000000000E+00  0.000000000E+00 -6.072276682E+02  6.072276682E+02  0.000000000E+00  0.00000E+00  9.000E+00
      25     1     1     2     0     0 -5.721243028E+01 -8.767466699E+01 -7.696565469E+01  1.803020283E+02  1.250000000E+02  0.00000E+00  9.000E+00
      25     1     1     2     0     0 -1.236571690E+02  4.775209453E+02 -1.088509958E+02  5.203757180E+02  1.250000000E+02  0.00000E+00  9.000E+00
       5     1     1     2   501     0  1.808695993E+02 -3.898462783E+02  1.175986916E+02  4.455596311E+02  5.560829062E-06  0.00000E+00  9.000E+00
#rwgt            2          21   2.1292506333283876E-005           1       24888           0
</event>
<event>
      5   9999  3.19816E-02  1.06518E+02 -1.00000E+00  1.22607E-01
      21    -1     0     0   502   501  0.000000000E+00  0.000000000E+00  3.502548125E+02  3.502548125E+02  0.000000000E+00  0.00000E+00  9.000E+00
      21    -1     0     0   501   511  0.000000000E+00  0.000000000E+00 -5.780151881E+02  5.780151881E+02  0.000000000E+00  0.00000E+00  9.000E+00
      25     1     1     2     0     0 -9.139935688E+01 -1.118296525E+02 -3.213663033E+02  3.738462445E+02  1.250000000E+02  0.00000E+00  9.000E+00
      25     1     1     2     0     0  1.179091722E+02  2.149958261E+02  2.455626571E+02  3.688519984E+02  1.250000000E+02  0.00000E+00  9.000E+00
      21     1     1     2   502   511 -2.650981529E+01 -1.031661735E+02 -1.519567294E+02  1.855717577E+02  1.907348633E-06  0.00000E+00  9.000E+00
#rwgt            1           1   2.4466295731547585E-002           1       24922           0
</event>
<event>
      5   9999  3.19816E-02  3.27332E+01 -1.00000E+00  1.50455E-01
      21    -1     0     0   512   501  0.000000000E+00  0.000000000E+00  3.741498994E+02  3.741498994E+02  0.000000000E+00  0.00000E+00  9.000E+00
      21    -1     0     0   501   502  0.000000000E+00  0.000000000E+00 -3.597483555E+02  3.597483555E+02  0.000000000E+00  0.00000E+00  9.000E+00
      25     1     1     2     0     0 -6.885257673E+01 -1.842971246E+02  9.841572208E+01  2.530153391E+02  1.250000000E+02  0.00000E+00  9.000E+00
      25     1     1     2     0     0  3.735010395E+01  1.931884254E+02 -2.322583060E+02  3.290679545E+02  1.250000000E+02  0.00000E+00  9.000E+00
      21     1     1     2   512   502  3.150247278E+01 -8.891300775E+00  1.482441279E+02  1.518149613E+02  2.697398305E-06  0.00000E+00  9.000E+00
#rwgt            1           1   2.7063785357800543E-002           1       24990           0
</event>
<event>
      5   9999  3.19816E-02  2.82720E+01 -1.00000E+00  1.54851E-01
      21    -1     0     0   502   501  0.000000000E+00  0.000000000E+00  6.589705873E+01  6.589705873E+01  0.000000000E+00  0.00000E+00  9.000E+00
       2    -1     0     0   501     0  0.000000000E+00  0.000000000E+00 -2.755835822E+03  2.755835822E+03  0.000000000E+00  0.00000E+00  9.000E+00
      25     1     1     2     0     0  1.481981497E+01  7.505307378E+01 -5.140077611E+02  5.344918795E+02  1.250000000E+02  0.00000E+00  9.000E+00
      25     1     1     2     0     0  7.824901238E+00 -5.812616447E+01 -3.022032631E+01  1.413440773E+02  1.250000000E+02  0.00000E+00  9.000E+00
       2     1     1     2   502     0 -2.264471621E+01 -1.692690931E+01 -2.145710676E+03  2.145896924E+03  4.315837288E-05  0.00000E+00  9.000E+00
#rwgt            1           1   2.6489551809954319E-002           1       25154           0
</event>
<event>
      5   9999  3.19816E-02  1.64225E+01 -1.00000E+00  1.73755E-01
      21    -1     0     0   502   501  0.000000000E+00  0.000000000E+00  1.236982635E+02  1.236982635E+02  0.000000000E+00  0.00000E+00  9.000E+00
      21    -1     0     0   501   511  0.000000000E+00  0.000000000E+00 -8.305986917E+02  8.305986917E+02  0.000000000E+00  0.00000E+00  9.000E+00
      25     1     1     2     0     0 -1.603644626E+02 -1.994318961E+02 -5.296591709E+02  6.013764872E+02  1.250000000E+02  0.00000E+00  9.000E+00
      25     1     1     2     0     0  1.502059792E+02  1.865283264E+02 -1.240795546E+02  2.972799835E+02  1.250000000E+02  0.00000E+00  9.000E+00
      21     1     1     2   502   511  1.015848341E+01  1.290356971E+01 -5.316170261E+01  5.564048455E+01  9.536743164E-07  0.00000E+00  9.000E+00
#rwgt            1           1   2.7622009032590829E-002           1       25298           0
</event>
<event>
      5   9999  3.19816E-02  2.69919E+01 -1.00000E+00  1.56297E-01
      21    -1     0     0   512   501  0.000000000E+00  0.000000000E+00  9.012391105E+02  9.012391105E+02  0.000000000E+00  0.00000E+00  9.000E+00
      21    -1     0     0   501   502  0.000000000E+00  0.000000000E+00 -8.507074992E+02  8.507074992E+02  0.000000000E+00  0.00000E+00  9.000E+00
      25     1     1     2     0     0 -5.847516991E+02 -4.519511658E+02  6.109237563E+01  7.520317043E+02  1.250000000E+02  0.00000E+00  9.000E+00
      25     1     1     2     0     0  6.079756876E+02  4.657064185E+02 -2.058111370E+02  8.028076538E+02  1.250000000E+02  0.00000E+00  9.000E+00
      21     1     1     2   512   502 -2.322398847E+01 -1.375525274E+01  1.952503727E+02  1.971072517E+02  3.814697266E-06  0.00000E+00  9.000E+00
#rwgt            1           1   2.7483829333117479E-002           1       25529           0
</event>
<event>
      5   9999  3.19816E-02  1.06245E+02 -1.00000E+00  1.22656E-01
      21    -1     0     0   502   501  0.000000000E+00  0.000000000E+00  1.771463763E+02  1.771463763E+02  0.000000000E+00  0.00000E+00  9.000E+00
       1    -1     0     0   501     0  0.000000000E+00  0.000000000E+00 -1.940583193E+03  1.940583193E+03  0.000000000E+00  0.00000E+00  9.000E+00
      25     1     1     2     0     0  7.108843933E+01  1.145135235E+02  4.794914756E+01  1.899764039E+02  1.250000000E+02  0.00000E+00  9.000E+00
      25     1     1     2     0     0 -4.966990156E+01 -2.185771563E+02 -2.356006562E+02  3.483902145E+02  1.250000000E+02  0.00000E+00  9.000E+00
       1     1     1     2   502     0 -2.141853777E+01  1.040636328E+02 -1.575785308E+03  1.579362950E+03  2.157918644E-05  0.00000E+00  9.000E+00
#rwgt            1           1   2.7803926868447400E-002           1       25766           0
</event>
<event>
      5   9999  3.19816E-02  1.55170E+01 -1.00000E+00  1.76008E-01
      21    -1     0     0   502   501  0.000000000E+00  0.000000000E+00  3.683360508E+03  3.683360508E+03  0.000000000E+00  0.00000E+00  9.000E+00
      21    -1     0     0   501   511  0.000000000E+00  0.000000000E+00 -2.011756209E+02  2.011756209E+02  0.000000000E+00  0.00000E+00  9.000E+00
      25     1     1     2     0     0 -6.189004247E+02  3.198401667E+02  1.412128233E+03  1.579577986E+03  1.250000000E+02  0.00000E+00  9.000E+00
      25     1     1     2     0     0  6.275296916E+02 -3.069439187E+02  2.128917580E+03  2.244086261E+03  1.250000000E+02  0.00000E+00  9.000E+00
      21     1     1     2   502   511 -8.629266862E+00 -1.289624805E+01 -5.886092572E+01  6.087188216E+01  4.317944116E-06  0.00000E+00  9.000E+00
#rwgt            1           1   2.2878336885610504E-002           1       25845           0
</event>
<event>
      5   9999  3.19816E-02  2.13169E+02 -1.00000E+00  1.10649E-01
      21    -1     0     0   502   512  0.000000000E+00  0.000000000E+00  2.065063676E+02  2.065063676E+02  0.000000000E+00  0.00000E+00  9.000E+00
      21    -1     0     0   501   502  0.000000000E+00  0.000000000E+00 -2.274686486E+03  2.274686486E+03  0.000000000E+00  0.00000E+00  9.000E+00
      25     1     1     2     0     0 -2.162845315E+02  1.738360052E+01 -1.802237281E+03  1.819550880E+03  1.250000000E+02  0.00000E+00  9.000E+00
      25     1     1     2     0     0  1.295021021E+02  1.773203513E+02 -3.507038085E+02  4.322400522E+02  1.250000000E+02  0.00000E+00  9.000E+00
      21     1     1     2   501   512  8.678242939E+01 -1.947039519E+02  8.476097163E+01  2.294019207E+02  2.132480600E-06  0.00000E+00  9.000E+00
#rwgt            1           1   9.5680150792251395E-002           1       26049           0
</event>
<event>
      5   9999  3.19816E-02  1.88947E+01 -1.00000E+00  1.68432E-01
       2    -1     0     0   502     0  0.000000000E+00  0.000000000E+00  1.473572930E+03  1.473572930E+03  0.000000000E+00  0.00000E+00  9.000E+00
      21    -1     0     0   501   502  0.000000000E+00  0.000000000E+00 -1.071199635E+03  1.071199635E+03  0.000000000E+00  0.00000E+00  9.000E+00
      25     1     1     2     0     0 -1.818389971E+02 -5.338068450E+01 -4.355485095E+01  2.311643212E+02  1.250000000E+02  0.00000E+00  9.000E+00
      25     1     1     2     0     0  1.998261118E+02  5.916628887E+01 -9.179634835E+02  9.495857422E+02  1.250000000E+02  0.00000E+00  9.000E+00
       2     1     1     2   501     0 -1.798711469E+01 -5.785604367E+00  1.363891629E+03  1.364022502E+03  2.157918644E-05  0.00000E+00  9.000E+00
#rwgt            1           1   3.2120051195330943E-002           1       26123           0
</event>
<event>
      5   9999  3.19816E-02  5.44111E+01 -1.00000E+00  1.37012E-01
      21    -1     0     0   502   501  0.000000000E+00  0.000000000E+00  5.773104186E+02  5.773104186E+02  0.000000000E+00  0.00000E+00  9.000E+00
      21    -1     0     0   511   502  0.000000000E+00  0.000000000E+00 -4.950057533E+02  4.950057533E+02  0.000000000E+00  0.00000E+00  9.000E+00
      25     1     1     2     0     0 -3.269443337E+02  3.749164380E+01 -2.989217164E+02  4.618196761E+02  1.250000000E+02  0.00000E+00  9.000E+00
      25     1     1     2     0     0  3.616244008E+02 -7.941849359E+01  3.936603558E+02  5.546827743E+02  1.250000000E+02  0.00000E+00  9.000E+00
      21     1     1     2   511   501 -3.468006711E+01  4.192684979E+01 -1.243397413E+01  5.581372144E+01  9.386548846E-07  0.00000E+00  9.000E+00
#rwgt            1           1   2.4916857219059001E-002           1       26280           0
</event>
<event>
      5   9999  3.19816E-02  2.77313E+01 -1.00000E+00  1.55450E-01
      21    -1     0     0   502   501  0.000000000E+00  0.000000000E+00  2.217925696E+03  2.217925696E+03  0.000000000E+00  0.00000E+00  9.000E+00
      21    -1     0     0   501   512  0.000000000E+00  0.000000000E+00 -2.139740447E+02  2.139740447E+02  0.000000000E+00  0.00000E+00  9.000E+00
      25     1     1     2     0     0 -3.486074163E+02 -3.328479016E+02  1.809897568E+03  1.877143858E+03  1.250000000E+02  0.00000E+00  9.000E+00
      25     1     1     2     0     0  3.218209261E+02  3.400248593E+02  1.588580015E+02  5.099475248E+02  1.250000000E+02  0.00000E+00  9.000E+00
      21     1     1     2   502   512  2.678649015E+01 -7.176957683E+00  3.519608166E+01  4.480835793E+01  0.000000000E+00  0.00000E+00  9.000E+00
#rwgt            1           1   3.2470092188789358E-002           1       26428           0
</event>
<event>
      5   9999  3.19816E-02  7.45124E+00 -1.00000E+00  2.11789E-01
      21    -1     0     0   502   501  0.000000000E+00  0.000000000E+00  6.708332789E+02  6.708332789E+02  0.000000000E+00  0.00000E+00  9.000E+00
      21    -1     0     0   511   502  0.000000000E+00  0.000000000E+00 -7.370369829E+01  7.370369829E+01  0.000000000E+00  0.00000E+00  9.000E+00
      25     1     1     2     0     0 -1.515904257E+02 -1.689160963E+01  3.267805350E+02  3.816746019E+02  1.250000000E+02  0.00000E+00  9.000E+00
      25     1     1     2     0     0  1.443929476E+02  1.496360116E+01  2.867470479E+02  3.448508404E+02  1.250000000E+02  0.00000E+00  9.000E+00
      21     1     1     2   511   501  7.197478119E+00  1.928008471E+00 -1.639800234E+01  1.801153488E+01  3.371747881E-07  0.00000E+00  9.000E+00
#rwgt            1           1   2.8157039114030512E-002           1       26595           0
</event>
<event>
      5   9999  3.19816E-02  2.97676E+01 -1.00000E+00  1.53275E-01
      21    -1     0     0   502   501  0.000000000E+00  0.000000000E+00  2.049307564E+02  2.049307564E+02  0.000000000E+00  0.00000E+00  9.000E+00
      21    -1     0     0   512   502  0.000000000E+00  0.000000000E+00 -7.387853804E+02  7.387853804E+02  0.000000000E+00  0.00000E+00  9.000E+00
      25     1     1     2     0     0 -3.399388775E+02  5.990667990E+01 -1.810590463E+02  4.093343731E+02  1.250000000E+02  0.00000E+00  9.000E+00
      25     1     1     2     0     0  3.176073590E+02 -4.022391751E+01 -2.437465193E+02  4.213428102E+02  1.250000000E+02  0.00000E+00  9.000E+00
      21     1     1     2   512   501  2.233151852E+01 -1.968276240E+01 -1.090490584E+02  1.130389534E+02  1.907348633E-06  0.00000E+00  9.000E+00
#rwgt            1           1   2.8514506844703566E-002           1       26813           0
</event>
<event>
      5   9999  3.19816E-02  2.59043E+02 -1.00000E+00  1.07706E-01
       2    -1     0     0   502     0  0.000000000E+00  0.000000000E+00  1.731348443E+03  1.731348443E+03  0.000000000E+00  0.00000E+00  9.000E+00
      21    -1     0     0   501   502  0.000000000E+00  0.000000000E+00 -9.465565134E+01  9.465565134E+01  0.000000000E+00  0.00000E+00  9.000E+00
      25     1     1     2     0     0  6.694188602E+01  3.185549175E+02  6.493741564E+02  7.370686851E+02  1.250000000E+02  0.00000E+00  9.000E+00
      25     1     1     2     0     0 -1.138256411E+02 -6.379006598E+01  5.680560416E+02  5.961024371E+02  1.250000000E+02  0.00000E+00  9.000E+00
       2     1     1     2   501     0  4.688375512E+01 -2.547648515E+02  4.192625938E+02  4.928329723E+02  7.629394531E-06  0.00000E+00  9.000E+00
#rwgt            1           1   2.3194673414903118E-002           1       26968           0
</event>
<event>
      5   9999  3.19816E-02  5.26009E+01 -1.00000E+00  1.37831E-01
      21    -1     0     0   502   511  0.000000000E+00  0.000000000E+00  1.048471591E+03  1.048471591E+03  0.000000000E+00  0.00000E+00  9.000E+00
      21    -1     0     0   501   502  0.000000000E+00  0.000000000E+00 -1.957789888E+03  1.957789888E+03  0.000000000E+00  0.00000E+00  9.000E+00
      25     1     1     2     0     0 -4.629010557E+02  2.225671796E+02 -1.810964012E+03  1.886538944E+03  1.250000000E+02  0.00000E+00  9.000E+00
      25     1     1     2     0     0  5.125132615E+02 -2.400451734E+02  6.874783418E+02  8.991901906E+02  1.250000000E+02  0.00000E+00  9.000E+00
      21     1     1     2   501   511 -4.961220581E+01  1.747799375E+01  2.141673732E+02  2.205323446E+02  3.814697266E-06  0.00000E+00  9.000E+00
#rwgt            1           1   6.0714184510370951E-002           1       27023           0
</event>
<event>
      5   9999  3.19816E-02  1.86318E+02 -1.00000E+00  1.12780E-01
      21    -1     0     0   502   501  0.000000000E+00  0.000000000E+00  1.461639046E+03  1.461639046E+03  0.000000000E+00  0.00000E+00  9.000E+00
      21    -1     0     0   501   512  0.000000000E+00  0.000000000E+00 -1.451618378E+02  1.451618378E+02  0.000000000E+00  0.00000E+00  9.000E+00
      25     1     1     2     0     0 -8.718251738E+01 -1.113435766E+02  4.109801147E+02  4.522475407E+02  1.250000000E+02  0.00000E+00  9.000E+00
      25     1     1     2     0     0  1.141763276E+02  2.956961258E+02  9.062991900E+02  9.682332645E+02  1.250000000E+02  0.00000E+00  9.000E+00
      21     1     1     2   502   512 -2.699381026E+01 -1.843525492E+02 -8.020968503E-01  1.863200782E+02  3.815352046E-06  0.00000E+00  9.000E+00
#rwgt            2          11   6.7763155081715116E-003           1       27169           0
</event>
<event>
      5   9999  3.19816E-02  2.68123E+01 -1.00000E+00  1.56507E-01
      21    -1     0     0   502   511  0.000000000E+00  0.000000000E+00  3.060095548E+02  3.060095548E+02  0.000000000E+00  0.00000E+00  9.000E+00
      21    -1     0     0   501   502  0.000000000E+00  0.000000000E+00 -3.143979838E+02  3.143979838E+02  0.000000000E+00  0.00000E+00  9.000E+00
      25     1     1     2     0     0 -2.240565256E+02  1.399393605E+02  4.891777701E+01  2.963145291E+02  1.250000000E+02  0.00000E+00  9.000E+00
      25     1     1     2     0     0  2.025195331E+02 -1.239688439E+02 -8.887287082E+01  2.826761800E+02  1.250000000E+02  0.00000E+00  9.000E+00
      21     1     1     2   501   511  2.153699243E+01 -1.597051654E+01  3.156666474E+01  4.141682948E+01  5.840038640E-07  0.00000E+00  9.000E+00
#rwgt            1           1   2.7231290147005375E-002           1       27189           0
</event>
<event>
      5   9999  3.19816E-02  4.08271E+01 -1.00000E+00  1.44291E-01
      21    -1     0     0   512   501  0.000000000E+00  0.000000000E+00  1.331909315E+02  1.331909315E+02  0.000000000E+00  0.00000E+00  9.000E+00
      21    -1     0     0   501   502  0.000000000E+00  0.000000000E+00 -8.485274215E+02  8.485274215E+02  0.000000000E+00  0.00000E+00  9.000E+00
      25     1     1     2     0     0 -1.083786922E+02 -1.807675218E+02 -1.186680876E+02  2.722681636E+02  1.250000000E+02  0.00000E+00  9.000E+00
      25     1     1     2     0     0  1.421047982E+02  1.577588305E+02 -6.166094787E+02  6.640134574E+02  1.250000000E+02  0.00000E+00  9.000E+00
      21     1     1     2   512   502 -3.372610600E+01  2.300869130E+01  1.994107630E+01  4.543673211E+01  9.830249847E-07  0.00000E+00  9.000E+00
#rwgt            1           1   2.9446914728991410E-002           1       27319           0
</event>
<event>
      5   9999  3.19816E-02  1.07775E+02 -1.00000E+00  1.22383E-01
      21    -1     0     0   511   501  0.000000000E+00  0.000000000E+00  3.769674872E+02  3.769674872E+02  0.000000000E+00  0.00000E+00  9.000E+00
      21    -1     0     0   501   502  0.000000000E+00  0.000000000E+00 -1.331169900E+03  1.331169900E+03  0.000000000E+00  0.00000E+00  9.000E+00
      25     1     1     2     0     0 -4.808199046E+01 -5.422250569E+01 -1.285961745E+03  1.294053541E+03  1.250000000E+02  0.00000E+00  9.000E+00
      25     1     1     2     0     0 -5.355345383E+01  1.836578663E+01  2.161554806E+02  2.560341117E+02  1.250000000E+02  0.00000E+00  9.000E+00
      21     1     1     2   511   502  1.016354443E+02  3.585671907E+01  1.156038519E+02  1.580497340E+02  0.000000000E+00  0.00000E+00  9.000E+00
#rwgt            1           1   2.9657442957945413E-002           1       27423           0
</event>
<event>
      5   9999  3.19816E-02  1.23159E+01 -1.00000E+00  1.85849E-01
      21    -1     0     0   512   501  0.000000000E+00  0.000000000E+00  5.689474966E+02  5.689474966E+02  0.000000000E+00  0.00000E+00  9.000E+00
      21    -1     0     0   501   502  0.000000000E+00  0.000000000E+00 -4.573351426E+01  4.573351426E+01  0.000000000E+00  0.00000E+00  9.000E+00
      25     1     1     2     0     0 -1.269589339E+01  6.080413508E+01  2.502423545E+02  2.865389407E+02  1.250000000E+02  0.00000E+00  9.000E+00
      25     1     1     2     0     0  1.958938898E+01 -7.101002094E+01  1.660271565E+02  2.204907797E+02  1.250000000E+02  0.00000E+00  9.000E+00
      21     1     1     2   512   502 -6.893495594E+00  1.020588586E+01  1.069444714E+02  1.076512906E+02  0.000000000E+00  0.00000E+00  9.000E+00
#rwgt            1           1   3.4627550467783361E-002           1       27503           0
</event>
<event>
      5   9999  3.19816E-02  7.50266E+01 -1.00000E+00  1.29713E-01
      21    -1     0     0   502   501  0.000000000E+00  0.000000000E+00  3.045828245E+02  3.045828245E+02  0.000000000E+00  0.00000E+00  9.000E+00
      21    -1     0     0   501   511  0.000000000E+00  0.000000000E+00 -2.616405216E+02  2.616405216E+02  0.000000000E+00  0.00000E+00  9.000E+00
      25     1     1     2     0     0 -8.809931599E+00 -9.548389350E+01  1.862693091E+02  2.439591038E+02  1.250000000E+02  0.00000E+00  9.000E+00
      25     1     1     2     0     0  5.240781376E+01  1.565430460E+02 -1.340380789E+02  2.466647741E+02  1.250000000E+02  0.00000E+00  9.000E+00
      21     1     1     2   502   511 -4.359788217E+01 -6.105915247E+01 -9.288927225E+00  7.559946824E+01  1.936921693E-06  0.00000E+00  9.000E+00
#rwgt            1           1   2.8397945694173636E-002           1       27677           0
</event>
<event>
      5   9999  3.19816E-02  4.01744E+01 -1.00000E+00  1.44723E-01
      21    -1     0     0   502   512  0.000000000E+00  0.000000000E+00  1.622972918E+03  1.622972918E+03  0.000000000E+00  0.00000E+00  9.000E+00
      21    -1     0     0   501   502  0.000000000E+00  0.000000000E+00 -5.270405678E+01  5.270405678E+01  0.000000000E+00  0.00000E+00  9.000E+00
      25     1     1     2     0     0  7.655220809E+01  1.802855171E+02  6.851884893E+02  7.235132163E+02  1.250000000E+02  0.00000E+00  9.000E+00
      25     1     1     2     0     0 -1.140951006E+02 -1.659848094E+02  3.966757031E+02  4.621095783E+02  1.250000000E+02  0.00000E+00  9.000E+00
      21     1     1     2   501   512  3.754289250E+01 -1.430070776E+01  4.884046687E+02  4.900541801E+02  7.629394531E-06  0.00000E+00  9.000E+00
#rwgt            1           1   2.5787123150591649E-002           1       27789           0
</event>
<event>
      5   9999  3.19816E-02  2.94134E+02 -1.00000E+00  1.05871E-01
      21    -1     0     0   502   501  0.000000000E+00  0.000000000E+00  1.118575326E+02  1.118575326E+02  0.000000000E+00  0.00000E+00  9.000E+00
       2    -1     0     0   501     0  0.000000000E+00  0.000000000E+00 -5.996077820E+03  5.996077820E+03  0.000000000E+00  0.00000E+00  9.000E+00
      25     1     1     2     0     0  9.679375943E+01  2.807599236E+02 -4.264738425E+02  5.345092187E+02  1.250000000E+02  0.00000E+00  9.000E+00
      25     1     1     2     0     0  1.464731164E+02 -1.154240068E+02 -1.807083803E+02  2.881971441E+02  1.250000000E+02  0.00000E+00  9.000E+00
       2     1     1     2   502     0 -2.432668758E+02 -1.653359168E+02 -5.277038064E+03  5.285228990E+03  6.103515625E-05  0.00000E+00  9.000E+00
#rwgt            1           1   3.1812021508908175E-002           1       27871           0
</event>
<event>
      5   9999  3.19816E-02  3.51962E+01 -1.00000E+00  1.48372E-01
      21    -1     0     0   502   501  0.000000000E+00  0.000000000E+00  5.394094919E+02  5.394094919E+02  0.000000000E+00  0.00000E+00  9.000E+00
      21    -1     0     0   501   511  0.000000000E+00  0.000000000E+00 -2.452805685E+02  2.452805685E+02  0.000000000E+00  0.00000E+00  9.000E+00
      25     1     1     2     0     0 -1.130891291E+02  1.486130453E+02  4.480199966E+02  5.012204163E+02  1.250000000E+02  0.00000E+00  9.000E+00
      25     1     1     2     0     0  8.204202695E+01 -1.320343560E+02 -1.120307905E+02  2.287790711E+02  1.250000000E+02  0.00000E+00  9.000E+00
      21     1     1     2   502   511  3.104710219E+01 -1.657868930E+01 -4.186028270E+01  5.469057287E+01  1.066240300E-06  0.00000E+00  9.000E+00
#rwgt            1           1   2.7845510929468180E-002           1       27913           0
</event>
<event>
      5   9999  3.19816E-02  7.08572E+01 -1.00000E+00  1.30954E-01
      21    -1     0     0   512   501  0.000000000E+00  0.000000000E+00  3.137257613E+02  3.137257613E+02  0.000000000E+00  0.00000E+00  9.000E+00
      21    -1     0     0   501   502  0.000000000E+00  0.000000000E+00 -1.142038655E+03  1.142038655E+03  0.000000000E+00  0.00000E+00  9.000E+00
      25     1     1     2     0     0  1.516656359E+01 -3.251140758E+02 -1.937665158E+02  3.988729742E+02  1.250000000E+02  0.00000E+00  9.000E+00
      25     1     1     2     0     0 -8.512741391E+01  3.138795226E+02 -8.023544233E+02  8.747369044E+02  1.250000000E+02  0.00000E+00  9.000E+00
      21     1     1     2   512   502  6.996085032E+01  1.123455318E+01  1.678080450E+02  1.821545380E+02  4.264961200E-06  0.00000E+00  9.000E+00
#rwgt            1           1   2.4556231637287949E-002           1       28068           0
</event>
<event>
      5   9999  3.19816E-02  1.37022E+02 -1.00000E+00  1.17973E-01
      21    -1     0     0   511   501  0.000000000E+00  0.000000000E+00  1.211707389E+03  1.211707389E+03  0.000000000E+00  0.00000E+00  9.000E+00
      21    -1     0     0   501   502  0.000000000E+00  0.000000000E+00 -9.187756140E+02  9.187756140E+02  0.000000000E+00  0.00000E+00  9.000E+00
      25     1     1     2     0     0  2.269321522E+02 -2.938079478E+02 -7.382687563E+02  8.357553879E+02  1.250000000E+02  0.00000E+00  9.000E+00
      25     1     1     2     0     0 -1.141849958E+02  2.159427748E+02  2.091697846E+01  2.751945044E+02  1.250000000E+02  0.00000E+00  9.000E+00
      21     1     1     2   511   502 -1.127471564E+02  7.786517299E+01  1.010283553E+03  1.019533111E+03  1.078959322E-05  0.00000E+00  9.000E+00
#rwgt            1           1   2.6765228443802795E-002           1       28138           0
</event>
<event>
      5   9999  3.19816E-02  5.38084E+01 -1.00000E+00  1.37281E-01
      21    -1     0     0   512   501  0.000000000E+00  0.000000000E+00  1.717504925E+03  1.717504925E+03  0.000000000E+00  0.00000E+00  9.000E+00
      21    -1     0     0   501   502  0.000000000E+00  0.000000000E+00 -7.392113692E+01  7.392113692E+01  0.000000000E+00  0.00000E+00  9.000E+00
      25     1     1     2     0     0  1.787827535E+01 -1.450993174E+02  7.414488581E+01  2.061453583E+02  1.250000000E+02  0.00000E+00  9.000E+00
      25     1     1     2     0     0 -1.177320847E+01  9.163832786E+01  1.367137778E+03  1.375945818E+03  1.250000000E+02  0.00000E+00  9.000E+00
      21     1     1     2   512   502 -6.105066874E+00  5.346098955E+01  2.023011245E+02  2.093348854E+02  2.697398305E-06  0.00000E+00  9.000E+00
#rwgt            1           1   2.9969058500445091E-002           1       28208           0
</event>
<event>
      5   9999  3.19816E-02  2.94310E+02 -1.00000E+00  1.05863E-01
       1    -1     0     0   502     0  0.000000000E+00  0.000000000E+00  1.215326031E+03  1.215326031E+03  0.000000000E+00  0.00000E+00  9.000E+00
      21    -1     0     0   501   502  0.000000000E+00  0.000000000E+00 -3.069140221E+02  3.069140221E+02  0.000000000E+00  0.00000E+00  9.000E+00
      25     1     1     2     0     0  3.418574976E+02 -8.320464251E+01  4.464805960E+02  5.820304836E+02  1.250000000E+02  0.00000E+00  9.000E+00
      25     1     1     2     0     0 -5.509111038E+01  1.699572573E+01  5.996671733E+02  6.152638490E+02  1.250000000E+02  0.00000E+00  9.000E+00
       1     1     1     2   501     0 -2.867663872E+02  6.620891678E+01 -1.377357606E+02  3.249457204E+02  4.264961200E-06  0.00000E+00  9.000E+00
#rwgt            2          17   1.4882541665875603E-004           1       28386           0
</event>
<event>
      5   9999  3.19816E-02  3.33117E+02 -1.00000E+00  1.04135E-01
      21    -1     0     0   502   511  0.000000000E+00  0.000000000E+00  8.129076638E+02  8.129076638E+02  0.000000000E+00  0.00000E+00  9.000E+00
      21    -1     0     0   501   502  0.000000000E+00  0.000000000E+00 -3.895811149E+02  3.895811149E+02  0.000000000E+00  0.00000E+00  9.000E+00
      25     1     1     2     0     0  5.490532520E+01  3.212031843E+02  3.416337368E+02  4.883898960E+02  1.250000000E+02  0.00000E+00  9.000E+00
      25     1     1     2     0     0 -1.188520071E+02  5.718272649E+00 -2.096552098E+02  2.715489003E+02  1.250000000E+02  0.00000E+00  9.000E+00
      21     1     1     2   501   511  6.394668193E+01 -3.269214569E+02  2.913480219E+02  4.425499825E+02  3.814697266E-06  0.00000E+00  9.000E+00
#rwgt            1           1   2.8869342085704273E-002           1       28420           0
</event>
<event>
      5   9999  3.19816E-02  3.11139E+01 -1.00000E+00  1.51948E-01
      21    -1     0     0   502   501  0.000000000E+00  0.000000000E+00  1.092828212E+03  1.092828212E+03  0.000000000E+00  0.00000E+00  9.000E+00
      21    -1     0     0   512   502  0.000000000E+00  0.000000000E+00 -4.789086650E+01  4.789086650E+01  0.000000000E+00  0.00000E+00  9.000E+00
      25     1     1     2     0     0  1.429115895E+02  1.070127717E+02  4.602142565E+02  5.092127430E+02  1.250000000E+02  0.00000E+00  9.000E+00
      25     1     1     2     0     0 -1.135267197E+02 -1.172404233E+02  5.313078015E+02  5.696899270E+02  1.250000000E+02  0.00000E+00  9.000E+00
      21     1     1     2   512   501 -2.938486981E+01  1.022765157E+01  5.341528754E+01  6.181640860E+01  0.000000000E+00  0.00000E+00  9.000E+00
#rwgt            1           1   2.6379995557867030E-002           1       28450           0
</event>
<event>
      5   9999  3.19816E-02  1.28865E+01 -1.00000E+00  1.83831E-01
      21    -1     0     0   511   501  0.000000000E+00  0.000000000E+00  2.186688260E+02  2.186688260E+02  0.000000000E+00  0.00000E+00  9.000E+00
      21    -1     0     0   501   502  0.000000000E+00  0.000000000E+00 -3.451379577E+02  3.451379577E+02  0.000000000E+00  0.00000E+00  9.000E+00
      25     1     1     2     0     0 -7.136070357E+01 -1.235473270E+01 -3.003262610E+02  3.332654385E+02  1.250000000E+02  0.00000E+00  9.000E+00
      25     1     1     2     0     0  5.848356320E+01  1.186251317E+01  1.594756827E+02  2.112310104E+02  1.250000000E+02  0.00000E+00  9.000E+00
      21     1     1     2   511   502  1.287714037E+01  4.922195275E-01  1.438144660E+01  1.931033481E+01  1.685873940E-07  0.00000E+00  9.000E+00
#rwgt            1           1   2.8341321676193985E-002           1       28649           0
</event>
<event>
      5   9999  3.19816E-02  1.48275E+02 -1.00000E+00  1.16593E-01
      21    -1     0     0   502   501  0.000000000E+00  0.000000000E+00  1.548848349E+02  1.548848349E+02  0.000000000E+00  0.00000E+00  9.000E+00
      21    -1     0     0   512   502  0.000000000E+00  0.000000000E+00 -2.110106194E+03  2.110106194E+03  0.000000000E+00  0.00000E+00  9.000E+00
      25     1     1     2     0     0 -1.302641717E+02 -1.162382613E+02 -1.757707482E+02  2.774895380E+02  1.250000000E+02  0.00000E+00  9.000E+00
      25     1     1     2     0     0  1.606391817E+02 -2.889235932E+01 -3.747005159E+00  2.056179836E+02  1.250000000E+02  0.00000E+00  9.000E+00
      21     1     1     2   512   501 -3.037501005E+01  1.451306206E+02 -1.775703605E+03  1.781883507E+03  0.000000000E+00  0.00000E+00  9.000E+00
#rwgt            1           1   2.9696336768238386E-002           1       28834           0
</event>
<event>
      5   9999  3.19816E-02  2.76204E+01 -1.00000E+00  1.55575E-01
      21    -1     0     0   502   501  0.000000000E+00  0.000000000E+00  1.726963670E+02  1.726963670E+02  0.000000000E+00  0.00000E+00  9.000E+00
      21    -1     0     0   501   511  0.000000000E+00  0.000000000E+00 -1.161809344E+03  1.161809344E+03  0.000000000E+00  0.00000E+00  9.000E+00
      25     1     1     2     0     0 -2.876237381E+02  3.947088428E+01 -8.649050400E+02  9.208534594E+02  1.250000000E+02  0.00000E+00  9.000E+00
      25     1     1     2     0     0  2.947585241E+02 -6.615389997E+01 -4.530576766E+01  3.300553568E+02  1.250000000E+02  0.00000E+00  9.000E+00
      21     1     1     2   502   511 -7.134785967E+00  2.668301569E+01 -7.890216934E+01  8.359689482E+01  1.651812370E-06  0.00000E+00  9.000E+00
#rwgt            1           1   2.9896986910348717E-002           1       28884           0
</event>
<event>
      5   9999  3.19816E-02  2.97345E+02 -1.00000E+00  1.05718E-01
      21    -1     0     0   512   501  0.000000000E+00  0.000000000E+00  1.941477792E+03  1.941477792E+03  0.000000000E+00  0.00000E+00  9.000E+00
      21    -1     0     0   501   502  0.000000000E+00  0.000000000E+00 -3.831921363E+02  3.831921363E+02  0.000000000E+00  0.00000E+00  9.000E+00
      25     1     1     2     0     0 -5.989001974E+02  2.432469875E+02  1.357517623E+03  1.508751020E+03  1.250000000E+02  0.00000E+00  9.000E+00
      25     1     1     2     0     0  3.341403679E+02 -1.079085653E+02 -1.072034020E+02  3.878293611E+02  1.250000000E+02  0.00000E+00  9.000E+00
      21     1     1     2   512   502  2.647598295E+02 -1.353384223E+02  3.079714346E+02  4.280895472E+02  5.394796609E-06  0.00000E+00  9.000E+00
#rwgt            1           1   2.9648678414606337E-002           1       29073           0
</event>
<event>
      5   9999  3.19816E-02  1.32513E+01 -1.00000E+00  1.82610E-01
      21    -1     0     0   502   511  0.000000000E+00  0.000000000E+00  1.127686427E+02  1.127686427E+02  0.000000000E+00  0.00000E+00  9.000E+00
      21    -1     0     0   501   502  0.000000000E+00  0.000000000E+00 -2.325904558E+03  2.325904558E+03  0.000000000E+00  0.00000E+00  9.000E+00
      25     1     1     2     0     0 -3.742775184E+01  6.974703724E+01 -1.358041451E+03  1.366077255E+03  1.250000000E+02  0.00000E+00  9.000E+00
      25     1     1     2     0     0  2.481835094E+01 -7.382140505E+01 -9.577909704E+02  9.690480346E+02  1.250000000E+02  0.00000E+00  9.000E+00
      21     1     1     2   501   511  1.260940090E+01  4.074367810E+00  1.026965059E+02  1.035479106E+02  3.303624740E-06  0.00000E+00  9.000E+00
#rwgt            1           1   7.5070851519202314E-002           1       29125           0
</event>
<event>
      5   9999  3.19816E-02  4.97544E+00 -1.00000E+00  2.42970E-01
      21    -1     0     0   512   501  0.000000000E+00  0.000000000E+00  1.674165741E+02  1.674165741E+02  0.000000000E+00  0.00000E+00  9.000E+00
      21    -1     0     0   501   502  0.000000000E+00  0.000000000E+00 -4.499364082E+02  4.499364082E+02  0.000000000E+00  0.00000E+00  9.000E+00
      25     1     1     2     0     0 -7.209976992E+01 -1.635010495E+01  1.182480076E+02  1.872786535E+02  1.250000000E+02  0.00000E+00  9.000E+00
      25     1     1     2     0     0  6.945415753E+01  2.056385742E+01 -3.996691368E+02  4.249790243E+02  1.250000000E+02  0.00000E+00  9.000E+00
      21     1     1     2   512   502  2.645612395E+00 -4.213752477E+00 -1.098704940E+00  5.095304449E+00  1.043081284E-07  0.00000E+00  9.000E+00
#rwgt            1           1   2.8358762753490287E-002           1       29268           0
</event>
<event>
      5   9999  3.19816E-02  5.10180E+01 -1.00000E+00  1.38578E-01
      21    -1     0     0   502   501  0.000000000E+00  0.000000000E+00  3.253037877E+02  3.253037877E+02  0.000000000E+00  0.00000E+00  9.000E+00
      21    -1     0     0   501   511  0.000000000E+00  0.000000000E+00 -2.359953851E+02  2.359953851E+02  0.000000000E+00  0.00000E+00  9.000E+00
      25     1     1     2     0     0 -6.551441632E+01  1.687613072E+01 -1.440202409E+02  2.023456753E+02  1.250000000E+02  0.00000E+00  9.000E+00
      25     1     1     2     0     0  7.061067723E+01 -6.763898553E+01  2.575175467E+02  3.024916312E+02  1.250000000E+02  0.00000E+00  9.000E+00
      21     1     1     2   502   511 -5.096260918E+00  5.076285480E+01 -2.418890329E+01  5.646186630E+01  7.539457465E-07  0.00000E+00  9.000E+00
#rwgt            1           1   2.6402967676663235E-002           1       29569           0
</event>
<event>
      5   9999  3.19816E-02  3.96884E+01 -1.00000E+00  1.45051E-01
       1    -1     0     0   502     0  0.000000000E+00  0.000000000E+00  6.019421126E+02  6.019421126E+02  0.000000000E+00  0.00000E+00  9.000E+00
      21    -1     0     0   501   502  0.000000000E+00  0.000000000E+00 -2.670919345E+02  2.670919345E+02  0.000000000E+00  0.00000E+00  9.000E+00
      25     1     1     2     0     0  4.052765349E+01 -1.588532389E+02  2.213972456E+01  2.073451461E+02  1.250000000E+02  0.00000E+00  9.000E+00
      25     1     1     2     0     0 -1.448266974E+01  1.289062171E+02 -1.268606552E+02  2.203297220E+02  1.250000000E+02  0.00000E+00  9.000E+00
       1     1     1     2   501     0 -2.604498375E+01  2.994702175E+01  4.395711087E+02  4.413591791E+02  0.000000000E+00  0.00000E+00  9.000E+00
#rwgt            1           1   2.7048692898982096E-002           1       29655           0
</event>
<event>
      5   9999  3.19816E-02  5.44338E+01 -1.00000E+00  1.37002E-01
      21    -1     0     0   502   511  0.000000000E+00  0.000000000E+00  1.088985785E+02  1.088985785E+02  0.000000000E+00  0.00000E+00  9.000E+00
      21    -1     0     0   501   502  0.000000000E+00  0.000000000E+00 -4.480640867E+02  4.480640867E+02  0.000000000E+00  0.00000E+00  9.000E+00
      25     1     1     2     0     0  9.243516481E+01 -1.029206283E+02 -2.418430276E+02  3.053685731E+02  1.250000000E+02  0.00000E+00  9.000E+00
      25     1     1     2     0     0 -1.140868614E+02  5.297828265E+01 -6.955736587E+01  1.904881559E+02  1.250000000E+02  0.00000E+00  9.000E+00
      21     1     1     2   501   511  2.165169658E+01  4.994234566E+01 -2.776511467E+01  6.110593626E+01  5.840038640E-07  0.00000E+00  9.000E+00
#rwgt            1           1   3.0149883649843986E-002           1       29779           0
</event>
<event>
      5   9999  3.19816E-02  9.67228E+01 -1.00000E+00  1.24482E-01
      21    -1     0     0   512   501  0.000000000E+00  0.000000000E+00  6.118167808E+02  6.118167808E+02  0.000000000E+00  0.00000E+00  9.000E+00
      21    -1     0     0   501   502  0.000000000E+00  0.000000000E+00 -1.697052620E+02  1.697052620E+02  0.000000000E+00  0.00000E+00  9.000E+00
      25     1     1     2     0     0  1.322011060E+02 -1.107241150E+02  6.541803038E+01  2.228036821E+02  1.250000000E+02  0.00000E+00  9.000E+00
      25     1     1     2     0     0 -2.179045563E+02  6.588875769E+01  1.232991901E+02  2.874915900E+02  1.250000000E+02  0.00000E+00  9.000E+00
      21     1     1     2   512   502  8.570345034E+01  4.483535734E+01  2.533942984E+02  2.712267706E+02  3.814697266E-06  0.00000E+00  9.000E+00
#rwgt            1           1   2.7169333098266513E-002           1       29866           0
</event>
<event>
      5   9999  3.19816E-02  2.68462E+01 -1.00000E+00  1.56468E-01
      21    -1     0     0   502   501  0.000000000E+00  0.000000000E+00  1.551579645E+02  1.551579645E+02  0.000000000E+00  0.00000E+00  9.000E+00
      21    -1     0     0   501   511  0.000000000E+00  0.000000000E+00 -5.386373716E+02  5.386373716E+02  0.000000000E+00  0.00000E+00  9.000E+00
      25     1     1     2     0     0 -7.220881877E+01 -2.288963682E+01  1.091806849E+01  1.465682544E+02  1.250000000E+02  0.00000E+00  9.000E+00
      25     1     1     2     0     0  9.777686473E+01  3.107445669E+01 -1.013696981E+01  1.620299210E+02  1.250000000E+02  0.00000E+00  9.000E+00
      21     1     1     2   502   511 -2.556804596E+01 -8.184819865E+00 -3.842605058E+02  3.851971607E+02  5.394796609E-06  0.00000E+00  9.000E+00
#rwgt            1           1   5.8809100018396857E-002           1       29943           0
</event>
<event>
      5   9999  3.19816E-02  8.23872E+01 -1.00000E+00  1.27734E-01
      21    -1     0     0   502   501  0.000000000E+00  0.000000000E+00  6.160877134E+02  6.160877134E+02  0.000000000E+00  0.00000E+00  9.000E+00
      21    -1     0     0   501   512  0.000000000E+00  0.000000000E+00 -4.042355600E+02  4.042355600E+02  0.000000000E+00  0.00000E+00  9.000E+00
      25     1     1     2     0     0 -3.614955507E+01  3.005185020E+02  4.537846342E+02  5.596102702E+02  1.250000000E+02  0.00000E+00  9.000E+00
      25     1     1     2     0     0  1.009470768E+02 -2.496369752E+02 -1.360758405E+02  3.265739825E+02  1.250000000E+02  0.00000E+00  9.000E+00
      21     1     1     2   502   512 -6.479752169E+01 -5.088152682E+01 -1.058566403E+02  1.341390207E+02  2.336015456E-06  0.00000E+00  9.000E+00
#rwgt            1           1   2.9706482050486618E-002           1       30051           0
</event>
<event>
      5   9999  3.19816E-02  1.41146E+02 -1.00000E+00  1.17450E-01
      21    -1     0     0   502   501  0.000000000E+00  0.000000000E+00  7.698970433E+02  7.698970433E+02  0.000000000E+00  0.00000E+00  9.000E+00
      21    -1     0     0   511   502  0.000000000E+00  0.000000000E+00 -5.966448197E+02  5.966448197E+02  0.000000000E+00  0.00000E+00  9.000E+00
      25     1     1     2     0     0  7.109156310E+01 -3.534102954E+02  5.082934672E+02  6.355628184E+02  1.250000000E+02  0.00000E+00  9.000E+00
      25     1     1     2     0     0  1.217402587E+01  4.673802862E+02 -1.680021353E+02  5.122911831E+02  1.250000000E+02  0.00000E+00  9.000E+00
      21     1     1     2   511   501 -8.326558897E+01 -1.139699907E+02 -1.670391083E+02  2.186878615E+02  1.907348633E-06  0.00000E+00  9.000E+00
#rwgt            1           1   2.9676243766804632E-002           1       30125           0
</event>
<event>
      5   9999  3.19816E-02  9.06913E+01 -1.00000E+00  1.25767E-01
      21    -1     0     0   502   501  0.000000000E+00  0.000000000E+00  6.088268615E+02  6.088268615E+02  0.000000000E+00  0.00000E+00  9.000E+00
      21    -1     0     0   512   502  0.000000000E+00  0.000000000E+00 -2.904699033E+02  2.904699033E+02  0.000000000E+00  0.00000E+00  9.000E+00
      25     1     1     2     0     0 -1.488735085E+02  1.335534462E+01 -1.572691673E+02  2.504002352E+02  1.250000000E+02  0.00000E+00  9.000E+00
      25     1     1     2     0     0  2.275984358E+02 -5.838079141E+01  4.894753586E+02  5.571539207E+02  1.250000000E+02  0.00000E+00  9.000E+00
      21     1     1     2   512   501 -7.872492723E+01  4.502544679E+01 -1.384923306E+01  9.174260887E+01  7.348554138E-07  0.00000E+00  9.000E+00
#rwgt            1           1   2.6185289454526684E-002           1       30181           0
</event>
<event>
      5   9999  3.19816E-02  1.47552E+02 -1.00000E+00  1.16678E-01
      -4    -1     0     0     0   501  0.000000000E+00  0.000000000E+00  1.019747613E+03  1.019747613E+03  0.000000000E+00  0.00000E+00  9.000E+00
      21    -1     0     0   501   502  0.000000000E+00  0.000000000E+00 -1.334890378E+02  1.334890378E+02  0.000000000E+00  0.00000E+00  9.000E+00
      25     1     1     2     0     0 -7.464381447E+01 -3.161461012E+02  5.192152392E+02  6.250836112E+02  1.250000000E+02  0.00000E+00  9.000E+00
      25     1     1     2     0     0  9.093502264E+01  1.694959846E+02  1.914119090E+02  2.987667754E+02  1.250000000E+02  0.00000E+00  9.000E+00
      -4     1     1     2     0   502 -1.629120817E+01  1.466501166E+02  1.756314270E+02  2.293862645E+02  4.264961200E-06  0.00000E+00  9.000E+00
#rwgt            1           1   2.8388696188606215E-002           1       30279           0
</event>
<event>
      5   9999  3.19816E-02  7.43843E+01 -1.00000E+00  1.29898E-01
      21    -1     0     0   502   501  0.000000000E+00  0.000000000E+00  5.372530875E+02  5.372530875E+02  0.000000000E+00  0.00000E+00  9.000E+00
      21    -1     0     0   501   511  0.000000000E+00  0.000000000E+00 -1.194840334E+02  1.194840334E+02  0.000000000E+00  0.00000E+00  9.000E+00
      25     1     1     2     0     0  7.826105154E+01  5.700819545E+01  1.336193269E+01  1.586766138E+02  1.250000000E+02  0.00000E+00  9.000E+00
      25     1     1     2     0     0 -9.948211779E+01  1.428475365E+01  3.908107723E+02  4.224438491E+02  1.250000000E+02  0.00000E+00  9.000E+00
      21     1     1     2   502   511  2.122106625E+01 -7.129294909E+01  1.359634918E+01  7.561665792E+01  7.539457465E-07  0.00000E+00  9.000E+00
#rwgt            1           1   2.9226469006462842E-002           1       30354           0
</event>
<event>
      5   9999  3.19816E-02  8.15019E+01 -1.00000E+00  1.27960E-01
      21    -1     0     0   502   501  0.000000000E+00  0.000000000E+00  1.248914932E+03  1.248914932E+03  0.000000000E+00  0.00000E+00  9.000E+00
      21    -1     0     0   501   512  0.000000000E+00  0.000000000E+00 -7.209041950E+01  7.209041950E+01  0.000000000E+00  0.00000E+00  9.000E+00
      25     1     1     2     0     0  1.539831515E+01  2.672010651E+01  6.240985391E+01  1.430771193E+02  1.250000000E+02  0.00000E+00  9.000E+00
      25     1     1     2     0     0 -3.809730462E+01  5.155708460E+01  1.080594944E+03  1.089688015E+03  1.250000000E+02  0.00000E+00  9.000E+00
      21     1     1     2   502   512  2.269898947E+01 -7.827719111E+01  3.381971438E+01  8.824021675E+01  0.000000000E+00  0.00000E+00  9.000E+00
#rwgt            1           1   3.0298017488795327E-002           1       30447           0
</event>
<event>
      5   9999  3.19816E-02  5.35760E+01 -1.00000E+00  1.37385E-01
      21    -1     0     0   511   501  0.000000000E+00  0.000000000E+00  9.557031737E+02  9.557031737E+02  0.000000000E+00  0.00000E+00  9.000E+00
      21    -1     0     0   501   502  0.000000000E+00  0.000000000E+00 -4.933710355E+02  4.933710355E+02  0.000000000E+00  0.00000E+00  9.000E+00
      25     1     1     2     0     0 -4.711901559E+02 -2.606347159E+02  7.203109049E+01  5.574621925E+02  1.250000000E+02  0.00000E+00  9.000E+00
      25     1     1     2     0     0  5.243833980E+02  2.670275188E+02  1.166831132E+02  6.127981665E+02  1.250000000E+02  0.00000E+00  9.000E+00
      21     1     1     2   511   502 -5.319324214E+01 -6.392802947E+00  2.736179346E+02  2.788138502E+02  3.814697266E-06  0.00000E+00  9.000E+00
#rwgt            1           1   3.3745148548561692E-002           1       30502           0
</event>
<event>
      5   9999  3.19816E-02  8.03350E+00 -1.00000E+00  2.07434E-01
      21    -1     0     0   502   501  0.000000000E+00  0.000000000E+00  5.983940983E+01  5.983940983E+01  0.000000000E+00  0.00000E+00  9.000E+00
      21    -1     0     0   501   512  0.000000000E+00  0.000000000E+00 -5.837016335E+02  5.837016335E+02  0.000000000E+00  0.00000E+00  9.000E+00
      25     1     1     2     0     0  1.191494301E+01  5.290188704E+01 -4.536383060E+02  4.736594644E+02  1.250000000E+02  0.00000E+00  9.000E+00
      25     1     1     2     0     0 -1.991698729E+01 -5.219168385E+01 -4.611958276E+01  1.444737836E+02  1.250000000E+02  0.00000E+00  9.000E+00
      21     1     1     2   502   512  8.002044277E+00 -7.102031926E-01 -2.410433495E+01  2.540779535E+01  0.000000000E+00  0.00000E+00  9.000E+00
#rwgt            1           1   2.5248660728019769E-002           1       30665           0
</event>
<event>
      5   9999  3.19816E-02  3.58480E+01 -1.00000E+00  1.47855E-01
       2    -1     0     0   502     0  0.000000000E+00  0.000000000E+00  5.389066534E+02  5.389066534E+02  0.000000000E+00  0.00000E+00  9.000E+00
      21    -1     0     0   501   502  0.000000000E+00  0.000000000E+00 -2.303211798E+03  2.303211798E+03  0.000000000E+00  0.00000E+00  9.000E+00
      25     1     1     2     0     0  2.471638288E+02  7.963923600E+02 -1.021060623E+03  1.324205628E+03  1.250000000E+02  0.00000E+00  9.000E+00
      25     1     1     2     0     0 -2.182212796E+02 -7.752403407E+02 -9.821864672E+02  1.276296740E+03  1.250000000E+02  0.00000E+00  9.000E+00
       2     1     1     2   501     0 -2.894254914E+01 -2.115201925E+01  2.389419447E+02  2.416160839E+02  3.814697266E-06  0.00000E+00  9.000E+00
#rwgt            1           1   2.7821188899865186E-002           1       30937           0
</event>
<event>
      5   9999  3.19816E-02  9.15869E+01 -1.00000E+00  1.25569E-01
      21    -1     0     0   502   501  0.000000000E+00  0.000000000E+00  5.909017547E+02  5.909017547E+02  0.000000000E+00  0.00000E+00  9.000E+00
      21    -1     0     0   501   511  0.000000000E+00  0.000000000E+00 -3.858238327E+02  3.858238327E+02  0.000000000E+00  0.00000E+00  9.000E+00
      25     1     1     2     0     0  2.126300640E+02  2.590276477E+02 -5.902889275E+01  3.625138295E+02  1.250000000E+02  0.00000E+00  9.000E+00
      25     1     1     2     0     0 -2.836646681E+02 -3.168397672E+02  2.755309785E+02  5.219151293E+02  1.250000000E+02  0.00000E+00  9.000E+00
      21     1     1     2   502   511  7.103460409E+01  5.781211951E+01 -1.142416378E+01  9.229662864E+01  1.348699152E-06  0.00000E+00  9.000E+00
#rwgt            1           1   2.3797038423514064E-002           1       31076           0
</event>
<event>
      5   9999  3.19816E-02  2.29367E+01 -1.00000E+00  1.61605E-01
      21    -1     0     0   502   501  0.000000000E+00  0.000000000E+00  7.600855703E+02  7.600855703E+02  0.000000000E+00  0.00000E+00  9.000E+00
      21    -1     0     0   512   502  0.000000000E+00  0.000000000E+00 -8.602905234E+02  8.602905234E+02  0.000000000E+00  0.00000E+00  9.000E+00
      25     1     1     2     0     0  6.104697744E+02  3.368907091E+02  2.920754253E+02  7.662256518E+02  1.250000000E+02  0.00000E+00  9.000E+00
      25     1     1     2     0     0 -6.296567800E+02 -3.494586258E+02 -3.605308184E+02  8.149824923E+02  1.250000000E+02  0.00000E+00  9.000E+00
      21     1     1     2   512   501  1.918700561E+01  1.256791668E+01 -3.174956003E+01  3.916794960E+01  0.000000000E+00  0.00000E+00  9.000E+00
#rwgt            1           1   3.2920305469365849E-002           1       31180           0
</event>
<event>
      5   9999  3.19816E-02  5.40968E+01 -1.00000E+00  1.37152E-01
      21    -1     0     0   502   511  0.000000000E+00  0.000000000E+00  1.619882006E+03  1.619882006E+03  0.000000000E+00  0.00000E+00  9.000E+00
      21    -1     0     0   501   502  0.000000000E+00  0.000000000E+00 -2.264166421E+02  2.264166421E+02  0.000000000E+00  0.00000E+00  9.000E+00
      25     1     1     2     0     0  1.718211079E+02 -4.799288817E+02  1.123056500E+03  1.239651212E+03  1.250000000E+02  0.00000E+00  9.000E+00
      25     1     1     2     0     0 -1.770395958E+02  4.260844059E+02  2.008129650E+02  5.184995529E+02  1.250000000E+02  0.00000E+00  9.000E+00
      21     1     1     2   501   511  5.218487850E+00  5.384447580E+01  6.959589847E+01  8.814788298E+01  9.536743164E-07  0.00000E+00  9.000E+00
#rwgt            1           1   3.0515128813611597E-002           1       31440           0
</event>
<event>
      5   9999  3.19816E-02  1.15113E+02 -1.00000E+00  1.21140E-01
      21    -1     0     0   502   501  0.000000000E+00  0.000000000E+00  1.385515033E+03  1.385515033E+03  0.000000000E+00  0.00000E+00  9.000E+00
      21    -1     0     0   512   502  0.000000000E+00  0.000000000E+00 -3.502219587E+02  3.502219587E+02  0.000000000E+00  0.00000E+00  9.000E+00
      25     1     1     2     0     0  3.825496914E+01  1.391350730E+02  1.628847973E+02  2.509551123E+02  1.250000000E+02  0.00000E+00  9.000E+00
      25     1     1     2     0     0 -1.523144621E+02 -1.546725865E+02  1.153840027E+03  1.180718049E+03  1.250000000E+02  0.00000E+00  9.000E+00
      21     1     1     2   512   501  1.140594929E+02  1.553751342E+01 -2.814317504E+02  3.040638295E+02  3.814697266E-06  0.00000E+00  9.000E+00
#rwgt            1           1   3.2721081981448928E-002           1       31560           0
</event>
<event>
      5   9999  3.19816E-02  4.20865E+01 -1.00000E+00  1.43484E-01
       2    -1     0     0   502     0  0.000000000E+00  0.000000000E+00  1.755097372E+03  1.755097372E+03  0.000000000E+00  0.00000E+00  9.000E+00
      21    -1     0     0   501   502  0.000000000E+00  0.000000000E+00 -4.373040891E+02  4.373040891E+02  0.000000000E+00  0.00000E+00  9.000E+00
      25     1     1     2     0     0 -8.234103856E+01 -1.185201591E+02 -3.247013110E+02  3.766736201E+02  1.250000000E+02  0.00000E+00  9.000E+00
      25     1     1     2     0     0  1.125581927E+02  1.478152259E+02  5.886042655E+01  2.315345278E+02  1.250000000E+02  0.00000E+00  9.000E+00
       2     1     1     2   501     0 -3.021715411E+01 -2.929506677E+01  1.583634167E+03  1.584193313E+03  0.000000000E+00  0.00000E+00  9.000E+00
#rwgt            1           1   2.3565152136529620E-002           1       31616           0
</event>
<event>
      5   9999  3.19816E-02  1.79740E+02 -1.00000E+00  1.13363E-01
      21    -1     0     0   502   501  0.000000000E+00  0.000000000E+00  9.451788690E+02  9.451788690E+02  0.000000000E+00  0.00000E+00  9.000E+00
       2    -1     0     0   501     0  0.000000000E+00  0.000000000E+00 -9.000780516E+02  9.000780516E+02  0.000000000E+00  0.00000E+00  9.000E+00
      25     1     1     2     0     0  3.142037802E+02  6.997078116E+02 -2.445235433E+01  7.775203886E+02  1.250000000E+02  0.00000E+00  9.000E+00
      25     1     1     2     0     0 -1.351312433E+02 -7.151787592E+02  2.810671810E+02  7.901676220E+02  1.250000000E+02  0.00000E+00  9.000E+00
       2     1     1     2   502     0 -1.790725368E+02  1.547094765E+01 -2.115140094E+02  2.775689101E+02  0.000000000E+00  0.00000E+00  9.000E+00
#rwgt            2          13   5.8057471332814833E-004           1       31721           0
</event>
<event>
      5   9999  3.19816E-02  1.79518E+02 -1.00000E+00  1.13383E-01
       2    -1     0     0   502     0  0.000000000E+00  0.000000000E+00  1.867463870E+03  1.867463870E+03  0.000000000E+00  0.00000E+00  9.000E+00
      21    -1     0     0   501   502  0.000000000E+00  0.000000000E+00 -2.334175833E+02  2.334175833E+02  0.000000000E+00  0.00000E+00  9.000E+00
      25     1     1     2     0     0 -4.479818173E+01  7.603387856E+00  1.737056360E+02  2.187769105E+02  1.250000000E+02  0.00000E+00  9.000E+00
      25     1     1     2     0     0 -6.852260504E+01 -1.468335271E+02 -1.550618307E+02  2.567578693E+02  1.250000000E+02  0.00000E+00  9.000E+00
       2     1     1     2   501     0  1.133207868E+02  1.392301392E+02  1.615402481E+03  1.625346673E+03  0.000000000E+00  0.00000E+00  9.000E+00
#rwgt            1           1   2.8211478698801608E-002           1       31740           0
</event>
<event>
      5   9999  3.19816E-02  8.46767E+01 -1.00000E+00  1.27167E-01
       1    -1     0     0   502     0  0.000000000E+00  0.000000000E+00  6.389673245E+02  6.389673245E+02  0.000000000E+00  0.00000E+00  9.000E+00
      21    -1     0     0   501   502  0.000000000E+00  0.000000000E+00 -1.751934162E+02  1.751934162E+02  0.000000000E+00  0.00000E+00  9.000E+00
      25     1     1     2     0     0  2.469558576E+02  1.116996324E+02  2.694320586E+02  4.020977962E+02  1.250000000E+02  0.00000E+00  9.000E+00
      25     1     1     2     0     0 -1.712082679E+02 -1.495471967E+02  8.340658133E+01  2.725037483E+02  1.250000000E+02  0.00000E+00  9.000E+00
       1     1     1     2   501     0 -7.574758966E+01  3.784756431E+01  1.109352684E+02  1.395591962E+02  1.907348633E-06  0.00000E+00  9.000E+00
#rwgt            1           1   2.4710894284297465E-002           1       31791           0
</event>
<event>
      5   9999  3.19816E-02  7.07066E+01 -1.00000E+00  1.31000E-01
      21    -1     0     0   502   501  0.000000000E+00  0.000000000E+00  2.549955264E+02  2.549955264E+02  0.000000000E+00  0.00000E+00  9.000E+00
      21    -1     0     0   511   502  0.000000000E+00  0.000000000E+00 -1.559413075E+03  1.559413075E+03  0.000000000E+00  0.00000E+00  9.000E+00
      25     1     1     2     0     0  3.370018490E+02  4.144632253E+02 -5.460660604E+02  7.740562988E+02  1.250000000E+02  0.00000E+00  9.000E+00
      25     1     1     2     0     0 -3.258664419E+02 -4.842874554E+02 -5.198010830E+02  7.915437090E+02  1.250000000E+02  0.00000E+00  9.000E+00
      21     1     1     2   511   501 -1.113540712E+01  6.982423008E+01 -2.385504052E+02  2.488085936E+02  4.672030912E-06  0.00000E+00  9.000E+00
#rwgt            2          11   3.3056166751740087E-003           1       31914           0
</event>
<event>
      5   9999  3.19816E-02  1.00855E+02 -1.00000E+00  1.23662E-01
      21    -1     0     0   512   501  0.000000000E+00  0.000000000E+00  6.763094175E+02  6.763094175E+02  0.000000000E+00  0.00000E+00  9.000E+00
      21    -1     0     0   501   502  0.000000000E+00  0.000000000E+00 -3.338376454E+02  3.338376454E+02  0.000000000E+00  0.00000E+00  9.000E+00
      25     1     1     2     0     0 -2.660737176E+02 -2.445734684E+02  1.710993718E+02  4.189408069E+02  1.250000000E+02  0.00000E+00  9.000E+00
      25     1     1     2     0     0  2.457160584E+02  3.433526142E+02  6.583387363E+01  4.452263446E+02  1.250000000E+02  0.00000E+00  9.000E+00
      21     1     1     2   512   502  2.035765921E+01 -9.877914578E+01  1.055385267E+02  1.459799114E+02  1.907348633E-06  0.00000E+00  9.000E+00
#rwgt            1           1   2.5903381655977591E-002           1       31934           0
</event>
<event>
      5   9999  3.19816E-02  1.91304E+01 -1.00000E+00  1.67978E-01
      21    -1     0     0   502   501  0.000000000E+00  0.000000000E+00  5.090251170E+02  5.090251170E+02  0.000000000E+00  0.00000E+00  9.000E+00
      21    -1     0     0   501   511  0.000000000E+00  0.000000000E+00 -4.765743337E+02  4.765743337E+02  0.000000000E+00  0.00000E+00  9.000E+00
      25     1     1     2     0     0 -1.058812164E+02  4.614001478E+01  2.977545322E+01  1.727753182E+02  1.250000000E+02  0.00000E+00  9.000E+00
      25     1     1     2     0     0  8.927181134E+01 -3.664792316E+01  3.922164659E+02  4.228135318E+02  1.250000000E+02  0.00000E+00  9.000E+00
      21     1     1     2   502   511  1.660940505E+01 -9.492091616E+00 -3.895411359E+02  3.900106007E+02  0.000000000E+00  0.00000E+00  9.000E+00
#rwgt            1           1   2.7221884980446313E-002           1       32025           0
</event>
<event>
      5   9999  3.19816E-02  6.21921E+01 -1.00000E+00  1.33876E-01
      21    -1     0     0   512   501  0.000000000E+00  0.000000000E+00  5.770046782E+02  5.770046782E+02  0.000000000E+00  0.00000E+00  9.000E+00
      21    -1     0     0   501   502  0.000000000E+00  0.000000000E+00 -8.192159809E+02  8.192159809E+02  0.000000000E+00  0.00000E+00  9.000E+00
      25     1     1     2     0     0  2.078503082E+01 -4.887438484E+02  9.464715776E+01  5.136980157E+02  1.250000000E+02  0.00000E+00  9.000E+00
      25     1     1     2     0     0  1.272444627E+01  4.363513754E+02 -5.192674224E+02  6.898029358E+02  1.250000000E+02  0.00000E+00  9.000E+00
      21     1     1     2   512   502 -3.350947708E+01  5.239247300E+01  1.824089619E+02  1.927197075E+02  2.697398305E-06  0.00000E+00  9.000E+00
#rwgt            1           1   3.0254969577737257E-002           1       32147           0
</event>
<event>
      5   9999  3.19816E-02  5.39347E+01 -1.00000E+00  1.37224E-01
      21    -1     0     0   502   511  0.000000000E+00  0.000000000E+00  1.166182470E+03  1.166182470E+03  0.000000000E+00  0.00000E+00  9.000E+00
      21    -1     0     0   501   502  0.000000000E+00  0.000000000E+00 -4.067673318E+02  4.067673318E+02  0.000000000E+00  0.00000E+00  9.000E+00
      25     1     1     2     0     0 -5.643699049E+02 -2.180633290E+01  1.408393473E+02  5.953567229E+02  1.250000000E+02  0.00000E+00  9.000E+00
      25     1     1     2     0     0  5.775907749E+02  7.409549331E+01  3.237884746E+02  6.779123997E+02  1.250000000E+02  0.00000E+00  9.000E+00
      21     1     1     2   501   511 -1.322086993E+01 -5.228916041E+01  2.947873168E+02  2.996806798E+02  3.814697266E-06  0.00000E+00  9.000E+00
#rwgt            1           1   3.0358587109049675E-002           1       32267           0
</event>
<event>
      5   9999  3.19816E-02  4.45275E+01 -1.00000E+00  1.42010E-01
      21    -1     0     0   502   501  0.000000000E+00  0.000000000E+00  2.102772806E+03  2.102772806E+03  0.000000000E+00  0.00000E+00  9.000E+00
      21    -1     0     0   501   512  0.000000000E+00  0.000000000E+00 -9.204538174E+01  9.204538174E+01  0.000000000E+00  0.00000E+00  9.000E+00
      25     1     1     2     0     0  2.982023579E+02 -2.820687620E+02  9.901091384E+02  1.079086900E+03  1.250000000E+02  0.00000E+00  9.000E+00
      25     1     1     2     0     0 -2.614716299E+02  2.568982215E+02  9.859918203E+02  1.059324775E+03  1.250000000E+02  0.00000E+00  9.000E+00
      21     1     1     2   502   512 -3.673072802E+01  2.517054048E+01  3.462646526E+01  5.640651190E+01  9.536743164E-07  0.00000E+00  9.000E+00
#rwgt            1           1   2.7927454249202177E-002           1       32429           0
</event>
<event>
      5   9999  3.19816E-02  5.09807E+01 -1.00000E+00  1.38596E-01
      21    -1     0     0   502   511  0.000000000E+00  0.000000000E+00  5.103490619E+02  5.103490619E+02  0.000000000E+00  0.00000E+00  9.000E+00
      21    -1     0     0   501   502  0.000000000E+00  0.000000000E+00 -1.796470374E+02  1.796470374E+02  0.000000000E+00  0.00000E+00  9.000E+00
      25     1     1     2     0     0  4.066440515E+01  8.160759442E+01  7.045601822E+00  1.548807083E+02  1.250000000E+02  0.00000E+00  9.000E+00
      25     1     1     2     0     0 -6.914800780E+01 -3.932618867E+01 -5.123475437E+01  1.567737100E+02  1.250000000E+02  0.00000E+00  9.000E+00
      21     1     1     2   501   511  2.848360265E+01 -4.228140575E+01  3.748911770E+02  3.783416809E+02  7.629394531E-06  0.00000E+00  9.000E+00
#rwgt            1           1   5.0013808769253945E-002           1       32519           0
</event>
<event>
      5   9999  3.19816E-02  1.72267E+02 -1.00000E+00  1.14060E-01
      21    -1     0     0   502   501  0.000000000E+00  0.000000000E+00  8.510481849E+02  8.510481849E+02  0.000000000E+00  0.00000E+00  9.000E+00
      21    -1     0     0   501   512  0.000000000E+00  0.000000000E+00 -5.252410387E+02  5.252410387E+02  0.000000000E+00  0.00000E+00  9.000E+00
      25     1     1     2     0     0  2.804429203E+02 -3.247101175E+02 -1.404726261E+02  4.684468493E+02  1.250000000E+02  0.00000E+00  9.000E+00
      25     1     1     2     0     0 -2.116378657E+02  4.826395439E+02  4.943465377E+02  7.333041763E+02  1.250000000E+02  0.00000E+00  9.000E+00
      21     1     1     2   502   512 -6.880505451E+01 -1.579294264E+02 -2.806676542E+01  1.745381980E+02  2.500555153E-06  0.00000E+00  9.000E+00
#rwgt            1           1   2.5989332433413219E-002           1       32650           0
</event>
<event>
      5   9999  3.19816E-02  1.71974E+02 -1.00000E+00  1.14088E-01
       2    -1     0     0   502     0  0.000000000E+00  0.000000000E+00  2.324507052E+03  2.324507052E+03  0.000000000E+00  0.00000E+00  9.000E+00
      21    -1     0     0   501   502  0.000000000E+00  0.000000000E+00 -1.421007445E+02  1.421007445E+02  0.000000000E+00  0.00000E+00  9.000E+00
      25     1     1     2     0     0 -5.423493029E+01 -2.142979963E+02  7.153879679E+02  7.591244981E+02  1.250000000E+02  0.00000E+00  9.000E+00
      25     1     1     2     0     0  2.217903401E+01  3.832579330E+02  2.425402814E+02  4.709876229E+02  1.250000000E+02  0.00000E+00  9.000E+00
       2     1     1     2   501     0  3.205589628E+01 -1.689599367E+02  1.224478058E+03  1.236495675E+03  1.525878906E-05  0.00000E+00  9.000E+00
#rwgt            2          18   1.5210975202987825E-003           1       32816           0
</event>
<event>
      5   9999  3.19816E-02  1.69204E+01 -1.00000E+00  1.72593E-01
      21    -1     0     0   511   501  0.000000000E+00  0.000000000E+00  3.973646641E+02  3.973646641E+02  0.000000000E+00  0.00000E+00  9.000E+00
      21    -1     0     0   501   502  0.000000000E+00  0.000000000E+00 -4.027735211E+02  4.027735211E+02  0.000000000E+00  0.00000E+00  9.000E+00
      25     1     1     2     0     0 -2.945095570E+02  1.651323322E+02 -1.375206812E+02  3.854108251E+02  1.250000000E+02  0.00000E+00  9.000E+00
      25     1     1     2     0     0  3.081450143E+02 -1.751510029E+02  1.299358298E+02  3.976676294E+02  1.250000000E+02  0.00000E+00  9.000E+00
      21     1     1     2   511   502 -1.363545731E+01  1.001867064E+01  2.175994524E+00  1.705973064E+01  1.032382731E-07  0.00000E+00  9.000E+00
#rwgt            1           1   2.3952251549839685E-002           1       32835           0
</event>
<event>
      5   9999  3.19816E-02  1.28449E+02 -1.00000E+00  1.19127E-01
      21    -1     0     0   512   501  0.000000000E+00  0.000000000E+00  1.806824095E+03  1.806824095E+03  0.000000000E+00  0.00000E+00  9.000E+00
      21    -1     0     0   501   502  0.000000000E+00  0.000000000E+00 -7.269955269E+02  7.269955269E+02  0.000000000E+00  0.00000E+00  9.000E+00
      25     1     1     2     0     0  2.122373162E+02  1.503266187E+02 -1.195073944E+02  3.123296144E+02  1.250000000E+02  0.00000E+00  9.000E+00
      25     1     1     2     0     0 -2.692642965E+02 -3.523098442E+01 -4.646728919E+02  5.525308861E+02  1.250000000E+02  0.00000E+00  9.000E+00
      21     1     1     2   512   502  5.702698028E+01 -1.150956343E+02  1.664008854E+03  1.668959121E+03  2.157918644E-05  0.00000E+00  9.000E+00
#rwgt            1           1   2.5110891758599332E-002           1       33092           0
</event>
<event>
      5   9999  3.19816E-02  2.94633E+01 -1.00000E+00  1.53586E-01
      21    -1     0     0   511   501  0.000000000E+00  0.000000000E+00  6.343775632E+02  6.343775632E+02  0.000000000E+00  0.00000E+00  9.000E+00
      21    -1     0     0   501   502  0.000000000E+00  0.000000000E+00 -6.265015953E+02  6.265015953E+02  0.000000000E+00  0.00000E+00  9.000E+00
      25     1     1     2     0     0 -2.215434081E+02  1.260162683E+02  5.088773455E+02  5.827029554E+02  1.250000000E+02  0.00000E+00  9.000E+00
      25     1     1     2     0     0  2.050759978E+02 -1.504479697E+02 -5.513037523E+02  6.198802980E+02  1.250000000E+02  0.00000E+00  9.000E+00
      21     1     1     2   511   502  1.646741027E+01  2.443170142E+01  5.030237482E+01  5.829590507E+01  6.743495762E-07  0.00000E+00  9.000E+00
#rwgt            1           1   2.3734868585055868E-002           1       33148           0
</event>
<event>
      5   9999  3.19816E-02  2.27365E+01 -1.00000E+00  1.61901E-01
      21    -1     0     0   502   501  0.000000000E+00  0.000000000E+00  7.221284039E+02  7.221284039E+02  0.000000000E+00  0.00000E+00  9.000E+00
      21    -1     0     0   501   512  0.000000000E+00  0.000000000E+00 -1.418173614E+02  1.418173614E+02  0.000000000E+00  0.00000E+00  9.000E+00
      25     1     1     2     0     0 -5.013548946E+01 -2.600893450E+02  3.667197458E+02  4.693276112E+02  1.250000000E+02  0.00000E+00  9.000E+00
      25     1     1     2     0     0  4.129219802E+01  2.391430908E+02  2.373463558E+02  3.617357545E+02  1.250000000E+02  0.00000E+00  9.000E+00
      21     1     1     2   502   512  8.843291437E+00  2.094625418E+01 -2.375505911E+01  3.288239957E+01  0.000000000E+00  0.00000E+00  9.000E+00
#rwgt            1           1   2.9963145638215755E-002           1       33312           0
</event>
<event>
      5   9999  3.19816E-02  2.53919E+02 -1.00000E+00  1.08000E-01
      21    -1     0     0   511   501  0.000000000E+00  0.000000000E+00  8.221450227E+02  8.221450227E+02  0.000000000E+00  0.00000E+00  9.000E+00
      21    -1     0     0   501   502  0.000000000E+00  0.000000000E+00 -3.700590707E+02  3.700590707E+02  0.000000000E+00  0.00000E+00  9.000E+00
      25     1     1     2     0     0  2.748245464E+02  2.077885097E+01  3.150870037E+02  4.368811187E+02  1.250000000E+02  0.00000E+00  9.000E+00
      25     1     1     2     0     0 -1.187989239E+02  1.795481719E+02 -2.097587551E+02  3.255371956E+02  1.250000000E+02  0.00000E+00  9.000E+00
      21     1     1     2   511   502 -1.560256226E+02 -2.003270229E+02  3.467577034E+02  4.297857790E+02  5.394796609E-06  0.00000E+00  9.000E+00
#rwgt            2          11   2.9680984225390070E-003           1       33630           0
</event>
<event>
      5   9999  3.19816E-02  1.86342E+02 -1.00000E+00  1.12778E-01
       2    -1     0     0   502     0  0.000000000E+00  0.000000000E+00  2.026326373E+03  2.026326373E+03  0.000000000E+00  0.00000E+00  9.000E+00
      21    -1     0     0   501   502  0.000000000E+00  0.000000000E+00 -2.213061445E+02  2.213061445E+02  0.000000000E+00  0.00000E+00  9.000E+00
      25     1     1     2     0     0 -3.066713970E+02 -3.627512635E+01  1.686751721E+01  3.335756941E+02  1.250000000E+02  0.00000E+00  9.000E+00
      25     1     1     2     0     0  2.005107161E+02 -1.168690724E+02  2.455936650E+02  3.602834657E+02  1.250000000E+02  0.00000E+00  9.000E+00
       2     1     1     2   501     0  1.061606809E+02  1.531441987E+02  1.542559046E+03  1.553773357E+03  2.157918644E-05  0.00000E+00  9.000E+00
#rwgt            2          18   2.0323128359673532E-003           1       33755           0
</event>
<event>
      5   9999  3.19816E-02  3.68011E+01 -1.00000E+00  1.47121E-01
      21    -1     0     0   502   501  0.000000000E+00  0.000000000E+00  2.150656595E+02  2.150656595E+02  0.000000000E+00  0.00000E+00  9.000E+00
      21    -1     0     0   511   502  0.000000000E+00  0.000000000E+00 -3.637864001E+02  3.637864001E+02  0.000000000E+00  0.00000E+00  9.000E+00
      25     1     1     2     0     0  4.497299182E+01  6.028031482E+01  1.586668918E+02  2.155376275E+02  1.250000000E+02  0.00000E+00  9.000E+00
      25     1     1     2     0     0 -8.895171792E+00 -5.301993784E+01 -1.536801655E+02  2.052628344E+02  1.250000000E+02  0.00000E+00  9.000E+00
      21     1     1     2   511   501 -3.607782003E+01 -7.260376986E+00 -1.537074669E+02  1.580515977E+02  0.000000000E+00  0.00000E+00  9.000E+00
#rwgt            1           1   2.7307628984307417E-002           1       33774           0
</event>
<event>
      5   9999  3.19816E-02  7.56137E+02 -1.00000E+00  9.40034E-02
      21    -1     0     0   502   501  0.000000000E+00  0.000000000E+00  1.063517914E+03  1.063517914E+03  0.000000000E+00  0.00000E+00  9.000E+00
      21    -1     0     0   512   502  0.000000000E+00  0.000000000E+00 -8.283256695E+02  8.283256695E+02  0.000000000E+00  0.00000E+00  9.000E+00
      25     1     1     2     0     0  8.869287100E+01  3.195822988E+02  5.048933008E+02  6.168804716E+02  1.250000000E+02  0.00000E+00  9.000E+00
      25     1     1     2     0     0  7.360105898E+01  4.189320053E+02  6.497423609E+01  4.480711911E+02  1.250000000E+02  0.00000E+00  9.000E+00
      21     1     1     2   512   501 -1.622939300E+02 -7.385143042E+02 -3.346752923E+02  8.268919207E+02  9.344061824E-06  0.00000E+00  9.000E+00
#rwgt            2          11   3.0161419503625421E-003           1       33951           0
</event>
<event>
      5   9999  3.33930E-02  6.19683E+01 -1.00000E+00  1.33959E-01
      21    -1     0     0   502   501  0.000000000E+00  0.000000000E+00  6.531131282E+02  6.531131282E+02  0.000000000E+00  0.00000E+00  9.000E+00
      21    -1     0     0   511   502  0.000000000E+00  0.000000000E+00 -2.309975908E+03  2.309975908E+03  0.000000000E+00  0.00000E+00  9.000E+00
      25     1     1     2     0     0 -1.303500923E+02  9.120935916E+02 -1.638824983E+03  1.884218191E+03  1.250000000E+02  0.00000E+00  9.000E+00
      25     1     1     2     0     0  1.731156884E+02 -9.569397241E+02  5.630430172E+01  9.820885151E+02  1.250000000E+02  0.00000E+00  9.000E+00
      21     1     1     2   511   501 -4.276559606E+01  4.484613252E+01 -7.434209813E+01  9.678232981E+01  1.651812370E-06  0.00000E+00  9.000E+00
#rwgt            1           1   8.2130420341845978E-002           1       33971           0
</event>
<event>
      5   9999  3.19816E-02  1.10828E+02 -1.00000E+00  1.21853E-01
      21    -1     0     0   512   501  0.000000000E+00  0.000000000E+00  5.501058358E+02  5.501058358E+02  0.000000000E+00  0.00000E+00  9.000E+00
      21    -1     0     0   501   502  0.000000000E+00  0.000000000E+00 -5.166287288E+02  5.166287288E+02  0.000000000E+00  0.00000E+00  9.000E+00
      25     1     1     2     0     0 -8.986140213E+01  1.874619298E+02 -4.463414066E+02  5.079987184E+02  1.250000000E+02  0.00000E+00  9.000E+00
      25     1     1     2     0     0  6.865808938E+01 -7.868144042E+01  2.010748890E+02  2.587678753E+02  1.250000000E+02  0.00000E+00  9.000E+00
      21     1     1     2   512   502  2.120331275E+01 -1.087804893E+02  2.787436246E+02  2.999679709E+02  3.814697266E-06  0.00000E+00  9.000E+00
#rwgt            1           1   2.8789358564566579E-002           1       34171           0
</event>
<event>
      5   9999  3.19816E-02  1.69201E+02 -1.00000E+00  1.14357E-01
      21    -1     0     0   502   501  0.000000000E+00  0.000000000E+00  2.527623639E+02  2.527623639E+02  0.000000000E+00  0.00000E+00  9.000E+00
      21    -1     0     0   501   511  0.000000000E+00  0.000000000E+00 -1.221862511E+03  1.221862511E+03  0.000000000E+00  0.00000E+00  9.000E+00
      25     1     1     2     0     0  3.145075488E+00 -9.409387850E+01 -1.063269020E+02  1.891929163E+02  1.250000000E+02  0.00000E+00  9.000E+00
      25     1     1     2     0     0 -8.778583439E+01  2.406024716E+02  1.044427349E+02  3.035279014E+02  1.250000000E+02  0.00000E+00  9.000E+00
      21     1     1     2   502   511  8.464075890E+01 -1.465085931E+02 -9.672159796E+02  9.819040570E+02  1.078959322E-05  0.00000E+00  9.000E+00
#rwgt            1           1   3.0358720806264665E-002           1       34219           0
</event>
<event>
      5   9999  3.19816E-02  8.12953E+01 -1.00000E+00  1.28013E-01
      21    -1     0     0   502   501  0.000000000E+00  0.000000000E+00  5.428440097E+02  5.428440097E+02  0.000000000E+00  0.00000E+00  9.000E+00
       2    -1     0     0   501     0  0.000000000E+00  0.000000000E+00 -7.633541920E+02  7.633541920E+02  0.000000000E+00  0.00000E+00  9.000E+00
      25     1     1     2     0     0 -1.897244775E+02 -2.935663332E+02  3.894702667E+02  5.380415021E+02  1.250000000E+02  0.00000E+00  9.000E+00
      25     1     1     2     0     0  2.261632360E+02  2.208948452E+02 -3.195520566E+02  4.665649567E+02  1.250000000E+02  0.00000E+00  9.000E+00
       2     1     1     2   502     0 -3.643875851E+01  7.267148806E+01 -2.904283923E+02  3.015917429E+02  3.814697266E-06  0.00000E+00  9.000E+00
#rwgt            1           1   2.1329014040892401E-002           1       34269           0
</event>
<event>
      5   9999  3.19816E-02  5.21080E+02 -1.00000E+00  9.83452E-02
       1    -1     0     0   502     0  0.000000000E+00  0.000000000E+00  1.244471741E+03  1.244471741E+03  0.000000000E+00  0.00000E+00  9.000E+00
      21    -1     0     0   501   502  0.000000000E+00  0.000000000E+00 -3.320181947E+02  3.320181947E+02  0.000000000E+00  0.00000E+00  9.000E+00
      25     1     1     2     0     0  1.517414869E+02 -1.252908667E+02  4.564558964E+02  5.125429402E+02  1.250000000E+02  0.00000E+00  9.000E+00
      25     1     1     2     0     0 -1.973074432E+01 -3.787898524E+02  4.820552179E+01  4.022683518E+02  1.250000000E+02  0.00000E+00  9.000E+00
       1     1     1     2   501     0 -1.320107426E+02  5.040807191E+02  4.077921276E+02  6.616786432E+02  7.629394531E-06  0.00000E+00  9.000E+00
#rwgt            2          17   4.1255242586557420E-004           1       34384           0
</event>
<event>
      5   9999  3.19816E-02  1.33224E+01 -1.00000E+00  1.82378E-01
      21    -1     0     0   511   501  0.000000000E+00  0.000000000E+00  1.212485170E+01  1.212485170E+01  0.000000000E+00  0.00000E+00  9.000E+00
      21    -1     0     0   501   502  0.000000000E+00  0.000000000E+00 -1.988840556E+03  1.988840556E+03  0.000000000E+00  0.00000E+00  9.000E+00
      25     1     1     2     0     0 -3.996091169E+01 -5.577993463E+01 -7.248230562E+02  7.387162773E+02  1.250000000E+02  0.00000E+00  9.000E+00
      25     1     1     2     0     0  2.724731311E+01  5.976131086E+01 -1.211839621E+03  1.220038564E+03  1.250000000E+02  0.00000E+00  9.000E+00
      21     1     1     2   511   502  1.271359858E+01 -3.981376230E+00 -4.005302727E+01  4.221056668E+01  6.743495762E-07  0.00000E+00  9.000E+00
#rwgt            1           1   9.6772668206337661E-002           1       34418           0
</event>
<event>
      5   9999  3.19816E-02  1.60770E+02 -1.00000E+00  1.15213E-01
      21    -1     0     0   512   501  0.000000000E+00  0.000000000E+00  6.880644634E+02  6.880644634E+02  0.000000000E+00  0.00000E+00  9.000E+00
      21    -1     0     0   501   502  0.000000000E+00  0.000000000E+00 -7.483785735E+02  7.483785735E+02  0.000000000E+00  0.00000E+00  9.000E+00
      25     1     1     2     0     0  3.460780151E+02  5.244607358E+02  2.005340179E+02  6.713180679E+02  1.250000000E+02  0.00000E+00  9.000E+00
      25     1     1     2     0     0 -3.165773495E+02 -3.664205220E+02 -3.201047773E+02  5.937821870E+02  1.250000000E+02  0.00000E+00  9.000E+00
      21     1     1     2   512   502 -2.950066560E+01 -1.580402138E+02  5.925664931E+01  1.713427820E+02  3.303624740E-06  0.00000E+00  9.000E+00
#rwgt            1           1   2.4074745898139956E-002           1       34602           0
</event>
<event>
      5   9999  3.19816E-02  7.85983E+01 -1.00000E+00  1.28722E-01
      21    -1     0     0   502   511  0.000000000E+00  0.000000000E+00  1.237989184E+03  1.237989184E+03  0.000000000E+00  0.00000E+00  9.000E+00
      21    -1     0     0   501   502  0.000000000E+00  0.000000000E+00 -6.795056198E+01  6.795056198E+01  0.000000000E+00  0.00000E+00  9.000E+00
      25     1     1     2     0     0  1.526930551E+02 -4.133478089E+01  4.331372343E+02  4.777620715E+02  1.250000000E+02  0.00000E+00  9.000E+00
      25     1     1     2     0     0 -7.582727692E+01  5.774637353E+01  9.969281454E+01  1.861399389E+02  1.250000000E+02  0.00000E+00  9.000E+00
      21     1     1     2   501   511 -7.686577819E+01 -1.641159264E+01  6.372085729E+02  6.420377354E+02  1.321449896E-05  0.00000E+00  9.000E+00
#rwgt            1           1   2.8300977815507330E-002           1       34695           0
</event>
<event>
      5   9999  3.19816E-02  9.88243E+00 -1.00000E+00  1.96353E-01
      21    -1     0     0   502   512  0.000000000E+00  0.000000000E+00  3.801593620E+02  3.801593620E+02  0.000000000E+00  0.00000E+00  9.000E+00
      21    -1     0     0   501   502  0.000000000E+00  0.000000000E+00 -2.122454820E+02  2.122454820E+02  0.000000000E+00  0.00000E+00  9.000E+00
      25     1     1     2     0     0 -2.447781995E+02 -2.100348646E+01  1.048419208E+02  2.949141261E+02  1.250000000E+02  0.00000E+00  9.000E+00
      25     1     1     2     0     0  2.451533675E+02  3.087879640E+01  5.046172201E+01  2.814694638E+02  1.250000000E+02  0.00000E+00  9.000E+00
      21     1     1     2   501   512 -3.751680100E-01 -9.875309949E+00  1.261023728E+01  1.602125407E+01  1.685873940E-07  0.00000E+00  9.000E+00
#rwgt            1           1   2.5424724132946566E-002           1       34745           0
</event>
<event>
      5   9999  3.19816E-02  8.79854E+00 -1.00000E+00  2.02411E-01
       2    -1     0     0   502     0  0.000000000E+00  0.000000000E+00  1.882050040E+03  1.882050040E+03  0.000000000E+00  0.00000E+00  9.000E+00
      21    -1     0     0   501   502  0.000000000E+00  0.000000000E+00 -4.923880587E+01  4.923880587E+01  0.000000000E+00  0.00000E+00  9.000E+00
      25     1     1     2     0     0 -2.464673707E+02  9.247224158E+01  7.060339408E+02  7.638103206E+02  1.250000000E+02  0.00000E+00  9.000E+00
      25     1     1     2     0     0  2.518159017E+02 -8.548599909E+01  1.054765604E+03  1.094931314E+03  1.250000000E+02  0.00000E+00  9.000E+00
       2     1     1     2   501     0 -5.348531005E+00 -6.986242489E+00  7.201168928E+01  7.254721057E+01  0.000000000E+00  0.00000E+00  9.000E+00
#rwgt            1           1   3.2568420605884767E-002           1       34967           0
</event>
<event>
      5   9999  3.19816E-02  1.63995E+02 -1.00000E+00  1.14879E-01
      21    -1     0     0   511   501  0.000000000E+00  0.000000000E+00  1.864515498E+02  1.864515498E+02  0.000000000E+00  0.00000E+00  9.000E+00
      21    -1     0     0   501   502  0.000000000E+00  0.000000000E+00 -8.580872897E+02  8.580872897E+02  0.000000000E+00  0.00000E+00  9.000E+00
      25     1     1     2     0     0 -1.876858375E+01  1.487551638E+01 -6.687040633E+02  6.807082084E+02  1.250000000E+02  0.00000E+00  9.000E+00
      25     1     1     2     0     0 -8.477092430E+01  1.123017845E+02 -4.705633562E+01  1.940028328E+02  1.250000000E+02  0.00000E+00  9.000E+00
      21     1     1     2   511   502  1.035395080E+02 -1.271773008E+02  4.412465898E+01  1.698277984E+02  3.126830351E-06  0.00000E+00  9.000E+00
#rwgt            1           1   2.3675290823439679E-002           1       35259           0
</event>
<event>
      5   9999  3.19816E-02  1.10695E+02 -1.00000E+00  1.21875E-01
      21    -1     0     0   502   501  0.000000000E+00  0.000000000E+00  2.404820198E+03  2.404820198E+03  0.000000000E+00  0.00000E+00  9.000E+00
      21    -1     0     0   512   502  0.000000000E+00  0.000000000E+00 -3.805662320E+02  3.805662320E+02  0.000000000E+00  0.00000E+00  9.000E+00
      25     1     1     2     0     0 -4.678765523E+02 -2.080165569E+02  3.755410120E+02  6.471749437E+02  1.250000000E+02  0.00000E+00  9.000E+00
      25     1     1     2     0     0  4.937977824E+02  3.156335838E+02  1.830104016E+03  1.925711952E+03  1.250000000E+02  0.00000E+00  9.000E+00
      21     1     1     2   512   501 -2.592123012E+01 -1.076170269E+02 -1.813910625E+02  2.124995346E+02  6.031565972E-06  0.00000E+00  9.000E+00
#rwgt            1           1   3.6384701440859667E-002           1       35295           0
</event>
<event>
      5   9999  3.19816E-02  5.89969E+01 -1.00000E+00  1.35096E-01
      21    -1     0     0   502   501  0.000000000E+00  0.000000000E+00  5.102111481E+02  5.102111481E+02  0.000000000E+00  0.00000E+00  9.000E+00
      21    -1     0     0   511   502  0.000000000E+00  0.000000000E+00 -2.993644159E+02  2.993644159E+02  0.000000000E+00  0.00000E+00  9.000E+00
      25     1     1     2     0     0  8.406259139E+00  2.868906415E+02 -3.123317989E+01  3.146067655E+02  1.250000000E+02  0.00000E+00  9.000E+00
      25     1     1     2     0     0  1.069694815E+01 -3.427091420E+02  2.382765639E+02  4.358494025E+02  1.250000000E+02  0.00000E+00  9.000E+00
      21     1     1     2   511   501 -1.910320729E+01  5.581850048E+01  3.803348249E+00  5.911939599E+01  1.040096782E-06  0.00000E+00  9.000E+00
#rwgt            1           1   2.6779717405154658E-002           1       35376           0
</event>
<event>
      5   9999  3.19816E-02  6.19021E+02 -1.00000E+00  9.62870E-02
       2    -1     0     0   502     0  0.000000000E+00  0.000000000E+00  1.318652283E+03  1.318652283E+03  0.000000000E+00  0.00000E+00  9.000E+00
      21    -1     0     0   501   502  0.000000000E+00  0.000000000E+00 -5.668008647E+02  5.668008647E+02  0.000000000E+00  0.00000E+00  9.000E+00
      25     1     1     2     0     0 -1.703709087E+02 -7.157618300E+01  1.368949706E+02  2.617529933E+02  1.250000000E+02  0.00000E+00  9.000E+00
      25     1     1     2     0     0 -3.990479034E+02  3.143713610E+02 -2.339355963E+02  5.730789170E+02  1.250000000E+02  0.00000E+00  9.000E+00
       2     1     1     2   501     0  5.694188121E+02 -2.427951780E+02  8.488920439E+02  1.050621237E+03  1.525878906E-05  0.00000E+00  9.000E+00
#rwgt            2          18   1.6825549176440202E-003           1       35619           0
</event>
<event>
      5   9999  3.19816E-02  9.56555E+00 -1.00000E+00  1.98014E-01
      21    -1     0     0   502   501  0.000000000E+00  0.000000000E+00  2.993135501E+02  2.993135501E+02  0.000000000E+00  0.00000E+00  9.000E+00
      21    -1     0     0   511   502  0.000000000E+00  0.000000000E+00 -6.798573740E+02  6.798573740E+02  0.000000000E+00  0.00000E+00  9.000E+00
      25     1     1     2     0     0 -1.653544657E+02 -2.043263927E+02 -3.761683355E+02  4.756248424E+02  1.250000000E+02  0.00000E+00  9.000E+00
      25     1     1     2     0     0  1.741395215E+02  2.081109145E+02  1.599883637E+02  3.389041195E+02  1.250000000E+02  0.00000E+00  9.000E+00
      21     1     1     2   511   501 -8.785055796E+00 -3.784521800E+00 -1.643638522E+02  1.646419622E+02  1.907348633E-06  0.00000E+00  9.000E+00
#rwgt            1           1   2.7995934537111238E-002           1       35638           0
</event>
<event>
      5   9999  3.19816E-02  4.14333E+02 -1.00000E+00  1.01227E-01
       2    -1     0     0   502     0  0.000000000E+00  0.000000000E+00  5.292274371E+02  5.292274371E+02  0.000000000E+00  0.00000E+00  9.000E+00
      21    -1     0     0   501   502  0.000000000E+00  0.000000000E+00 -7.628795129E+02  7.628795129E+02  0.000000000E+00  0.00000E+00  9.000E+00
      25     1     1     2     0     0  2.971320077E+02  5.624174366E+01 -1.190515829E+02  3.482080458E+02  1.250000000E+02  0.00000E+00  9.000E+00
      25     1     1     2     0     0  1.171833976E+02 -5.241326160E+01 -4.016788897E+02  4.398295455E+02  1.250000000E+02  0.00000E+00  9.000E+00
       2     1     1     2   501     0 -4.143154054E+02 -3.828482068E+00  2.870783968E+02  5.040693586E+02  8.529922400E-06  0.00000E+00  9.000E+00
#rwgt            1           1   2.5791349429221792E-002           1       35874           0
</event>
<event>
      5   9999  3.19816E-02  2.05433E+02 -1.00000E+00  1.11226E-01
      21    -1     0     0   511   501  0.000000000E+00  0.000000000E+00  8.754485452E+02  8.754485452E+02  0.000000000E+00  0.00000E+00  9.000E+00
      21    -1     0     0   501   502  0.000000000E+00  0.000000000E+00 -5.969796668E+02  5.969796668E+02  0.000000000E+00  0.00000E+00  9.000E+00
      25     1     1     2     0     0 -4.933439113E+02  2.148248119E+02 -2.746671782E+02  6.169319034E+02  1.250000000E+02  0.00000E+00  9.000E+00
      25     1     1     2     0     0  4.232572437E+02 -2.171715993E+01  3.251194339E+02  5.485854315E+02  1.250000000E+02  0.00000E+00  9.000E+00
      21     1     1     2   511   502  7.008666767E+01 -1.931076520E+02  2.280166227E+02  3.069108771E+02  0.000000000E+00  0.00000E+00  9.000E+00
#rwgt            1           1   2.7815560961413230E-002           1       35903           0
</event>
<event>
      5   9999  3.19816E-02  1.27371E+01 -1.00000E+00  1.84347E-01
      21    -1     0     0   502   501  0.000000000E+00  0.000000000E+00  9.880266403E+01  9.880266403E+01  0.000000000E+00  0.00000E+00  9.000E+00
      21    -1     0     0   512   502  0.000000000E+00  0.000000000E+00 -5.757068131E+02  5.757068131E+02  0.000000000E+00  0.00000E+00  9.000E+00
      25     1     1     2     0     0 -1.012905610E+02  1.534738335E+02 -2.601335614E+02  3.422111411E+02  1.250000000E+02  0.00000E+00  9.000E+00
      25     1     1     2     0     0  8.855373600E+01 -1.533952796E+02 -1.483140896E+02  2.626669853E+02  1.250000000E+02  0.00000E+00  9.000E+00
      21     1     1     2   512   501  1.273682504E+01 -7.855382728E-02 -6.845649807E+01  6.963135078E+01  0.000000000E+00  0.00000E+00  9.000E+00
#rwgt            1           1   2.7023313230229995E-002           1       35945           0
</event>
<event>
      5   9999  3.19816E-02  2.19961E+01 -1.00000E+00  1.63031E-01
      21    -1     0     0   511   501  0.000000000E+00  0.000000000E+00  5.921100827E+02  5.921100827E+02  0.000000000E+00  0.00000E+00  9.000E+00
      21    -1     0     0   501   502  0.000000000E+00  0.000000000E+00 -3.581145663E+02  3.581145663E+02  0.000000000E+00  0.00000E+00  9.000E+00
      25     1     1     2     0     0 -1.339672238E+02 -3.616494798E+02 -9.235889053E+01  4.158037133E+02  1.250000000E+02  0.00000E+00  9.000E+00
      25     1     1     2     0     0  1.240154064E+02  3.420334357E+02  2.594942645E+02  4.640355218E+02  1.250000000E+02  0.00000E+00  9.000E+00
      21     1     1     2   511   502  9.951817425E+00  1.961604417E+01  6.686014241E+01  7.038541398E+01  9.536743164E-07  0.00000E+00  9.000E+00
#rwgt            1           1   2.3829737357497580E-002           1       36191           0
</event>
<event>
      5   9999  3.19816E-02  2.21051E+02 -1.00000E+00  1.10088E-01
      21    -1     0     0   512   501  0.000000000E+00  0.000000000E+00  1.718024158E+02  1.718024158E+02  0.000000000E+00  0.00000E+00  9.000E+00
      21    -1     0     0   501   502  0.000000000E+00  0.000000000E+00 -1.872672369E+03  1.872672369E+03  0.000000000E+00  0.00000E+00  9.000E+00
      25     1     1     2     0     0  2.869042287E+02  5.014291328E+01 -1.034019584E+03  1.081503512E+03  1.250000000E+02  0.00000E+00  9.000E+00
      25     1     1     2     0     0 -1.446062414E+02 -2.193015608E+02 -6.819481326E+02  7.414056887E+02  1.250000000E+02  0.00000E+00  9.000E+00
      21     1     1     2   512   502 -1.422979873E+02  1.691586475E+02  1.509776345E+01  2.215655833E+02  5.835169912E-06  0.00000E+00  9.000E+00
#rwgt            1           1   2.2125150018611258E-003           1       36340           0
</event>
<event>
      5   9999  3.19816E-02  2.30185E+02 -1.00000E+00  1.09470E-01
      21    -1     0     0   511   501  0.000000000E+00  0.000000000E+00  1.704268723E+03  1.704268723E+03  0.000000000E+00  0.00000E+00  9.000E+00
      21    -1     0     0   501   502  0.000000000E+00  0.000000000E+00 -1.625239663E+03  1.625239663E+03  0.000000000E+00  0.00000E+00  9.000E+00
      25     1     1     2     0     0  5.800963318E+02  6.584368424E+02 -1.206252842E+03  1.496904054E+03  1.250000000E+02  0.00000E+00  9.000E+00
      25     1     1     2     0     0 -4.149195718E+02 -4.981198221E+02  1.537514924E+02  6.778983181E+02  1.250000000E+02  0.00000E+00  9.000E+00
      21     1     1     2   511   502 -1.651767600E+02 -1.603170203E+02  1.131530410E+03  1.154706014E+03  1.525878906E-05  0.00000E+00  9.000E+00
#rwgt            1           1   3.6858763951926006E-002           1       36386           0
</event>
<event>
      5   9999  3.19816E-02  1.81038E+01 -1.00000E+00  1.70019E-01
      21    -1     0     0   502   512  0.000000000E+00  0.000000000E+00  1.346388563E+02  1.346388563E+02  0.000000000E+00  0.00000E+00  9.000E+00
      21    -1     0     0   501   502  0.000000000E+00  0.000000000E+00 -3.087715393E+02  3.087715393E+02  0.000000000E+00  0.00000E+00  9.000E+00
      25     1     1     2     0     0  2.094339470E+00  6.895717085E+01 -2.363531396E+02  2.761291079E+02  1.250000000E+02  0.00000E+00  9.000E+00
      25     1     1     2     0     0 -2.313069899E+00 -5.085465253E+01  4.493941853E+01  1.422536373E+02  1.250000000E+02  0.00000E+00  9.000E+00
      21     1     1     2   501   512  2.187304286E-01 -1.810251833E+01  1.728103794E+01  2.502765041E+01  2.384185791E-07  0.00000E+00  9.000E+00
#rwgt            1           1   2.6820779247452284E-002           1       36472           0
</event>
<event>
      5   9999  3.19816E-02  6.51030E+00 -1.00000E+00  2.20104E-01
      21    -1     0     0   511   501  0.000000000E+00  0.000000000E+00  1.378484564E+03  1.378484564E+03  0.000000000E+00  0.00000E+00  9.000E+00
      21    -1     0     0   501   502  0.000000000E+00  0.000000000E+00 -1.664637012E+01  1.664637012E+01  0.000000000E+00  0.00000E+00  9.000E+00
      25     1     1     2     0     0 -7.455191376E+01 -6.248563292E+00  7.884380825E+02  8.017834136E+02  1.250000000E+02  0.00000E+00  9.000E+00
      25     1     1     2     0     0  7.531545685E+01 -2.168021766E-01  5.439620086E+02  5.631981284E+02  1.250000000E+02  0.00000E+00  9.000E+00
      21     1     1     2   511   502 -7.635430873E-01  6.465365469E+00  2.943810263E+01  3.014939195E+01  0.000000000E+00  0.00000E+00  9.000E+00
#rwgt            1           1   5.4085441997542477E-002           1       36602           0
</event>
<event>
      5   9999  3.19816E-02  2.12069E+01 -1.00000E+00  1.64296E-01
       4    -1     0     0   502     0  0.000000000E+00  0.000000000E+00  1.276986582E+02  1.276986582E+02  0.000000000E+00  0.00000E+00  9.000E+00
      21    -1     0     0   501   502  0.000000000E+00  0.000000000E+00 -5.768474154E+02  5.768474154E+02  0.000000000E+00  0.00000E+00  9.000E+00
      25     1     1     2     0     0  6.686339160E+01  7.530570198E+01 -4.623141457E+01  1.670449208E+02  1.250000000E+02  0.00000E+00  9.000E+00
      25     1     1     2     0     0 -8.428322559E+01 -6.321096468E+01 -4.538155247E+02  4.823617093E+02  1.250000000E+02  0.00000E+00  9.000E+00
       4     1     1     2   501     0  1.741983399E+01 -1.209473730E+01  5.089818206E+01  5.513944345E+01  6.743495762E-07  0.00000E+00  9.000E+00
#rwgt            1           1   2.6322859705068705E-002           1       36921           0
</event>
<event>
      5   9999  3.19816E-02  2.46255E+01 -1.00000E+00  1.59243E-01
      21    -1     0     0   502   511  0.000000000E+00  0.000000000E+00  3.281422809E+02  3.281422809E+02  0.000000000E+00  0.00000E+00  9.000E+00
      21    -1     0     0   501   502  0.000000000E+00  0.000000000E+00 -1.586900005E+03  1.586900005E+03  0.000000000E+00  0.00000E+00  9.000E+00
      25     1     1     2     0     0  9.563798686E-01 -6.507114675E+02 -3.421255411E+02  7.457219418E+02  1.250000000E+02  0.00000E+00  9.000E+00
      25     1     1     2     0     0  1.375714650E+01  6.704579997E+02 -9.190859634E+02  1.144572932E+03  1.250000000E+02  0.00000E+00  9.000E+00
      21     1     1     2   501   511 -1.471352637E+01 -1.974653219E+01  2.453779966E+00  2.474741255E+01  1.837138534E-07  0.00000E+00  9.000E+00
#rwgt            1           1   2.7112047463997105E-002           1       37032           0
</event>
<event>
      5   9999  3.19816E-02  1.10904E+02 -1.00000E+00  1.21840E-01
      21    -1     0     0   502   501  0.000000000E+00  0.000000000E+00  1.657930150E+03  1.657930150E+03  0.000000000E+00  0.00000E+00  9.000E+00
      21    -1     0     0   512   502  0.000000000E+00  0.000000000E+00 -8.248312835E+01  8.248312835E+01  0.000000000E+00  0.00000E+00  9.000E+00
      25     1     1     2     0     0  1.164473100E+02  9.729162168E+01  1.986458226E+02  2.794830916E+02  1.250000000E+02  0.00000E+00  9.000E+00
      25     1     1     2     0     0 -3.524954632E+01 -2.174970509E+01  1.336437564E+03  1.342909506E+03  1.250000000E+02  0.00000E+00  9.000E+00
      21     1     1     2   512   501 -8.119776363E+01 -7.554191659E+01  4.036363537E+01  1.180206806E+02  1.907348633E-06  0.00000E+00  9.000E+00
#rwgt            1           1   3.3039888616898272E-002           1       37273           0
</event>
<event>
      5   9999  3.19816E-02  5.52777E+01 -1.00000E+00  1.36634E-01
      21    -1     0     0   502   511  0.000000000E+00  0.000000000E+00  4.880901910E+02  4.880901910E+02  0.000000000E+00  0.00000E+00  9.000E+00
      21    -1     0     0   501   502  0.000000000E+00  0.000000000E+00 -4.298431347E+02  4.298431347E+02  0.000000000E+00  0.00000E+00  9.000E+00
      25     1     1     2     0     0  2.843184656E+02 -2.730975785E+02  3.238624252E+01  4.148411093E+02  1.250000000E+02  0.00000E+00  9.000E+00
      25     1     1     2     0     0 -3.377319051E+02  2.588627791E+02  3.655650528E+00  4.435212981E+02  1.250000000E+02  0.00000E+00  9.000E+00
      21     1     1     2   501   511  5.341343948E+01  1.423479941E+01  2.220516332E+01  5.957091832E+01  5.331201500E-07  0.00000E+00  9.000E+00
#rwgt            1           1   2.9995793821367325E-002           1       37335           0
</event>
<event>
      5   9999  3.19816E-02  1.43845E+02 -1.00000E+00  1.17119E-01
      21    -1     0     0   502   501  0.000000000E+00  0.000000000E+00  3.987901159E+02  3.987901159E+02  0.000000000E+00  0.00000E+00  9.000E+00
      21    -1     0     0   501   512  0.000000000E+00  0.000000000E+00 -2.186603360E+02  2.186603360E+02  0.000000000E+00  0.00000E+00  9.000E+00
      25     1     1     2     0     0  7.339211522E+01 -1.748482878E+01  1.046362717E+02  1.796270335E+02  1.250000000E+02  0.00000E+00  9.000E+00
      25     1     1     2     0     0 -7.040354972E+01 -1.263293720E+02  1.779938265E+02  2.611945105E+02  1.250000000E+02  0.00000E+00  9.000E+00
      21     1     1     2   502   512 -2.988565496E+00  1.438142007E+02 -1.025003184E+02  1.766289079E+02  2.336015456E-06  0.00000E+00  9.000E+00
#rwgt            1           1   6.3927472308853178E-002           1       37444           0
</event>
<event>
      5   9999  3.19816E-02  2.55749E+01 -1.00000E+00  1.58015E-01
      21    -1     0     0   511   501  0.000000000E+00  0.000000000E+00  1.925087154E+02  1.925087154E+02  0.000000000E+00  0.00000E+00  9.000E+00
      21    -1     0     0   501   502  0.000000000E+00  0.000000000E+00 -2.720947715E+02  2.720947715E+02  0.000000000E+00  0.00000E+00  9.000E+00
      25     1     1     2     0     0  2.828152270E+01  3.302259583E+01  1.171106316E+02  1.767207866E+02  1.250000000E+02  0.00000E+00  9.000E+00
      25     1     1     2     0     0 -5.239611209E+01 -4.154094803E+01 -2.142218529E+02  2.568793592E+02  1.250000000E+02  0.00000E+00  9.000E+00
      21     1     1     2   511   502  2.411458939E+01  8.518352208E+00  1.752516518E+01  3.100334112E+01  4.129530925E-07  0.00000E+00  9.000E+00
#rwgt            1           1   3.2404121339825710E-002           1       37492           0
</event>
<event>
      5   9999  3.19816E-02  4.46777E+01 -1.00000E+00  1.41923E-01
      21    -1     0     0   512   501  0.000000000E+00  0.000000000E+00  1.981804798E+03  1.981804798E+03  0.000000000E+00  0.00000E+00  9.000E+00
      21    -1     0     0   501   502  0.000000000E+00  0.000000000E+00 -3.182863227E+01  3.182863227E+01  0.000000000E+00  0.00000E+00  9.000E+00
      25     1     1     2     0     0 -1.875181464E+02 -6.979755779E+01  9.439531988E+02  9.729888981E+02  1.250000000E+02  0.00000E+00  9.000E+00
      25     1     1     2     0     0  1.428982383E+02  6.752598032E+01  6.171619409E+02  6.492253275E+02  1.250000000E+02  0.00000E+00  9.000E+00
      21     1     1     2   512   502  4.461990808E+01  2.271577477E+00  3.888610256E+02  3.914192043E+02  5.394796609E-06  0.00000E+00  9.000E+00
#rwgt            1           1   3.4746245107328586E-002           1       37593           0
</event>
<event>
      5   9999  3.19816E-02  1.69679E+02 -1.00000E+00  1.14311E-01
      21    -1     0     0   502   501  0.000000000E+00  0.000000000E+00  1.547783174E+02  1.547783174E+02  0.000000000E+00  0.00000E+00  9.000E+00
      21    -1     0     0   511   502  0.000000000E+00  0.000000000E+00 -5.991797597E+02  5.991797597E+02  0.000000000E+00  0.00000E+00  9.000E+00
      25     1     1     2     0     0 -1.159606625E+02 -9.938007562E+01 -2.115623667E+02  2.893214643E+02  1.250000000E+02  0.00000E+00  9.000E+00
      25     1     1     2     0     0 -5.227058091E+01  7.726052134E+01  2.298746285E+01  1.576541317E+02  1.250000000E+02  0.00000E+00  9.000E+00
      21     1     1     2   511   501  1.682312434E+02  2.211955428E+01 -2.558265385E+02  3.069824811E+02  4.672030912E-06  0.00000E+00  9.000E+00
#rwgt            1           1   3.1251291709597090E-002           1       37660           0
</event>
<event>
      5   9999  3.19816E-02  2.61422E+02 -1.00000E+00  1.07571E-01
      21    -1     0     0   502   501  0.000000000E+00  0.000000000E+00  3.256260726E+02  3.256260726E+02  0.000000000E+00  0.00000E+00  9.000E+00
      21    -1     0     0   501   512  0.000000000E+00  0.000000000E+00 -9.553720116E+02  9.553720116E+02  0.000000000E+00  0.00000E+00  9.000E+00
      25     1     1     2     0     0  1.352696588E+02 -2.411826522E+01 -6.185976768E+02  6.458851733E+02  1.250000000E+02  0.00000E+00  9.000E+00
      25     1     1     2     0     0 -1.208387664E+02 -2.369046578E+02  1.480385127E+02  3.290383346E+02  1.250000000E+02  0.00000E+00  9.000E+00
      21     1     1     2   502   512 -1.443089243E+01  2.610229230E+02 -1.591867749E+02  3.060745764E+02  4.672030912E-06  0.00000E+00  9.000E+00
#rwgt            1           1   2.3975596266918673E-002           1       37717           0
</event>
<event>
      5   9999  3.19816E-02  1.14375E+02 -1.00000E+00  1.21260E-01
      21    -1     0     0   502   501  0.000000000E+00  0.000000000E+00  1.044661456E+03  1.044661456E+03  0.000000000E+00  0.00000E+00  9.000E+00
      21    -1     0     0   511   502  0.000000000E+00  0.000000000E+00 -4.459383730E+02  4.459383730E+02  0.000000000E+00  0.00000E+00  9.000E+00
      25     1     1     2     0     0 -2.397145199E+02 -1.204434394E+02  8.672735645E+02  9.163831671E+02  1.250000000E+02  0.00000E+00  9.000E+00
      25     1     1     2     0     0  3.452753028E+02  7.641337716E+01 -2.659859732E+02  4.598125454E+02  1.250000000E+02  0.00000E+00  9.000E+00
      21     1     1     2   511   501 -1.055607829E+02  4.403006227E+01 -2.564507921E+00  1.144041170E+02  2.310593102E-06  0.00000E+00  9.000E+00
#rwgt            1           1   2.9345049180632386E-002           1       37764           0
</event>
<event>
      5   9999  3.19816E-02  2.34732E+02 -1.00000E+00  1.09174E-01
      21    -1     0     0   502   501  0.000000000E+00  0.000000000E+00  2.343465441E+02  2.343465441E+02  0.000000000E+00  0.00000E+00  9.000E+00
       1    -1     0     0   501     0  0.000000000E+00  0.000000000E+00 -1.575166653E+03  1.575166653E+03  0.000000000E+00  0.00000E+00  9.000E+00
      25     1     1     2     0     0  2.770196270E+02  1.617611163E+02 -2.794871608E+02  4.434462825E+02  1.250000000E+02  0.00000E+00  9.000E+00
      25     1     1     2     0     0 -4.551437167E+02 -8.885645676E+00 -2.769662248E+02  5.473299254E+02  1.250000000E+02  0.00000E+00  9.000E+00
       1     1     1     2   502     0  1.781240897E+02 -1.528754706E+02 -7.843667238E+02  8.187369897E+02  1.078959322E-05  0.00000E+00  9.000E+00
#rwgt            1           1   3.3143254133270454E-002           1       37849           0
</event>
<event>
      5   9999  3.19816E-02  4.63296E+01 -1.00000E+00  1.40991E-01
      -2    -1     0     0     0   501  0.000000000E+00  0.000000000E+00  1.578382824E+02  1.578382824E+02  0.000000000E+00  0.00000E+00  9.000E+00
      21    -1     0     0   501   502  0.000000000E+00  0.000000000E+00 -2.487978658E+03  2.487978658E+03  0.000000000E+00  0.00000E+00  9.000E+00
      25     1     1     2     0     0 -1.766654201E+02  2.756443577E+01 -2.364654523E+03  2.374697134E+03  1.250000000E+02  0.00000E+00  9.000E+00
      25     1     1     2     0     0  1.661266721E+02 -7.267947517E+01  1.469511736E+01  2.207290732E+02  1.250000000E+02  0.00000E+00  9.000E+00
      -2     1     1     2     0   502  1.053874804E+01  4.511503940E+01  1.981902986E+01  5.039073263E+01  1.507891493E-06  0.00000E+00  9.000E+00
#rwgt            1           1   2.0144526935624116E-002           1       37903           0
</event>
<event>
      5   9999  3.19816E-02  1.44651E+01 -1.00000E+00  1.78882E-01
      21    -1     0     0   502   501  0.000000000E+00  0.000000000E+00  6.251750829E+02  6.251750829E+02  0.000000000E+00  0.00000E+00  9.000E+00
      21    -1     0     0   511   502  0.000000000E+00  0.000000000E+00 -8.436679967E+02  8.436679967E+02  0.000000000E+00  0.00000E+00  9.000E+00
      25     1     1     2     0     0  6.078472075E+02  2.267393478E+02 -3.982771467E+02  7.714522961E+02  1.250000000E+02  0.00000E+00  9.000E+00
      25     1     1     2     0     0 -5.985987570E+02 -2.378615724E+02  1.854636993E+02  6.818507045E+02  1.250000000E+02  0.00000E+00  9.000E+00
      21     1     1     2   511   501 -9.248450520E+00  1.112222453E+01 -5.679466344E+00  1.554007894E+01  3.264680848E-07  0.00000E+00  9.000E+00
#rwgt            1           1   3.4353782825201143E-002           1       38040           0
</event>
<event>
      5   9999  3.19816E-02  9.91443E+01 -1.00000E+00  1.23996E-01
      21    -1     0     0   502   501  0.000000000E+00  0.000000000E+00  4.996984127E+02  4.996984127E+02  0.000000000E+00  0.00000E+00  9.000E+00
      21    -1     0     0   501   512  0.000000000E+00  0.000000000E+00 -1.440896566E+03  1.440896566E+03  0.000000000E+00  0.00000E+00  9.000E+00
      25     1     1     2     0     0  1.131652650E+02  7.691206088E+02 -4.187691399E+02  8.918214399E+02  1.250000000E+02  0.00000E+00  9.000E+00
      25     1     1     2     0     0 -1.905774480E+01 -8.003193144E+02 -4.660418904E+02  9.347161313E+02  1.250000000E+02  0.00000E+00  9.000E+00
      21     1     1     2   502   512 -9.410752015E+01  3.119870553E+01 -5.638712334E+01  1.140574077E+02  1.651812370E-06  0.00000E+00  9.000E+00
#rwgt            2          11   1.0464022113300993E-002           1       38487           0
</event>
<event>
      5   9999  3.19816E-02  1.38034E+02 -1.00000E+00  1.17843E-01
      21    -1     0     0   502   501  0.000000000E+00  0.000000000E+00  2.632875898E+02  2.632875898E+02  0.000000000E+00  0.00000E+00  9.000E+00
       2    -1     0     0   501     0  0.000000000E+00  0.000000000E+00 -1.552759514E+03  1.552759514E+03  0.000000000E+00  0.00000E+00  9.000E+00
      25     1     1     2     0     0  2.906834634E+02 -4.604187902E+02 -9.475453187E+02  1.099977031E+03  1.250000000E+02  0.00000E+00  9.000E+00
      25     1     1     2     0     0 -3.112641364E+02  3.239281006E+02 -3.415932237E+02  5.780360780E+02  1.250000000E+02  0.00000E+00  9.000E+00
       2     1     1     2   502     0  2.058067293E+01  1.364906897E+02 -3.333816260E-01  1.380339944E+02  2.039843926E-06  0.00000E+00  9.000E+00
#rwgt            1           1   2.8210618726259091E-002           1       38537           0
</event>
<event>
      5   9999  3.19816E-02  6.96626E+01 -1.00000E+00  1.31327E-01
      21    -1     0     0   502   501  0.000000000E+00  0.000000000E+00  4.886272053E+02  4.886272053E+02  0.000000000E+00  0.00000E+00  9.000E+00
      21    -1     0     0   501   511  0.000000000E+00  0.000000000E+00 -6.673602050E+02  6.673602050E+02  0.000000000E+00  0.00000E+00  9.000E+00
      25     1     1     2     0     0  6.305404988E+01 -1.433618374E+00  1.443250346E+01  1.407521425E+02  1.250000000E+02  0.00000E+00  9.000E+00
      25     1     1     2     0     0 -8.404151307E+01 -6.499235332E+01  3.925196565E+02  4.254217468E+02  1.250000000E+02  0.00000E+00  9.000E+00
      21     1     1     2   502   511  2.098746319E+01  6.642597169E+01 -5.856851597E+02  5.898135210E+02  7.629394531E-06  0.00000E+00  9.000E+00
#rwgt            1           1   3.2206438719863881E-002           1       38674           0
</event>
<event>
      5   9999  3.19816E-02  2.88970E+01 -1.00000E+00  1.54178E-01
      21    -1     0     0   502   512  0.000000000E+00  0.000000000E+00  1.910109479E+02  1.910109479E+02  0.000000000E+00  0.00000E+00  9.000E+00
      21    -1     0     0   501   502  0.000000000E+00  0.000000000E+00 -3.949864899E+02  3.949864899E+02  0.000000000E+00  0.00000E+00  9.000E+00
      25     1     1     2     0     0 -7.596780069E+01 -1.262110342E+02 -2.052950998E+02  2.819067397E+02  1.250000000E+02  0.00000E+00  9.000E+00
      25     1     1     2     0     0  9.888697635E+01  1.438106649E+02 -7.108101847E+01  2.261363585E+02  1.250000000E+02  0.00000E+00  9.000E+00
      21     1     1     2   501   512 -2.291917566E+01 -1.759963074E+01  7.240057634E+01  7.795433964E+01  9.536743164E-07  0.00000E+00  9.000E+00
#rwgt            1           1   2.8393468724973253E-002           1       38726           0
</event>
<event>
      5   9999  3.19816E-02  8.32502E+01 -1.00000E+00  1.27518E-01
      21    -1     0     0   502   501  0.000000000E+00  0.000000000E+00  4.806353435E+02  4.806353435E+02  0.000000000E+00  0.00000E+00  9.000E+00
      21    -1     0     0   501   511  0.000000000E+00  0.000000000E+00 -4.061773266E+02  4.061773266E+02  0.000000000E+00  0.00000E+00  9.000E+00
      25     1     1     2     0     0 -2.424538427E+02 -2.592960582E+02 -8.858866859E+01  3.866410013E+02  1.250000000E+02  0.00000E+00  9.000E+00
      25     1     1     2     0     0  1.742237156E+02  3.069956110E+02  1.795727931E+02  4.152969976E+02  1.250000000E+02  0.00000E+00  9.000E+00
      21     1     1     2   502   511  6.823012712E+01 -4.769955276E+01 -1.652610757E+01  8.487467120E+01  7.907449699E-07  0.00000E+00  9.000E+00
#rwgt            1           1   2.9135369531938109E-002           1       38835           0
</event>
<event>
      5   9999  3.19816E-02  9.91769E+01 -1.00000E+00  1.23990E-01
      21    -1     0     0   502   501  0.000000000E+00  0.000000000E+00  9.296234816E+02  9.296234816E+02  0.000000000E+00  0.00000E+00  9.000E+00
      21    -1     0     0   501   512  0.000000000E+00  0.000000000E+00 -6.243170548E+02  6.243170548E+02  0.000000000E+00  0.00000E+00  9.000E+00
      25     1     1     2     0     0  2.114870972E+02 -1.459492747E+02 -1.957476407E+02  3.463670335E+02  1.250000000E+02  0.00000E+00  9.000E+00
      25     1     1     2     0     0 -2.878353377E+02  8.264832011E+01  8.155875835E+02  8.777744772E+02  1.250000000E+02  0.00000E+00  9.000E+00
      21     1     1     2   502   512  7.634824048E+01  6.330095462E+01 -3.145335160E+02  3.297990257E+02  3.814697266E-06  0.00000E+00  9.000E+00
#rwgt            1           1   3.3667741155251431E-002           1       38905           0
</event>
<event>
      5   9999  3.19816E-02  2.28043E+01 -1.00000E+00  1.61800E-01
      21    -1     0     0   511   501  0.000000000E+00  0.000000000E+00  9.005887356E+02  9.005887356E+02  0.000000000E+00  0.00000E+00  9.000E+00
      21    -1     0     0   501   502  0.000000000E+00  0.000000000E+00 -3.332641324E+02  3.332641324E+02  0.000000000E+00  0.00000E+00  9.000E+00
      25     1     1     2     0     0 -6.732306848E+01 -5.147223746E+02  3.174926502E+02  6.212069715E+02  1.250000000E+02  0.00000E+00  9.000E+00
      25     1     1     2     0     0  8.971098896E+01  5.103845802E+02  2.240950799E+02  5.782595317E+02  1.250000000E+02  0.00000E+00  9.000E+00
      21     1     1     2   511   502 -2.238792048E+01  4.337794433E+00  2.573687313E+01  3.438636478E+01  4.768371582E-07  0.00000E+00  9.000E+00
#rwgt            1           1   2.9215486431937190E-002           1       38977           0
</event>
<event>
      5   9999  3.19816E-02  3.41119E+02 -1.00000E+00  1.03811E-01
      21    -1     0     0   502   501  0.000000000E+00  0.000000000E+00  6.241216173E+02  6.241216173E+02  0.000000000E+00  0.00000E+00  9.000E+00
       2    -1     0     0   501     0  0.000000000E+00  0.000000000E+00 -5.039753677E+02  5.039753677E+02  0.000000000E+00  0.00000E+00  9.000E+00
      25     1     1     2     0     0  7.298761030E+01  1.704233700E+02  3.751733928E+01  2.267242092E+02  1.250000000E+02  0.00000E+00  9.000E+00
      25     1     1     2     0     0 -3.216429071E+02 -4.039455778E+02 -5.378548503E+01  5.339888275E+02  1.250000000E+02  0.00000E+00  9.000E+00
       2     1     1     2   502     0  2.486552968E+02  2.335222078E+02  1.364143954E+02  3.673839483E+02  8.740569487E-06  0.00000E+00  9.000E+00
#rwgt            2          13   1.5495283569741801E-004           1       39222           0
</event>
<event>
      5   9999  3.19816E-02  4.98855E+01 -1.00000E+00  1.39132E-01
      21    -1     0     0   502   501  0.000000000E+00  0.000000000E+00  3.794375224E+02  3.794375224E+02  0.000000000E+00  0.00000E+00  9.000E+00
      21    -1     0     0   501   511  0.000000000E+00  0.000000000E+00 -3.607484986E+02  3.607484986E+02  0.000000000E+00  0.00000E+00  9.000E+00
      25     1     1     2     0     0 -5.253392662E+01 -1.531928881E+02 -2.673289319E+02  3.366268442E+02  1.250000000E+02  0.00000E+00  9.000E+00
      25     1     1     2     0     0  3.482237676E+01  1.065574164E+02  3.066234889E+02  3.495855329E+02  1.250000000E+02  0.00000E+00  9.000E+00
      21     1     1     2   502   511  1.771154986E+01  4.663547178E+01 -2.060553319E+01  5.397364379E+01  1.305872339E-06  0.00000E+00  9.000E+00
#rwgt            1           1   2.9659531408989394E-002           1       39241           0
</event>
<event>
      5   9999  3.19816E-02  1.39931E+01 -1.00000E+00  1.80275E-01
      21    -1     0     0   502   501  0.000000000E+00  0.000000000E+00  2.737063713E+03  2.737063713E+03  0.000000000E+00  0.00000E+00  9.000E+00
      21    -1     0     0   512   502  0.000000000E+00  0.000000000E+00 -3.279528534E+02  3.279528534E+02  0.000000000E+00  0.00000E+00  9.000E+00
      25     1     1     2     0     0  1.598871272E+02  5.272962126E+02 -1.119893667E+01  5.651155682E+02  1.250000000E+02  0.00000E+00  9.000E+00
      25     1     1     2     0     0 -1.581086985E+02 -5.134165912E+02  2.423563881E+03  2.485534518E+03  1.250000000E+02  0.00000E+00  9.000E+00
      21     1     1     2   512   501 -1.778428757E+00 -1.387962137E+01 -3.254084120E+00  1.436648049E+01  3.182017282E-07  0.00000E+00  9.000E+00
#rwgt            1           1   3.6030706359262699E-002           1       39353           0
</event>
<event>
      5   9999  3.19816E-02  3.29948E+02 -1.00000E+00  1.04266E-01
      21    -1     0     0   502   501  0.000000000E+00  0.000000000E+00  2.615749274E+03  2.615749274E+03  0.000000000E+00  0.00000E+00  9.000E+00
      21    -1     0     0   501   511  0.000000000E+00  0.000000000E+00 -7.799682578E+02  7.799682578E+02  0.000000000E+00  0.00000E+00  9.000E+00
      25     1     1     2     0     0 -9.772774300E+02 -1.096551076E+01  2.966306325E+02  1.028983066E+03  1.250000000E+02  0.00000E+00  9.000E+00
      25     1     1     2     0     0  8.529133732E+02 -2.946473176E+02  1.751578116E+03  1.974317391E+03  1.250000000E+02  0.00000E+00  9.000E+00
      21     1     1     2   502   511  1.243640568E+02  3.056128284E+02 -2.124277322E+02  3.924170752E+02  6.031565972E-06  0.00000E+00  9.000E+00
#rwgt            1           1   2.4048537982011391E-002           1       39708           0
</event>
<event>
      5   9999  3.19816E-02  5.03882E+01 -1.00000E+00  1.38884E-01
      21    -1     0     0   512   501  0.000000000E+00  0.000000000E+00  1.716957447E+03  1.716957447E+03  0.000000000E+00  0.00000E+00  9.000E+00
      21    -1     0     0   501   502  0.000000000E+00  0.000000000E+00 -5.946847325E+01  5.946847325E+01  0.000000000E+00  0.00000E+00  9.000E+00
      25     1     1     2     0     0 -5.804380424E+01 -2.090823122E+02  1.282262577E+03  1.306486438E+03  1.250000000E+02  0.00000E+00  9.000E+00
      25     1     1     2     0     0  4.936939852E+01  1.594464112E+02  2.050377858E+02  2.924482675E+02  1.250000000E+02  0.00000E+00  9.000E+00
      21     1     1     2   512   502  8.674405717E+00  4.963590105E+01  1.701886111E+02  1.774912148E+02  0.000000000E+00  0.00000E+00  9.000E+00
#rwgt            1           1   2.5985086571275101E-002           1       39748           0
</event>
<event>
      5   9999  3.19816E-02  6.04547E+01 -1.00000E+00  1.34528E-01
      21    -1     0     0   502   501  0.000000000E+00  0.000000000E+00  1.538700274E+02  1.538700274E+02  0.000000000E+00  0.00000E+00  9.000E+00
      21    -1     0     0   511   502  0.000000000E+00  0.000000000E+00 -6.850816381E+02  6.850816381E+02  0.000000000E+00  0.00000E+00  9.000E+00
      25     1     1     2     0     0  1.485252247E+02  8.478819676E+01 -3.793285055E+02  4.344696718E+02  1.250000000E+02  0.00000E+00  9.000E+00
      25     1     1     2     0     0 -1.992889778E+02 -1.176181602E+02 -2.532748340E+01  2.642283287E+02  1.250000000E+02  0.00000E+00  9.000E+00
      21     1     1     2   511   501  5.076375312E+01  3.282996343E+01 -1.265556218E+02  1.402536650E+02  0.000000000E+00  0.00000E+00  9.000E+00
#rwgt            1           1   2.6592054059392814E-002           1       39872           0
</event>
<event>
      5   9999  3.19816E-02  1.23482E+02 -1.00000E+00  1.19843E-01
      -2    -1     0     0     0   501  0.000000000E+00  0.000000000E+00  1.375128890E+02  1.375128890E+02  0.000000000E+00  0.00000E+00  9.000E+00
      21    -1     0     0   501   502  0.000000000E+00  0.000000000E+00 -8.063565804E+02  8.063565804E+02  0.000000000E+00  0.00000E+00  9.000E+00
      25     1     1     2     0     0  4.990621030E+01 -7.664814637E+01 -1.116153440E+02  1.909150418E+02  1.250000000E+02  0.00000E+00  9.000E+00
      25     1     1     2     0     0 -1.966858744E+01  1.963711345E+02 -5.818910207E+02  6.270332015E+02  1.250000000E+02  0.00000E+00  9.000E+00
      -2     1     1     2     0   502 -3.023762286E+01 -1.197229881E+02  2.466267335E+01  1.259212261E+02  8.920806376E-07  0.00000E+00  9.000E+00
#rwgt            2           4   7.3648452075571677E-005           1       40058           0
</event>
<event>
      5   9999  3.19816E-02  2.86402E+02 -1.00000E+00  1.06251E-01
      21    -1     0     0   502   511  0.000000000E+00  0.000000000E+00  9.483519177E+02  9.483519177E+02  0.000000000E+00  0.00000E+00  9.000E+00
      21    -1     0     0   501   502  0.000000000E+00  0.000000000E+00 -5.700157500E+02  5.700157500E+02  0.000000000E+00  0.00000E+00  9.000E+00
      25     1     1     2     0     0 -1.391746836E+02 -2.985734386E+02  4.764686627E+02  5.925901427E+02  1.250000000E+02  0.00000E+00  9.000E+00
      25     1     1     2     0     0  2.797119063E+02  4.902320723E+01 -4.022641145E+02  5.080191366E+02  1.250000000E+02  0.00000E+00  9.000E+00
      21     1     1     2   501   511 -1.405372227E+02  2.495502314E+02  3.041316196E+02  4.177583883E+02  3.814697266E-06  0.00000E+00  9.000E+00
#rwgt            1           1   3.3575178589217033E-002           1       40077           0
</event>
<event>
      5   9999  3.19816E-02  1.95889E+01 -1.00000E+00  1.67117E-01
      21    -1     0     0   502   512  0.000000000E+00  0.000000000E+00  1.989107424E+03  1.989107424E+03  0.000000000E+00  0.00000E+00  9.000E+00
      21    -1     0     0   501   502  0.000000000E+00  0.000000000E+00 -5.295595345E+02  5.295595345E+02  0.000000000E+00  0.00000E+00  9.000E+00
      25     1     1     2     0     0 -8.482523817E+02 -4.901153445E+01  4.632258146E+01  8.600610531E+02  1.250000000E+02  0.00000E+00  9.000E+00
      25     1     1     2     0     0  8.341187680E+02  6.257488172E+01  1.356131396E+03  1.598245006E+03  1.250000000E+02  0.00000E+00  9.000E+00
      21     1     1     2   501   512  1.413361368E+01 -1.356334728E+01  5.709391247E+01  6.036090015E+01  0.000000000E+00  0.00000E+00  9.000E+00
#rwgt            1           1   2.2073490257702850E-002           1       40131           0
</event>
<event>
      5   9999  3.19816E-02  1.60830E+01 -1.00000E+00  1.74578E-01
      21    -1     0     0   502   501  0.000000000E+00  0.000000000E+00  1.247608936E+03  1.247608936E+03  0.000000000E+00  0.00000E+00  9.000E+00
       2    -1     0     0   501     0  0.000000000E+00  0.000000000E+00 -1.027324021E+03  1.027324021E+03  0.000000000E+00  0.00000E+00  9.000E+00
      25     1     1     2     0     0  6.743332693E+01  4.010169494E+02  2.909253613E+02  5.153876339E+02  1.250000000E+02  0.00000E+00  9.000E+00
      25     1     1     2     0     0 -7.744184877E+01 -3.884276365E+02  7.933049865E+02  8.954502054E+02  1.250000000E+02  0.00000E+00  9.000E+00
       2     1     1     2   502     0  1.000852184E+01 -1.258931297E+01 -8.639454332E+02  8.640951179E+02  1.078959322E-05  0.00000E+00  9.000E+00
#rwgt            1           1   2.8053520100347992E-002           1       40368           0
</event>
<event>
      5   9999  3.19816E-02  7.82965E+01 -1.00000E+00  1.28804E-01
      21    -1     0     0   502   511  0.000000000E+00  0.000000000E+00  2.954254324E+02  2.954254324E+02  0.000000000E+00  0.00000E+00  9.000E+00
      21    -1     0     0   501   502  0.000000000E+00  0.000000000E+00 -4.357456388E+02  4.357456388E+02  0.000000000E+00  0.00000E+00  9.000E+00
      25     1     1     2     0     0 -6.096836617E+01  1.291213962E+02 -3.153434983E+02  3.680434737E+02  1.250000000E+02  0.00000E+00  9.000E+00
      25     1     1     2     0     0  1.157874578E+02 -7.321781633E+01  1.632964178E+01  1.861699256E+02  1.250000000E+02  0.00000E+00  9.000E+00
      21     1     1     2   501   511 -5.481909161E+01 -5.590357985E+01  1.586936501E+02  1.769576718E+02  2.697398305E-06  0.00000E+00  9.000E+00
#rwgt            1           1   2.5945509642087725E-002           1       40574           0
</event>
<event>
      5   9999  3.26082E-02  8.84151E+01 -1.00000E+00  1.26282E-01
      21    -1     0     0   502   512  0.000000000E+00  0.000000000E+00  3.132237348E+02  3.132237348E+02  0.000000000E+00  0.00000E+00  9.000E+00
      21    -1     0     0   501   502  0.000000000E+00  0.000000000E+00 -5.805739051E+02  5.805739051E+02  0.000000000E+00  0.00000E+00  9.000E+00
      25     1     1     2     0     0  1.486198150E+02  1.791886311E+02  8.096222580E+01  2.763626186E+02  1.250000000E+02  0.00000E+00  9.000E+00
      25     1     1     2     0     0 -1.688093395E+02 -9.310949356E+01 -4.360471251E+02  4.928773339E+02  1.250000000E+02  0.00000E+00  9.000E+00
      21     1     1     2   501   512  2.018952447E+01 -8.607913756E+01  8.773472904E+01  1.245576874E+02  2.336015456E-06  0.00000E+00  9.000E+00
#rwgt            1           1   2.9635572579847402E-002           1       40616           0
</event>
<event>
      5   9999  3.19816E-02  4.68462E+01 -1.00000E+00  1.40709E-01
      21    -1     0     0   502   501  0.000000000E+00  0.000000000E+00  9.916200351E+02  9.916200351E+02  0.000000000E+00  0.00000E+00  9.000E+00
       1    -1     0     0   501     0  0.000000000E+00  0.000000000E+00 -2.105790791E+02  2.105790791E+02  0.000000000E+00  0.00000E+00  9.000E+00
      25     1     1     2     0     0 -3.800696865E+02 -1.793482738E+02  4.069234292E+02  5.981893071E+02  1.250000000E+02  0.00000E+00  9.000E+00
      25     1     1     2     0     0  3.608593873E+02  1.366220478E+02  3.812159634E+02  5.566288638E+02  1.250000000E+02  0.00000E+00  9.000E+00
       1     1     1     2   502     0  1.921029920E+01  4.272622606E+01 -7.098436553E+00  4.738094332E+01  1.000932194E-06  0.00000E+00  9.000E+00
#rwgt            1           1   3.3926600997255918E-002           1       40714           0
</event>
<event>
      5   9999  3.19816E-02  2.17224E+01 -1.00000E+00  1.63462E-01
      21    -1     0     0   511   501  0.000000000E+00  0.000000000E+00  2.762526259E+02  2.762526259E+02  0.000000000E+00  0.00000E+00  9.000E+00
      21    -1     0     0   501   502  0.000000000E+00  0.000000000E+00 -1.015475093E+03  1.015475093E+03  0.000000000E+00  0.00000E+00  9.000E+00
      25     1     1     2     0     0 -3.352400972E+01 -4.771718061E+02 -5.952707044E+02  7.738145794E+02  1.250000000E+02  0.00000E+00  9.000E+00
      25     1     1     2     0     0  2.312114867E+01  4.581024092E+02 -1.334641291E+02  4.937915335E+02  1.250000000E+02  0.00000E+00  9.000E+00
      21     1     1     2   511   502  1.040286105E+01  1.906939688E+01 -1.048763366E+01  2.412160598E+01  2.384185791E-07  0.00000E+00  9.000E+00
#rwgt            1           1   2.7519375019534172E-002           1       40883           0
</event>
<event>
      5   9999  3.19816E-02  1.50064E+01 -1.00000E+00  1.77366E-01
      21    -1     0     0   502   501  0.000000000E+00  0.000000000E+00  2.648186752E+02  2.648186752E+02  0.000000000E+00  0.00000E+00  9.000E+00
      21    -1     0     0   512   502  0.000000000E+00  0.000000000E+00 -1.562402320E+02  1.562402320E+02  0.000000000E+00  0.00000E+00  9.000E+00
      25     1     1     2     0     0 -1.071199124E+02  1.013928604E+02  6.153979619E+01  2.028973491E+02  1.250000000E+02  0.00000E+00  9.000E+00
      25     1     1     2     0     0  1.014634118E+02 -1.152923132E+02  4.341839367E+01  2.027246860E+02  1.250000000E+02  0.00000E+00  9.000E+00
      21     1     1     2   512   501  5.656500565E+00  1.389945277E+01  3.620253272E+00  1.543687209E+01  9.424321831E-08  0.00000E+00  9.000E+00
#rwgt            1           1   2.7290427033961916E-002           1       41075           0
</event>
<event>
      5   9999  3.19816E-02  4.27453E+02 -1.00000E+00  1.00825E-01
      21    -1     0     0   502   501  0.000000000E+00  0.000000000E+00  9.012955776E+02  9.012955776E+02  0.000000000E+00  0.00000E+00  9.000E+00
       5    -1     0     0   501     0  0.000000000E+00  0.000000000E+00 -1.415785230E+03  1.415785230E+03  0.000000000E+00  0.00000E+00  9.000E+00
      25     1     1     2     0     0  1.110015714E+02  2.858880948E+02  6.403159225E+02  7.208903052E+02  1.250000000E+02  0.00000E+00  9.000E+00
      25     1     1     2     0     0 -5.251217305E+02 -3.918152653E+02 -6.115210855E+02  9.049061123E+02  1.250000000E+02  0.00000E+00  9.000E+00
       5     1     1     2   502     0  4.141201591E+02  1.059271705E+02 -5.432844891E+02  6.912843899E+02  7.629394531E-06  0.00000E+00  9.000E+00
#rwgt            1           1   3.6102574641461167E-002           1       41209           0
</event>
<event>
      5   9999  3.19816E-02  2.03364E+01 -1.00000E+00  1.65774E-01
      21    -1     0     0   502   501  0.000000000E+00  0.000000000E+00  1.085843378E+03  1.085843378E+03  0.000000000E+00  0.00000E+00  9.000E+00
      21    -1     0     0   501   511  0.000000000E+00  0.000000000E+00 -9.914036376E+02  9.914036376E+02  0.000000000E+00  0.00000E+00  9.000E+00
      25     1     1     2     0     0 -6.428276308E+02 -1.451131578E+02 -3.352972730E+02  7.498896271E+02  1.250000000E+02  0.00000E+00  9.000E+00
      25     1     1     2     0     0  6.377190727E+02  1.647974790E+02  7.502768786E+02  1.006173056E+03  1.250000000E+02  0.00000E+00  9.000E+00
      21     1     1     2   502   511  5.108558147E+00 -1.968432126E+01 -3.205398653E+02  3.211843320E+02  0.000000000E+00  0.00000E+00  9.000E+00
#rwgt            1           1   3.4292804838477263E-002           1       41259           0
</event>
<event>
      5   9999  3.19816E-02  4.65725E+01 -1.00000E+00  1.40858E-01
      21    -1     0     0   502   501  0.000000000E+00  0.000000000E+00  6.020801442E+02  6.020801442E+02  0.000000000E+00  0.00000E+00  9.000E+00
       2    -1     0     0   501     0  0.000000000E+00  0.000000000E+00 -3.876281830E+02  3.876281830E+02  0.000000000E+00  0.00000E+00  9.000E+00
      25     1     1     2     0     0 -1.410865539E+02  1.491330832E+02 -3.247685313E+01  2.425403846E+02  1.250000000E+02  0.00000E+00  9.000E+00
      25     1     1     2     0     0  1.839364544E+02 -1.308879658E+02  4.608812620E+02  5.282052788E+02  1.250000000E+02  0.00000E+00  9.000E+00
       2     1     1     2   502     0 -4.284990043E+01 -1.824511738E+01 -2.139524476E+02  2.189626638E+02  2.697398305E-06  0.00000E+00  9.000E+00
#rwgt            1           1   3.1618749416624133E-002           1       41509           0
</event>
<event>
      5   9999  3.19816E-02  7.66112E+01 -1.00000E+00  1.29266E-01
      21    -1     0     0   502   511  0.000000000E+00  0.000000000E+00  1.515840928E+03  1.515840928E+03  0.000000000E+00  0.00000E+00  9.000E+00
      21    -1     0     0   501   502  0.000000000E+00  0.000000000E+00 -4.708018908E+02  4.708018908E+02  0.000000000E+00  0.00000E+00  9.000E+00
      25     1     1     2     0     0  3.046652918E+02 -5.560808387E+02  1.075462447E+03  1.254707661E+03  1.250000000E+02  0.00000E+00  9.000E+00
      25     1     1     2     0     0 -3.374055269E+02  4.868178638E+02 -1.167520732E+02  6.165145324E+02  1.250000000E+02  0.00000E+00  9.000E+00
      21     1     1     2   501   511  3.274023512E+01  6.926297487E+01  8.632866309E+01  1.154206253E+02  9.536743164E-07  0.00000E+00  9.000E+00
#rwgt            1           1   2.6243951519521823E-002           1       41625           0
</event>
<event>
      5   9999  3.19816E-02  2.10900E+01 -1.00000E+00  1.64490E-01
      21    -1     0     0   502   501  0.000000000E+00  0.000000000E+00  6.104243199E+02  6.104243199E+02  0.000000000E+00  0.00000E+00  9.000E+00
      21    -1     0     0   512   502  0.000000000E+00  0.000000000E+00 -1.957016543E+02  1.957016543E+02  0.000000000E+00  0.00000E+00  9.000E+00
      25     1     1     2     0     0  2.199648632E+02 -6.046743455E+01  4.325319540E+02  5.047273947E+02  1.250000000E+02  0.00000E+00  9.000E+00
      25     1     1     2     0     0 -2.378265627E+02  7.168110883E+01 -2.480835468E+01  2.791775595E+02  1.250000000E+02  0.00000E+00  9.000E+00
      21     1     1     2   512   501  1.786169954E+01 -1.121367429E+01  6.999066221E+00  2.222101999E+01  4.915124924E-07  0.00000E+00  9.000E+00
#rwgt            1           1   2.5732359379755095E-002           1       41735           0
</event>
<event>
      5   9999  3.19816E-02  5.32688E+01 -1.00000E+00  1.37524E-01
      21    -1     0     0   502   501  0.000000000E+00  0.000000000E+00  1.881454977E+02  1.881454977E+02  0.000000000E+00  0.00000E+00  9.000E+00
       2    -1     0     0   501     0  0.000000000E+00  0.000000000E+00 -3.716179652E+02  3.716179652E+02  0.000000000E+00  0.00000E+00  9.000E+00
      25     1     1     2     0     0  5.805052340E+00  1.865024247E+02 -8.411847492E+01  2.398286281E+02  1.250000000E+02  0.00000E+00  9.000E+00
      25     1     1     2     0     0  4.336965685E+01 -1.660229683E+02 -5.914979725E+00  2.123782949E+02  1.250000000E+02  0.00000E+00  9.000E+00
       2     1     1     2   502     0 -4.917470920E+01 -2.047945638E+01 -9.343901288E+01  1.075565399E+02  1.907348633E-06  0.00000E+00  9.000E+00
#rwgt            1           1   2.7147784843165677E-002           1       41925           0
</event>
<event>
      5   9999  3.19816E-02  1.35583E+03 -1.00000E+00  8.79262E-02
      21    -1     0     0   502   501  0.000000000E+00  0.000000000E+00  2.955177808E+03  2.955177808E+03  0.000000000E+00  0.00000E+00  9.000E+00
      21    -1     0     0   511   502  0.000000000E+00  0.000000000E+00 -1.743223359E+03  1.743223359E+03  0.000000000E+00  0.00000E+00  9.000E+00
      25     1     1     2     0     0  9.867820851E+01  3.996060777E+02  8.138802367E+01  4.378029427E+02  1.250000000E+02  0.00000E+00  9.000E+00
      25     1     1     2     0     0 -7.000670904E+01  9.559165419E+02  2.284260729E+03  2.480352687E+03  1.250000000E+02  0.00000E+00  9.000E+00
      21     1     1     2   511   501 -2.867149947E+01 -1.355522620E+03 -1.153694304E+03  1.780245537E+03  2.642899792E-05  0.00000E+00  9.000E+00
#rwgt            2          11   4.9936520916708251E-004           1       42325           0
</event>
<event>
      5   9999  3.19816E-02  5.11887E+01 -1.00000E+00  1.38496E-01
      21    -1     0     0   512   501  0.000000000E+00  0.000000000E+00  3.267015367E+02  3.267015367E+02  0.000000000E+00  0.00000E+00  9.000E+00
      21    -1     0     0   501   502  0.000000000E+00  0.000000000E+00 -5.615064727E+02  5.615064727E+02  0.000000000E+00  0.00000E+00  9.000E+00
      25     1     1     2     0     0  3.018304874E+02  2.437200044E+02 -2.710503103E+01  4.084859439E+02  1.250000000E+02  0.00000E+00  9.000E+00
      25     1     1     2     0     0 -2.517642105E+02 -2.543804849E+02 -1.977326868E+02  4.275720573E+02  1.250000000E+02  0.00000E+00  9.000E+00
      21     1     1     2   512   502 -5.006627683E+01  1.066048050E+01 -9.967218181E+00  5.215000823E+01  1.046057270E-06  0.00000E+00  9.000E+00
#rwgt            1           1   2.9567812956490001E-002           1       42345           0
</event>
<event>
      5   9999  3.19816E-02  2.09314E+02 -1.00000E+00  1.10933E-01
      21    -1     0     0   502   501  0.000000000E+00  0.000000000E+00  7.127706961E+02  7.127706961E+02  0.000000000E+00  0.00000E+00  9.000E+00
       2    -1     0     0   501     0  0.000000000E+00  0.000000000E+00 -2.097309636E+03  2.097309636E+03  0.000000000E+00  0.00000E+00  9.000E+00
      25     1     1     2     0     0 -8.479935630E+02 -1.978579800E+02 -1.618163539E+03  1.841824938E+03  1.250000000E+02  0.00000E+00  9.000E+00
      25     1     1     2     0     0  7.019624990E+02  4.789984101E+01  2.529290974E+02  7.580526848E+02  1.250000000E+02  0.00000E+00  9.000E+00
       2     1     1     2   502     0  1.460310640E+02  1.499581390E+02 -1.930449768E+01  2.102027087E+02  3.053247565E-06  0.00000E+00  9.000E+00
#rwgt            1           1   2.5277531343314074E-002           1       42457           0
</event>
<event>
      5   9999  3.19816E-02  3.70362E+01 -1.00000E+00  1.46945E-01
      21    -1     0     0   502   501  0.000000000E+00  0.000000000E+00  5.537998498E+02  5.537998498E+02  0.000000000E+00  0.00000E+00  9.000E+00
      21    -1     0     0   511   502  0.000000000E+00  0.000000000E+00 -2.436588747E+02  2.436588747E+02  0.000000000E+00  0.00000E+00  9.000E+00
      25     1     1     2     0     0  2.805292144E+02 -6.501654114E+01  1.336472997E+02  3.411896708E+02  1.250000000E+02  0.00000E+00  9.000E+00
      25     1     1     2     0     0 -2.473270575E+02  4.860631120E+01  2.484457262E+02  3.753445427E+02  1.250000000E+02  0.00000E+00  9.000E+00
      21     1     1     2   511   501 -3.320215689E+01  1.641022994E+01 -7.195205080E+01  8.092451101E+01  0.000000000E+00  0.00000E+00  9.000E+00
#rwgt            1           1   2.7776299160811323E-002           1       42524           0
</event>
<event>
      5   9999  3.19816E-02  1.68054E+02 -1.00000E+00  1.14470E-01
      21    -1     0     0   502   501  0.000000000E+00  0.000000000E+00  1.833232559E+03  1.833232559E+03  0.000000000E+00  0.00000E+00  9.000E+00
      21    -1     0     0   512   502  0.000000000E+00  0.000000000E+00 -7.872677756E+01  7.872677756E+01  0.000000000E+00  0.00000E+00  9.000E+00
      25     1     1     2     0     0 -1.158264319E+00  1.326115037E+02  9.782342702E+01  2.068370744E+02  1.250000000E+02  0.00000E+00  9.000E+00
      25     1     1     2     0     0 -4.841093903E+01  2.796584324E+01  1.336679865E+03  1.343675470E+03  1.250000000E+02  0.00000E+00  9.000E+00
      21     1     1     2   512   501  4.956920335E+01 -1.605773469E+02  3.200024895E+02  3.614467921E+02  3.814697266E-06  0.00000E+00  9.000E+00
#rwgt            1           1   2.9568920716280027E-002           1       42672           0
</event>
<event>
      5   9999  3.19816E-02  1.98767E+02 -1.00000E+00  1.11746E-01
      21    -1     0     0   502   511  0.000000000E+00  0.000000000E+00  2.212132356E+03  2.212132356E+03  0.000000000E+00  0.00000E+00  9.000E+00
      21    -1     0     0   501   502  0.000000000E+00  0.000000000E+00 -6.457152048E+02  6.457152048E+02  0.000000000E+00  0.00000E+00  9.000E+00
      25     1     1     2     0     0 -5.195680844E+02 -5.452697062E+02  5.225603476E+01  7.652618768E+02  1.250000000E+02  0.00000E+00  9.000E+00
      25     1     1     2     0     0  3.338280267E+02  4.744957761E+02  2.900040520E+01  5.941829823E+02  1.250000000E+02  0.00000E+00  9.000E+00
      21     1     1     2   501   511  1.857400577E+02  7.077393008E+01  1.485160711E+03  1.498402701E+03  2.157918644E-05  0.00000E+00  9.000E+00
#rwgt            1           1   3.3518676091134188E-002           1       42718           0
</event>
<event>
      5   9999  3.19816E-02  1.68803E+02 -1.00000E+00  1.14397E-01
      21    -1     0     0   512   501  0.000000000E+00  0.000000000E+00  6.012844060E+02  6.012844060E+02  0.000000000E+00  0.00000E+00  9.000E+00
      21    -1     0     0   501   502  0.000000000E+00  0.000000000E+00 -3.013322372E+03  3.013322372E+03  0.000000000E+00  0.00000E+00  9.000E+00
      25     1     1     2     0     0  2.399284808E+02  7.071159551E+02  2.011366070E+02  7.833642732E+02  1.250000000E+02  0.00000E+00  9.000E+00
      25     1     1     2     0     0 -3.266844490E+02 -5.623133291E+02 -2.574176580E+03  2.657993430E+03  1.250000000E+02  0.00000E+00  9.000E+00
      21     1     1     2   512   502  8.675596812E+01 -1.448026260E+02 -3.899799325E+01  1.732490750E+02  2.185142372E-06  0.00000E+00  9.000E+00
#rwgt            2          11   1.3627904456079861E-002           1       42853           0
</event>
<event>
      5   9999  3.19816E-02  1.00106E+01 -1.00000E+00  1.95704E-01
      21    -1     0     0   502   511  0.000000000E+00  0.000000000E+00  6.251109171E+02  6.251109171E+02  0.000000000E+00  0.00000E+00  9.000E+00
      21    -1     0     0   501   502  0.000000000E+00  0.000000000E+00 -2.599128566E+02  2.599128566E+02  0.000000000E+00  0.00000E+00  9.000E+00
      25     1     1     2     0     0 -3.615928563E+02  4.362867248E+01  1.797231430E+02  4.249450116E+02  1.250000000E+02  0.00000E+00  9.000E+00
      25     1     1     2     0     0  3.655638435E+02 -5.281795837E+01  1.412463666E+02  4.147314751E+02  1.250000000E+02  0.00000E+00  9.000E+00
      21     1     1     2   501   511 -3.970987183E+00  9.189285890E+00  4.422855089E+01  4.534728689E+01  6.743495762E-07  0.00000E+00  9.000E+00
#rwgt            1           1   2.9708166332442772E-002           1       42918           0
</event>
<event>
      5   9999  3.19816E-02  9.63396E+00 -1.00000E+00  1.97648E-01
      21    -1     0     0   502   501  0.000000000E+00  0.000000000E+00  1.601129842E+02  1.601129842E+02  0.000000000E+00  0.00000E+00  9.000E+00
      21    -1     0     0   501   512  0.000000000E+00  0.000000000E+00 -1.971227383E+03  1.971227383E+03  0.000000000E+00  0.00000E+00  9.000E+00
      25     1     1     2     0     0 -3.736331646E+02 -3.598206122E+02 -5.986081026E+02  8.018910619E+02  1.250000000E+02  0.00000E+00  9.000E+00
      25     1     1     2     0     0  3.651121816E+02  3.643157141E+02 -1.154402402E+03  1.270552144E+03  1.250000000E+02  0.00000E+00  9.000E+00
      21     1     1     2   502   512  8.520982964E+00 -4.495101902E+00 -5.810389457E+01  5.889716169E+01  6.743495762E-07  0.00000E+00  9.000E+00
#rwgt            1           1   1.0835414652086931E-002           1       43250           0
</event>
<event>
      5   9999  3.19816E-02  1.76119E+01 -1.00000E+00  1.71058E-01
      21    -1     0     0   502   511  0.000000000E+00  0.000000000E+00  5.647214254E+02  5.647214254E+02  0.000000000E+00  0.00000E+00  9.000E+00
      21    -1     0     0   501   502  0.000000000E+00  0.000000000E+00 -1.044776566E+02  1.044776566E+02  0.000000000E+00  0.00000E+00  9.000E+00
      25     1     1     2     0     0  8.489559297E+01 -1.692573441E+02  1.825955541E+02  2.912412172E+02  1.250000000E+02  0.00000E+00  9.000E+00
      25     1     1     2     0     0 -7.123783577E+01  1.803768968E+02  2.243323411E+02  3.218084111E+02  1.250000000E+02  0.00000E+00  9.000E+00
      21     1     1     2   501   511 -1.365775720E+01 -1.111955274E+01  5.331587345E+01  5.614945366E+01  0.000000000E+00  0.00000E+00  9.000E+00
#rwgt            1           1   3.3279570549829107E-002           1       43662           0
</event>
<event>
      5   9999  3.19816E-02  9.56118E+01 -1.00000E+00  1.24711E-01
      21    -1     0     0   502   501  0.000000000E+00  0.000000000E+00  7.855137606E+01  7.855137606E+01  0.000000000E+00  0.00000E+00  9.000E+00
      21    -1     0     0   501   512  0.000000000E+00  0.000000000E+00 -2.054907775E+03  2.054907775E+03  0.000000000E+00  0.00000E+00  9.000E+00
      25     1     1     2     0     0 -7.263529863E+01 -2.557422241E+02 -1.085605429E+03  1.124652889E+03  1.250000000E+02  0.00000E+00  9.000E+00
      25     1     1     2     0     0  1.644469198E+02  2.824302351E+02 -5.261476953E+02  6.318750069E+02  1.250000000E+02  0.00000E+00  9.000E+00
      21     1     1     2   502   512 -9.181162118E+01 -2.668801102E+01 -3.646032741E+02  3.769312552E+02  0.000000000E+00  0.00000E+00  9.000E+00
#rwgt            2          11   2.9251273982224186E-003           1       43971           0
</event>
<event>
      5   9999  3.19816E-02  1.54312E+02 -1.00000E+00  1.15908E-01
       2    -1     0     0   502     0  0.000000000E+00  0.000000000E+00  4.572824495E+03  4.572824495E+03  0.000000000E+00  0.00000E+00  9.000E+00
      21    -1     0     0   501   502  0.000000000E+00  0.000000000E+00 -2.647530463E+01  2.647530463E+01  0.000000000E+00  0.00000E+00  9.000E+00
      25     1     1     2     0     0  1.306302457E+02 -2.017159362E+02  1.234147369E+03  1.263526141E+03  1.250000000E+02  0.00000E+00  9.000E+00
      25     1     1     2     0     0 -1.747722892E+02  5.385214770E+01  1.406823171E+03  1.424156537E+03  1.250000000E+02  0.00000E+00  9.000E+00
       2     1     1     2   501     0  4.414204355E+01  1.478637885E+02  1.905378651E+03  1.911617123E+03  2.157918644E-05  0.00000E+00  9.000E+00
#rwgt            1           1   5.7267820809935095E-002           1       44006           0
</event>
<event>
      5   9999  3.19816E-02  5.05445E+01 -1.00000E+00  1.38808E-01
      21    -1     0     0   502   511  0.000000000E+00  0.000000000E+00  7.227907478E+02  7.227907478E+02  0.000000000E+00  0.00000E+00  9.000E+00
      21    -1     0     0   501   502  0.000000000E+00  0.000000000E+00 -1.953895114E+02  1.953895114E+02  0.000000000E+00  0.00000E+00  9.000E+00
      25     1     1     2     0     0  1.192332737E+02 -2.877600039E+02  2.902005178E+02  4.436932881E+02  1.250000000E+02  0.00000E+00  9.000E+00
      25     1     1     2     0     0 -1.578898759E+02  2.551960547E+02  1.194289519E+02  3.463271773E+02  1.250000000E+02  0.00000E+00  9.000E+00
      21     1     1     2   501   511  3.865660223E+01  3.256394922E+01  1.177717668E+02  1.281597937E+02  1.907348633E-06  0.00000E+00  9.000E+00
#rwgt            1           1   2.0857750970869497E-002           1       44086           0
</event>
<event>
      5   9999  3.19816E-02  2.31648E+01 -1.00000E+00  1.61272E-01
      21    -1     0     0   502   501  0.000000000E+00  0.000000000E+00  5.443286913E+02  5.443286913E+02  0.000000000E+00  0.00000E+00  9.000E+00
      21    -1     0     0   501   512  0.000000000E+00  0.000000000E+00 -2.073504389E+02  2.073504389E+02  0.000000000E+00  0.00000E+00  9.000E+00
      25     1     1     2     0     0  3.206414364E+01 -2.225092952E+02  1.705398617E+02  3.086216781E+02  1.250000000E+02  0.00000E+00  9.000E+00
      25     1     1     2     0     0 -2.924913516E+01  2.455024002E+02  2.396232813E+02  3.662939493E+02  1.250000000E+02  0.00000E+00  9.000E+00
      21     1     1     2   502   512 -2.815008486E+00 -2.299310498E+01 -7.318489062E+01  7.676350281E+01  0.000000000E+00  0.00000E+00  9.000E+00
#rwgt            1           1   2.9231245156370864E-002           1       44215           0
</event>
<event>
      5   9999  3.19816E-02  1.21007E+02 -1.00000E+00  1.20214E-01
      21    -1     0     0   502   501  0.000000000E+00  0.000000000E+00  7.459266976E+02  7.459266976E+02  0.000000000E+00  0.00000E+00  9.000E+00
      21    -1     0     0   501   511  0.000000000E+00  0.000000000E+00 -1.844737529E+03  1.844737529E+03  0.000000000E+00  0.00000E+00  9.000E+00
      25     1     1     2     0     0  3.840521135E+02 -3.913845689E+02  5.428593576E+02  7.816643710E+02  1.250000000E+02  0.00000E+00  9.000E+00
      25     1     1     2     0     0 -2.974602820E+02  4.759101289E+02 -9.788894323E+02  1.135263225E+03  1.250000000E+02  0.00000E+00  9.000E+00
      21     1     1     2   502   511 -8.659183146E+01 -8.452555997E+01 -6.627807563E+02  6.737366299E+02  7.629394531E-06  0.00000E+00  9.000E+00
#rwgt            1           1   3.1572399689560271E-002           1       44379           0
</event>
<event>
      5   9999  3.19816E-02  5.90364E+01 -1.00000E+00  1.35080E-01
      21    -1     0     0   502   501  0.000000000E+00  0.000000000E+00  6.755828715E+02  6.755828715E+02  0.000000000E+00  0.00000E+00  9.000E+00
       2    -1     0     0   501     0  0.000000000E+00  0.000000000E+00 -8.508536563E+02  8.508536563E+02  0.000000000E+00  0.00000E+00  9.000E+00
      25     1     1     2     0     0  3.532308812E+02  1.042442376E+02  3.044777375E+02  4.939338105E+02  1.250000000E+02  0.00000E+00  9.000E+00
      25     1     1     2     0     0 -2.969115058E+02 -1.219479921E+02  1.671798392E+02  3.828862151E+02  1.250000000E+02  0.00000E+00  9.000E+00
       2     1     1     2   502     0 -5.631937536E+01  1.770375451E+01 -6.469283615E+02  6.496165022E+02  1.321449896E-05  0.00000E+00  9.000E+00
#rwgt            1           1   2.8109955322397281E-002           1       44460           0
</event>
<event>
      5   9999  3.19816E-02  4.72883E+01 -1.00000E+00  1.40471E-01
      21    -1     0     0   511   501  0.000000000E+00  0.000000000E+00  5.510455311E+01  5.510455311E+01  0.000000000E+00  0.00000E+00  9.000E+00
      21    -1     0     0   501   502  0.000000000E+00  0.000000000E+00 -1.069881967E+03  1.069881967E+03  0.000000000E+00  0.00000E+00  9.000E+00
      25     1     1     2     0     0  5.233379059E+01 -1.789562389E+02 -4.154740108E+02  4.722370323E+02  1.250000000E+02  0.00000E+00  9.000E+00
      25     1     1     2     0     0 -1.156417754E+01  1.549975380E+02 -5.470411416E+02  5.822688190E+02  1.250000000E+02  0.00000E+00  9.000E+00
      21     1     1     2   511   502 -4.076961305E+01  2.395870082E+01 -5.226226156E+01  7.048066881E+01  0.000000000E+00  0.00000E+00  9.000E+00
#rwgt            1           1   2.9301371488332874E-002           1       44535           0
</event>
<event>
      5   9999  3.19816E-02  1.93077E+02 -1.00000E+00  1.12208E-01
      21    -1     0     0   502   512  0.000000000E+00  0.000000000E+00  7.445808481E+02  7.445808481E+02  0.000000000E+00  0.00000E+00  9.000E+00
      21    -1     0     0   501   502  0.000000000E+00  0.000000000E+00 -9.624920802E+02  9.624920802E+02  0.000000000E+00  0.00000E+00  9.000E+00
      25     1     1     2     0     0  6.790210448E+02  2.436285837E+02  1.549022745E+02  7.483609962E+02  1.250000000E+02  0.00000E+00  9.000E+00
      25     1     1     2     0     0 -4.938234337E+02 -1.890339139E+02 -4.910070367E+02  7.323307411E+02  1.250000000E+02  0.00000E+00  9.000E+00
      21     1     1     2   501   512 -1.851976110E+02 -5.459466975E+01  1.181935301E+02  2.263811910E+02  3.568322551E-06  0.00000E+00  9.000E+00
#rwgt            1           1   3.2321824986324708E-002           1       44643           0
</event>
<event>
      5   9999  3.19816E-02  8.15733E+01 -1.00000E+00  1.27941E-01
      21    -1     0     0   502   501  0.000000000E+00  0.000000000E+00  1.289256358E+03  1.289256358E+03  0.000000000E+00  0.00000E+00  9.000E+00
      21    -1     0     0   511   502  0.000000000E+00  0.000000000E+00 -4.269786296E+02  4.269786296E+02  0.000000000E+00  0.00000E+00  9.000E+00
      25     1     1     2     0     0  1.793735424E+02 -3.008652125E+02 -1.287879515E+02  3.935810974E+02  1.250000000E+02  0.00000E+00  9.000E+00
      25     1     1     2     0     0 -2.050154498E+02  2.234268818E+02  1.121685411E+03  1.168654811E+03  1.250000000E+02  0.00000E+00  9.000E+00
      21     1     1     2   511   501  2.564190747E+01  7.743833069E+01 -1.306197305E+02  1.539990795E+02  1.907348633E-06  0.00000E+00  9.000E+00
#rwgt            1           1   2.7996088177641858E-002           1       44705           0
</event>
<event>
      5   9999  3.19816E-02  3.48994E+01 -1.00000E+00  1.48613E-01
      21    -1     0     0   512   501  0.000000000E+00  0.000000000E+00  2.123972286E+03  2.123972286E+03  0.000000000E+00  0.00000E+00  9.000E+00
      21    -1     0     0   501   502  0.000000000E+00  0.000000000E+00 -1.255215518E+01  1.255215518E+01  0.000000000E+00  0.00000E+00  9.000E+00
      25     1     1     2     0     0  3.806614630E+01 -7.349933364E+01  7.734709833E+02  7.878664516E+02  1.250000000E+02  0.00000E+00  9.000E+00
      25     1     1     2     0     0 -1.450863944E+01  4.775029771E+01  1.040942908E+03  1.049608370E+03  1.250000000E+02  0.00000E+00  9.000E+00
      21     1     1     2   512   502 -2.355750686E+01  2.574903592E+01  2.970062385E+02  2.990496191E+02  5.394796609E-06  0.00000E+00  9.000E+00
#rwgt            1           1   7.7760347348644482E-002           1       44807           0
</event>
<event>
      5   9999  3.19816E-02  1.58745E+01 -1.00000E+00  1.75096E-01
      21    -1     0     0   511   501  0.000000000E+00  0.000000000E+00  2.772394520E+02  2.772394520E+02  0.000000000E+00  0.00000E+00  9.000E+00
      21    -1     0     0   501   502  0.000000000E+00  0.000000000E+00 -1.123434590E+03  1.123434590E+03  0.000000000E+00  0.00000E+00  9.000E+00
      25     1     1     2     0     0  3.467407458E+02 -2.194432797E+02 -2.817058622E+02  5.131936190E+02  1.250000000E+02  0.00000E+00  9.000E+00
      25     1     1     2     0     0 -3.457564477E+02  2.035993026E+02 -6.644836140E+02  7.862338522E+02  1.250000000E+02  0.00000E+00  9.000E+00
      21     1     1     2   511   502 -9.842980614E-01  1.584397708E+01  9.999433812E+01  1.012465708E+02  3.568322551E-06  0.00000E+00  9.000E+00
#rwgt            1           1   3.5528366763523549E-002           1       44924           0
</event>
<event>
      5   9999  3.19816E-02  1.16886E+02 -1.00000E+00  1.20855E-01
      21    -1     0     0   512   501  0.000000000E+00  0.000000000E+00  4.277308102E+02  4.277308102E+02  0.000000000E+00  0.00000E+00  9.000E+00
      21    -1     0     0   501   502  0.000000000E+00  0.000000000E+00 -3.858910681E+02  3.858910681E+02  0.000000000E+00  0.00000E+00  9.000E+00
      25     1     1     2     0     0 -1.405732715E+02 -3.221060305E+02  8.373049333E+01  3.822943042E+02  1.250000000E+02  0.00000E+00  9.000E+00
      25     1     1     2     0     0  1.854873163E+02  2.141932911E+02 -5.190949017E+01  3.140125883E+02  1.250000000E+02  0.00000E+00  9.000E+00
      21     1     1     2   512   502 -4.491404487E+01  1.079127394E+02  1.001873891E+01  1.173149858E+02  2.026557922E-06  0.00000E+00  9.000E+00
#rwgt            2          11   3.6035565740492269E-003           1       45138           0
</event>
<event>
      5   9999  3.19816E-02  1.37274E+01 -1.00000E+00  1.81089E-01
      21    -1     0     0   511   501  0.000000000E+00  0.000000000E+00  1.213614404E+02  1.213614404E+02  0.000000000E+00  0.00000E+00  9.000E+00
      21    -1     0     0   501   502  0.000000000E+00  0.000000000E+00 -6.363233012E+02  6.363233012E+02  0.000000000E+00  0.00000E+00  9.000E+00
      25     1     1     2     0     0  1.653342159E+02  2.870162846E+01 -2.181369698E+02  3.022712755E+02  1.250000000E+02  0.00000E+00  9.000E+00
      25     1     1     2     0     0 -1.785602506E+02 -2.502558949E+01 -3.430417436E+02  4.072010328E+02  1.250000000E+02  0.00000E+00  9.000E+00
      21     1     1     2   511   502  1.322603466E+01 -3.676038972E+00  4.621685259E+01  4.821243323E+01  6.743495762E-07  0.00000E+00  9.000E+00
#rwgt            1           1   2.6861337633297882E-002           1       45158           0
</event>
<event>
      5   9999  3.19816E-02  7.06132E+00 -1.00000E+00  2.15020E-01
      21    -1     0     0   502   512  0.000000000E+00  0.000000000E+00  3.008441278E+01  3.008441278E+01  0.000000000E+00  0.00000E+00  9.000E+00
      21    -1     0     0   501   502  0.000000000E+00  0.000000000E+00 -1.077084715E+03  1.077084715E+03  0.000000000E+00  0.00000E+00  9.000E+00
      25     1     1     2     0     0 -6.401911143E+01 -1.062144666E+02 -4.358653737E+02  4.700889102E+02  1.250000000E+02  0.00000E+00  9.000E+00
      25     1     1     2     0     0  6.064737643E+01  1.000101385E+02 -5.995720529E+02  6.235316982E+02  1.250000000E+02  0.00000E+00  9.000E+00
      21     1     1     2   501   512  3.371734997E+00  6.204328083E+00 -1.156287575E+01  1.354851946E+01  2.384185791E-07  0.00000E+00  9.000E+00
#rwgt            1           1   3.1540875876106447E-002           1       45270           0
</event>
<event>
      5   9999  3.19816E-02  3.18256E+02 -1.00000E+00  1.04765E-01
       3    -1     0     0   502     0  0.000000000E+00  0.000000000E+00  3.077562710E+03  3.077562710E+03  0.000000000E+00  0.00000E+00  9.000E+00
      21    -1     0     0   501   502  0.000000000E+00  0.000000000E+00 -8.421265842E+01  8.421265842E+01  0.000000000E+00  0.00000E+00  9.000E+00
      25     1     1     2     0     0 -1.116331083E+02 -9.904089987E+01  2.715794740E+02  3.341428758E+02  1.250000000E+02  0.00000E+00  9.000E+00
      25     1     1     2     0     0 -1.523581699E+02  2.767929750E+02  6.690476676E+02  7.503846643E+02  1.250000000E+02  0.00000E+00  9.000E+00
       3     1     1     2   501     0  2.639912782E+02 -1.777520751E+02  2.052722910E+03  2.077247828E+03  0.000000000E+00  0.00000E+00  9.000E+00
#rwgt            1           1   2.5376976329529271E-002           1       45470           0
</event>
<event>
      5   9999  3.19816E-02  3.93511E+02 -1.00000E+00  1.01900E-01
      21    -1     0     0   502   501  0.000000000E+00  0.000000000E+00  1.633332689E+02  1.633332689E+02  0.000000000E+00  0.00000E+00  9.000E+00
       1    -1     0     0   501     0  0.000000000E+00  0.000000000E+00 -2.725335318E+03  2.725335318E+03  0.000000000E+00  0.00000E+00  9.000E+00
      25     1     1     2     0     0 -4.625718265E+01 -3.099387129E+01  2.199551023E+01  1.385970760E+02  1.250000000E+02  0.00000E+00  9.000E+00
      25     1     1     2     0     0 -2.951471342E+02  2.266816748E+02 -2.047115788E+03  2.084419454E+03  1.250000000E+02  0.00000E+00  9.000E+00
       1     1     1     2   502     0  3.414043169E+02 -1.956878035E+02 -5.368817719E+02  6.656520570E+02  1.078959322E-05  0.00000E+00  9.000E+00
#rwgt            2          12   4.3674062200389909E-004           1       45677           0
</event>
<event>
      5   9999  3.19816E-02  3.84613E+02 -1.00000E+00  1.02201E-01
       1    -1     0     0   502     0  0.000000000E+00  0.000000000E+00  2.449207706E+03  2.449207706E+03  0.000000000E+00  0.00000E+00  9.000E+00
      21    -1     0     0   501   502  0.000000000E+00  0.000000000E+00 -3.380878050E+02  3.380878050E+02  0.000000000E+00  0.00000E+00  9.000E+00
      25     1     1     2     0     0  3.121820640E+02  1.891560523E+02  8.542172373E+02  9.373098430E+02  1.250000000E+02  0.00000E+00  9.000E+00
      25     1     1     2     0     0 -5.746621075E+02  9.196855185E+01  6.645100448E+01  5.989453133E+02  1.250000000E+02  0.00000E+00  9.000E+00
       1     1     1     2   501     0  2.624800436E+02 -2.811246042E+02  1.190451659E+03  1.251040355E+03  1.525878906E-05  0.00000E+00  9.000E+00
#rwgt            2          17   5.1976327673241153E-004           1       45696           0
</event>
<event>
      5   9999  3.19816E-02  1.14987E+01 -1.00000E+00  1.88998E-01
      21    -1     0     0   502   511  0.000000000E+00  0.000000000E+00  1.128688177E+03  1.128688177E+03  0.000000000E+00  0.00000E+00  9.000E+00
      21    -1     0     0   501   502  0.000000000E+00  0.000000000E+00 -1.245747780E+02  1.245747780E+02  0.000000000E+00  0.00000E+00  9.000E+00
      25     1     1     2     0     0 -3.309735946E+02 -9.770441833E+01  3.873083118E+02  5.335938550E+02  1.250000000E+02  0.00000E+00  9.000E+00
      25     1     1     2     0     0  3.212617840E+02  9.154811689E+01  5.779432609E+02  6.791418146E+02  1.250000000E+02  0.00000E+00  9.000E+00
      21     1     1     2   501   511  9.711810665E+00  6.156301442E+00  3.886182672E+01  4.052728574E+01  6.743495762E-07  0.00000E+00  9.000E+00
#rwgt            1           1   2.5326589924907272E-002           1       45715           0
</event>
<event>
      5   9999  3.19816E-02  3.10769E+01 -1.00000E+00  1.51984E-01
      21    -1     0     0   502   501  0.000000000E+00  0.000000000E+00  4.722185040E+02  4.722185040E+02  0.000000000E+00  0.00000E+00  9.000E+00
       2    -1     0     0   501     0  0.000000000E+00  0.000000000E+00 -1.000410886E+03  1.000410886E+03  0.000000000E+00  0.00000E+00  9.000E+00
      25     1     1     2     0     0  1.735272967E+02  1.066327118E+02  1.339233369E+02  2.739392598E+02  1.250000000E+02  0.00000E+00  9.000E+00
      25     1     1     2     0     0 -1.922642237E+02 -8.183950702E+01  2.127074423E+02  3.233151599E+02  1.250000000E+02  0.00000E+00  9.000E+00
       2     1     1     2   502     0  1.873692703E+01 -2.479320476E+01 -8.748231615E+02  8.753749707E+02  1.078959322E-05  0.00000E+00  9.000E+00
#rwgt            1           1   2.9165439105277500E-002           1       45989           0
</event>
<event>
      5   9999  3.19816E-02  4.87487E+01 -1.00000E+00  1.39706E-01
      21    -1     0     0   502   511  0.000000000E+00  0.000000000E+00  6.667568070E+02  6.667568070E+02  0.000000000E+00  0.00000E+00  9.000E+00
      21    -1     0     0   501   502  0.000000000E+00  0.000000000E+00 -2.672370631E+02  2.672370631E+02  0.000000000E+00  0.00000E+00  9.000E+00
      25     1     1     2     0     0  1.071852482E+02  1.157834831E+02 -1.761088062E+02  2.674580416E+02  1.250000000E+02  0.00000E+00  9.000E+00
      25     1     1     2     0     0 -1.073362675E+02 -6.703499587E+01  1.352194070E+02  2.234369106E+02  1.250000000E+02  0.00000E+00  9.000E+00
      21     1     1     2   501   511  1.510193439E-01 -4.874848728E+01  4.404091430E+02  4.430989180E+02  0.000000000E+00  0.00000E+00  9.000E+00
#rwgt            1           1   2.4751592837678131E-002           1       46128           0
</event>
<event>
      5   9999  3.19816E-02  1.15476E+01 -1.00000E+00  1.88800E-01
      21    -1     0     0   502   501  0.000000000E+00  0.000000000E+00  1.042674076E+03  1.042674076E+03  0.000000000E+00  0.00000E+00  9.000E+00
       1    -1     0     0   501     0  0.000000000E+00  0.000000000E+00 -9.020268956E+02  9.020268956E+02  0.000000000E+00  0.00000E+00  9.000E+00
      25     1     1     2     0     0  4.950306141E+02  5.889297311E+02  3.015238832E+02  8.357243500E+02  1.250000000E+02  0.00000E+00  9.000E+00
      25     1     1     2     0     0 -4.860476432E+02 -5.816735126E+02  1.626191660E+02  7.852747162E+02  1.250000000E+02  0.00000E+00  9.000E+00
       1     1     1     2   502     0 -8.982970854E+00 -7.256218511E+00 -3.234958688E+02  3.237019054E+02  7.629394531E-06  0.00000E+00  9.000E+00
#rwgt            1           1   3.5190731093581763E-002           1       46213           0
</event>
<event>
      5   9999  3.19816E-02  1.66496E+01 -1.00000E+00  1.73219E-01
      21    -1     0     0   502   501  0.000000000E+00  0.000000000E+00  1.607994942E+02  1.607994942E+02  0.000000000E+00  0.00000E+00  9.000E+00
      21    -1     0     0   501   511  0.000000000E+00  0.000000000E+00 -5.158969619E+02  5.158969619E+02  0.000000000E+00  0.00000E+00  9.000E+00
      25     1     1     2     0     0  2.420656759E+02 -6.977912152E+01 -1.239220931E+02  3.073216595E+02  1.250000000E+02  0.00000E+00  9.000E+00
      25     1     1     2     0     0 -2.293727847E+02  5.900416769E+01 -2.007518828E+02  3.346934189E+02  1.250000000E+02  0.00000E+00  9.000E+00
      21     1     1     2   502   511 -1.269289113E+01  1.077495383E+01 -3.042349176E+01  3.468137780E+01  4.768371582E-07  0.00000E+00  9.000E+00
#rwgt            1           1   2.5068202931384145E-002           1       46479           0
</event>
<event>
      5   9999  3.19816E-02  3.60891E+02 -1.00000E+00  1.03048E-01
      21    -1     0     0   502   501  0.000000000E+00  0.000000000E+00  4.195304447E+02  4.195304447E+02  0.000000000E+00  0.00000E+00  9.000E+00
       2    -1     0     0   501     0  0.000000000E+00  0.000000000E+00 -1.694502315E+03  1.694502315E+03  0.000000000E+00  0.00000E+00  9.000E+00
      25     1     1     2     0     0  3.970205615E+02 -1.672045829E+01 -8.888745398E+02  9.816454795E+02  1.250000000E+02  0.00000E+00  9.000E+00
      25     1     1     2     0     0 -3.168207481E+02  3.685868475E+02  1.149987830E+02  5.148605352E+02  1.250000000E+02  0.00000E+00  9.000E+00
       2     1     1     2   502     0 -8.019981336E+01 -3.518663892E+02 -5.010961136E+02  6.175267451E+02  0.000000000E+00  0.00000E+00  9.000E+00
#rwgt            1           1   3.2600550977373466E-002           1       46628           0
</event>
<event>
      5   9999  3.19816E-02  1.32141E+01 -1.00000E+00  1.82732E-01
      21    -1     0     0   502   501  0.000000000E+00  0.000000000E+00  1.474789147E+02  1.474789147E+02  0.000000000E+00  0.00000E+00  9.000E+00
      21    -1     0     0   501   511  0.000000000E+00  0.000000000E+00 -1.822047608E+02  1.822047608E+02  0.000000000E+00  0.00000E+00  9.000E+00
      25     1     1     2     0     0  8.352009271E+01  2.834257127E+01 -8.499941832E+00  1.532193077E+02  1.250000000E+02  0.00000E+00  9.000E+00
      25     1     1     2     0     0 -7.367963563E+01 -3.716180898E+01 -3.082074563E+00  1.498138443E+02  1.250000000E+02  0.00000E+00  9.000E+00
      21     1     1     2   502   511 -9.840457089E+00  8.819237708E+00 -2.314382975E+01  2.665052354E+01  0.000000000E+00  0.00000E+00  9.000E+00
#rwgt            1           1   4.7777717479749529E-002           1       46694           0
</event>
<event>
      5   9999  3.19816E-02  2.12222E+02 -1.00000E+00  1.10718E-01
      21    -1     0     0   502   501  0.000000000E+00  0.000000000E+00  9.335409885E+01  9.335409885E+01  0.000000000E+00  0.00000E+00  9.000E+00
      21    -1     0     0   501   512  0.000000000E+00  0.000000000E+00 -2.549895944E+03  2.549895944E+03  0.000000000E+00  0.00000E+00  9.000E+00
      25     1     1     2     0     0 -2.655292397E+00 -1.480730354E+02 -9.999119439E+01  2.180731834E+02  1.250000000E+02  0.00000E+00  9.000E+00
      25     1     1     2     0     0  1.456908316E+02  3.048493649E+02 -1.524573900E+03  1.566559775E+03  1.250000000E+02  0.00000E+00  9.000E+00
      21     1     1     2   502   512 -1.430355392E+02 -1.567763295E+02 -8.319767511E+02  8.586170843E+02  1.078959322E-05  0.00000E+00  9.000E+00
#rwgt            2          11   2.0328386411656808E-003           1       46994           0
</event>
<event>
      5   9999  3.19816E-02  7.68278E+01 -1.00000E+00  1.29206E-01
      21    -1     0     0   511   501  0.000000000E+00  0.000000000E+00  1.236369675E+03  1.236369675E+03  0.000000000E+00  0.00000E+00  9.000E+00
      21    -1     0     0   501   502  0.000000000E+00  0.000000000E+00 -1.195921449E+02  1.195921449E+02  0.000000000E+00  0.00000E+00  9.000E+00
      25     1     1     2     0     0  7.304442358E+01 -1.024658199E+02  5.394013958E+02  5.678147566E+02  1.250000000E+02  0.00000E+00  9.000E+00
      25     1     1     2     0     0 -2.910984260E+01  3.943997770E+01 -5.935169836E+01  1.468009498E+02  1.250000000E+02  0.00000E+00  9.000E+00
      21     1     1     2   511   502 -4.393458098E+01  6.302584216E+01  6.367278327E+02  6.413461133E+02  1.321449896E-05  0.00000E+00  9.000E+00
#rwgt            1           1   2.9606459699318331E-002           1       47074           0
</event>
<event>
      5   9999  3.19816E-02  2.34929E+01 -1.00000E+00  1.60800E-01
      21    -1     0     0   502   512  0.000000000E+00  0.000000000E+00  1.605988848E+03  1.605988848E+03  0.000000000E+00  0.00000E+00  9.000E+00
      21    -1     0     0   501   502  0.000000000E+00  0.000000000E+00 -2.600472115E+02  2.600472115E+02  0.000000000E+00  0.00000E+00  9.000E+00
      25     1     1     2     0     0 -8.810370508E+00  5.098755442E+02  7.081351604E+02  8.815503948E+02  1.250000000E+02  0.00000E+00  9.000E+00
      25     1     1     2     0     0  3.124961325E+01 -5.168324027E+02  2.370107968E+02  5.830020486E+02  1.250000000E+02  0.00000E+00  9.000E+00
      21     1     1     2   501   512 -2.243924275E+01  6.956858507E+00  4.007956793E+02  4.014836162E+02  0.000000000E+00  0.00000E+00  9.000E+00
#rwgt            1           1   2.8809472883400335E-002           1       47136           0
</event>
<event>
      5   9999  3.19816E-02  3.42979E+01 -1.00000E+00  1.49108E-01
      21    -1     0     0   502   501  0.000000000E+00  0.000000000E+00  7.599310120E+01  7.599310120E+01  0.000000000E+00  0.00000E+00  9.000E+00
      21    -1     0     0   511   502  0.000000000E+00  0.000000000E+00 -1.541821610E+03  1.541821610E+03  0.000000000E+00  0.00000E+00  9.000E+00
      25     1     1     2     0     0 -1.212742507E+02  2.096062300E+02 -6.173266890E+02  6.748032724E+02  1.250000000E+02  0.00000E+00  9.000E+00
      25     1     1     2     0     0  9.635330393E+01 -2.331708101E+02 -3.784047569E+02  4.716648661E+02  1.250000000E+02  0.00000E+00  9.000E+00
      21     1     1     2   511   501  2.492094676E+01  2.356458017E+01 -4.700970634E+02  4.713465731E+02  5.394796609E-06  0.00000E+00  9.000E+00
#rwgt            1           1   2.6773468759539589E-002           1       47332           0
</event>
<event>
      5   9999  3.19816E-02  1.74017E+02 -1.00000E+00  1.13893E-01
      21    -1     0     0   502   501  0.000000000E+00  0.000000000E+00  3.555384490E+02  3.555384490E+02  0.000000000E+00  0.00000E+00  9.000E+00
      21    -1     0     0   512   502  0.000000000E+00  0.000000000E+00 -1.148942332E+03  1.148942332E+03  0.000000000E+00  0.00000E+00  9.000E+00
      25     1     1     2     0     0 -5.219073083E+01  4.625110228E+02 -1.161169457E+02  4.957302327E+02  1.250000000E+02  0.00000E+00  9.000E+00
      25     1     1     2     0     0 -1.024506282E+02 -5.423103083E+02 -4.529576049E+02  7.248394261E+02  1.250000000E+02  0.00000E+00  9.000E+00
      21     1     1     2   512   501  1.546413591E+02  7.979928558E+01 -2.243293324E+02  2.839111221E+02  2.697398305E-06  0.00000E+00  9.000E+00
#rwgt            1           1   2.6557771634282731E-002           1       47452           0
</event>
<event>
      5   9999  3.19816E-02  1.23580E+01 -1.00000E+00  1.85695E-01
      21    -1     0     0   502   511  0.000000000E+00  0.000000000E+00  1.978882337E+02  1.978882337E+02  0.000000000E+00  0.00000E+00  9.000E+00
      21    -1     0     0   501   502  0.000000000E+00  0.000000000E+00 -1.643154205E+02  1.643154205E+02  0.000000000E+00  0.00000E+00  9.000E+00
      25     1     1     2     0     0 -1.195118146E+02 -7.792243133E+00 -1.201034610E+01  1.735310961E+02  1.250000000E+02  0.00000E+00  9.000E+00
      25     1     1     2     0     0  1.097212637E+02  2.512667112E-01  3.037316382E+01  1.690749772E+02  1.250000000E+02  0.00000E+00  9.000E+00
      21     1     1     2   501   511  9.790550972E+00  7.540976422E+00  1.520999548E+01  1.959758088E+01  3.371747881E-07  0.00000E+00  9.000E+00
#rwgt            1           1   3.4253097245034038E-002           1       47521           0
</event>
<event>
      5   9999  3.19816E-02  9.63769E+02 -1.00000E+00  9.13776E-02
      -3    -1     0     0     0   501  0.000000000E+00  0.000000000E+00  1.144482111E+03  1.144482111E+03  0.000000000E+00  0.00000E+00  9.000E+00
      21    -1     0     0   501   502  0.000000000E+00  0.000000000E+00 -1.863475397E+03  1.863475397E+03  0.000000000E+00  0.00000E+00  9.000E+00
      25     1     1     2     0     0 -3.019353626E+02 -8.030658860E+02  2.690488982E+02  9.077951807E+02  1.250000000E+02  0.00000E+00  9.000E+00
      25     1     1     2     0     0  1.566980431E+02 -1.496964763E+02 -1.101669482E+03  1.129718531E+03  1.250000000E+02  0.00000E+00  9.000E+00
      -3     1     1     2     0   502  1.452373196E+02  9.527623624E+02  1.136272978E+02  9.704437959E+02  1.758488552E-05  0.00000E+00  9.000E+00
#rwgt            2           3   1.7211769708629588E-005           1       47712           0
</event>
<event>
      5   9999  3.19816E-02  5.24032E+01 -1.00000E+00  1.37922E-01
      21    -1     0     0   502   501  0.000000000E+00  0.000000000E+00  1.552697959E+03  1.552697959E+03  0.000000000E+00  0.00000E+00  9.000E+00
      21    -1     0     0   511   502  0.000000000E+00  0.000000000E+00 -1.030104368E+03  1.030104368E+03  0.000000000E+00  0.00000E+00  9.000E+00
      25     1     1     2     0     0  6.458559893E+01 -2.243142932E+01 -8.053484670E+02  8.178542791E+02  1.250000000E+02  0.00000E+00  9.000E+00
      25     1     1     2     0     0 -1.991419411E+01 -4.964994260E+00  1.540665883E+03  1.545864674E+03  1.250000000E+02  0.00000E+00  9.000E+00
      21     1     1     2   511   501 -4.467140482E+01  2.739642358E+01 -2.127238256E+02  2.190833732E+02  2.697398305E-06  0.00000E+00  9.000E+00
#rwgt            1           1   2.9391841956367647E-002           1       47731           0
</event>
<event>
      5   9999  3.19816E-02  6.08743E+01 -1.00000E+00  1.34369E-01
      21    -1     0     0   512   501  0.000000000E+00  0.000000000E+00  1.207087081E+02  1.207087081E+02  0.000000000E+00  0.00000E+00  9.000E+00
      21    -1     0     0   501   502  0.000000000E+00  0.000000000E+00 -1.538854688E+03  1.538854688E+03  0.000000000E+00  0.00000E+00  9.000E+00
      25     1     1     2     0     0  2.328901525E+02  1.130983888E+02 -1.291759688E+03  1.323365845E+03  1.250000000E+02  0.00000E+00  9.000E+00
      25     1     1     2     0     0 -1.728974982E+02 -1.027752831E+02 -5.639494334E+01  2.434372472E+02  1.250000000E+02  0.00000E+00  9.000E+00
      21     1     1     2   512   502 -5.999265428E+01 -1.032310572E+01 -6.999134855E+01  9.276030375E+01  9.536743164E-07  0.00000E+00  9.000E+00
#rwgt            1           1   2.9136995650127204E-002           1       47867           0
</event>
<event>
      5   9999  3.19816E-02  1.77977E+01 -1.00000E+00  1.70661E-01
      21    -1     0     0   502   501  0.000000000E+00  0.000000000E+00  9.803388559E+01  9.803388559E+01  0.000000000E+00  0.00000E+00  9.000E+00
      21    -1     0     0   501   511  0.000000000E+00  0.000000000E+00 -1.259954283E+03  1.259954283E+03  0.000000000E+00  0.00000E+00  9.000E+00
      25     1     1     2     0     0  1.416963058E+02 -2.051994455E+02 -1.810556869E+02  3.325519768E+02  1.250000000E+02  0.00000E+00  9.000E+00
      25     1     1     2     0     0 -1.549073137E+02  1.932735607E+02 -9.512523060E+02  9.908869233E+02  1.250000000E+02  0.00000E+00  9.000E+00
      21     1     1     2   502   511  1.321100783E+01  1.192588474E+01 -2.961240486E+01  3.454926883E+01  6.743495762E-07  0.00000E+00  9.000E+00
#rwgt            1           1   2.7358956262085669E-002           1       47943           0
</event>
<event>
      5   9999  3.19816E-02  1.45883E+02 -1.00000E+00  1.16875E-01
      21    -1     0     0   502   512  0.000000000E+00  0.000000000E+00  1.357912573E+03  1.357912573E+03  0.000000000E+00  0.00000E+00  9.000E+00
      21    -1     0     0   501   502  0.000000000E+00  0.000000000E+00 -6.280069767E+02  6.280069767E+02  0.000000000E+00  0.00000E+00  9.000E+00
      25     1     1     2     0     0 -1.056454497E+02  4.390808295E+02 -4.050518116E+02  6.193907539E+02  1.250000000E+02  0.00000E+00  9.000E+00
      25     1     1     2     0     0  1.376618567E+02 -5.814076908E+02  9.723298070E+02  1.148057465E+03  1.250000000E+02  0.00000E+00  9.000E+00
      21     1     1     2   501   512 -3.201640694E+01  1.423268613E+02  1.626276010E+02  2.184713307E+02  2.697398305E-06  0.00000E+00  9.000E+00
#rwgt            1           1   2.2897853530028347E-002           1       48197           0
</event>
<event>
      5   9999  3.19816E-02  2.61366E+01 -1.00000E+00  1.57318E-01
       1    -1     0     0   502     0  0.000000000E+00  0.000000000E+00  1.626738400E+03  1.626738400E+03  0.000000000E+00  0.00000E+00  9.000E+00
      21    -1     0     0   501   502  0.000000000E+00  0.000000000E+00 -7.277166950E+02  7.277166950E+02  0.000000000E+00  0.00000E+00  9.000E+00
      25     1     1     2     0     0 -8.077641113E+01  4.785294905E+02 -1.952894495E+01  5.015193730E+02  1.250000000E+02  0.00000E+00  9.000E+00
      25     1     1     2     0     0  1.062827817E+02 -4.728243124E+02 -3.329801954E+02  6.011319910E+02  1.250000000E+02  0.00000E+00  9.000E+00
       1     1     1     2   501     0 -2.550637053E+01 -5.705178126E+00  1.251530845E+03  1.251803731E+03  2.642899792E-05  0.00000E+00  9.000E+00
#rwgt            1           1   2.7568597714921855E-002           1       48326           0
</event>
<event>
      5   9999  3.19816E-02  1.04258E+02 -1.00000E+00  1.23019E-01
      21    -1     0     0   502   501  0.000000000E+00  0.000000000E+00  4.599459780E+02  4.599459780E+02  0.000000000E+00  0.00000E+00  9.000E+00
       3    -1     0     0   501     0  0.000000000E+00  0.000000000E+00 -3.140773408E+03  3.140773408E+03  0.000000000E+00  0.00000E+00  9.000E+00
      25     1     1     2     0     0  3.345583978E+00  4.081769281E+02  1.402781569E+02  4.493579407E+02  1.250000000E+02  0.00000E+00  9.000E+00
      25     1     1     2     0     0  7.562428936E+01 -4.762465717E+02 -2.140004419E+02  5.421724996E+02  1.250000000E+02  0.00000E+00  9.000E+00
       3     1     1     2   502     0 -7.896987334E+01  6.806964362E+01 -2.607105145E+03  2.609188946E+03  3.051757812E-05  0.00000E+00  9.000E+00
#rwgt            1           1   2.9818235423879316E-002           1       48574           0
</event>
<event>
      5   9999  3.19816E-02  2.64251E+01 -1.00000E+00  1.56968E-01
      21    -1     0     0   502   501  0.000000000E+00  0.000000000E+00  3.847573959E+02  3.847573959E+02  0.000000000E+00  0.00000E+00  9.000E+00
      21    -1     0     0   511   502  0.000000000E+00  0.000000000E+00 -4.654942417E+02  4.654942417E+02  0.000000000E+00  0.00000E+00  9.000E+00
      25     1     1     2     0     0  1.735810673E+02  2.632378633E+02  1.785148251E+02  3.832976681E+02  1.250000000E+02  0.00000E+00  9.000E+00
      25     1     1     2     0     0 -1.766860103E+02 -2.894799342E+02 -2.352744527E+02  4.312721260E+02  1.250000000E+02  0.00000E+00  9.000E+00
      21     1     1     2   511   501  3.104942976E+00  2.624207091E+01 -2.397721824E+01  3.568184343E+01  0.000000000E+00  0.00000E+00  9.000E+00
#rwgt            1           1   2.7850807896054004E-002           1       48627           0
</event>
<event>
      5   9999  3.19816E-02  1.79714E+02 -1.00000E+00  1.13365E-01
      21    -1     0     0   502   512  0.000000000E+00  0.000000000E+00  3.960646190E+02  3.960646190E+02  0.000000000E+00  0.00000E+00  9.000E+00
      21    -1     0     0   501   502  0.000000000E+00  0.000000000E+00 -2.683358214E+02  2.683358214E+02  0.000000000E+00  0.00000E+00  9.000E+00
      25     1     1     2     0     0 -4.127839386E+01  2.702833926E+01 -4.881426211E+01  1.429764635E+02  1.250000000E+02  0.00000E+00  9.000E+00
      25     1     1     2     0     0  2.190524527E+02 -5.336533847E+01 -1.568904051E+01  2.582692052E+02  1.250000000E+02  0.00000E+00  9.000E+00
      21     1     1     2   501   512 -1.777740588E+02  2.633699921E+01  1.922321002E+02  2.631547717E+02  7.136645101E-06  0.00000E+00  9.000E+00
#rwgt            1           1   2.7878590783128657E-002           1       48832           0
</event>
<event>
      5   9999  3.19816E-02  2.13003E+02 -1.00000E+00  1.10661E-01
      21    -1     0     0   502   501  0.000000000E+00  0.000000000E+00  9.037260040E+02  9.037260040E+02  0.000000000E+00  0.00000E+00  9.000E+00
       1    -1     0     0   501     0  0.000000000E+00  0.000000000E+00 -6.076288732E+02  6.076288732E+02  0.000000000E+00  0.00000E+00  9.000E+00
      25     1     1     2     0     0 -7.774054202E+01 -1.700023997E+01  3.749458554E+01  1.528510516E+02  1.250000000E+02  0.00000E+00  9.000E+00
      25     1     1     2     0     0 -2.419284216E+01  2.040289761E+02 -5.084326638E+02  5.624427885E+02  1.250000000E+02  0.00000E+00  9.000E+00
       1     1     1     2   502     0  1.019333842E+02 -1.870287361E+02  7.670352090E+02  7.960610371E+02  0.000000000E+00  0.00000E+00  9.000E+00
#rwgt            2          12   2.0143792501522096E-005           1       49008           0
</event>
<event>
      5   9999  3.19816E-02  1.47326E+02 -1.00000E+00  1.16704E-01
       2    -1     0     0   502     0  0.000000000E+00  0.000000000E+00  5.897448705E+02  5.897448705E+02  0.000000000E+00  0.00000E+00  9.000E+00
      21    -1     0     0   501   502  0.000000000E+00  0.000000000E+00 -5.461222771E+02  5.461222771E+02  0.000000000E+00  0.00000E+00  9.000E+00
      25     1     1     2     0     0  2.640155430E+02  9.747758016E+01 -2.846989486E+01  3.092597945E+02  1.250000000E+02  0.00000E+00  9.000E+00
      25     1     1     2     0     0 -2.034901994E+02 -2.317964099E+02 -2.863662697E+02  4.390540711E+02  1.250000000E+02  0.00000E+00  9.000E+00
       2     1     1     2   501     0 -6.052534354E+01  1.343188297E+02  3.584587580E+02  3.875532820E+02  6.607249480E-06  0.00000E+00  9.000E+00
#rwgt            1           1   2.7694987486597065E-002           1       49042           0
</event>
<event>
      5   9999  3.19816E-02  3.84766E+02 -1.00000E+00  1.02195E-01
      21    -1     0     0   502   501  0.000000000E+00  0.000000000E+00  1.676671678E+03  1.676671678E+03  0.000000000E+00  0.00000E+00  9.000E+00
      21    -1     0     0   511   502  0.000000000E+00  0.000000000E+00 -3.348784854E+02  3.348784854E+02  0.000000000E+00  0.00000E+00  9.000E+00
      25     1     1     2     0     0 -1.020275696E+02  3.355119409E+02  1.234391603E+03  1.289312033E+03  1.250000000E+02  0.00000E+00  9.000E+00
      25     1     1     2     0     0  2.844520513E+02  3.260089715E+00  1.299715575E+02  3.368103375E+02  1.250000000E+02  0.00000E+00  9.000E+00
      21     1     1     2   511   501 -1.824244817E+02 -3.387720306E+02 -2.256996825E+01  3.854277931E+02  5.057621821E-06  0.00000E+00  9.000E+00
#rwgt            2          11   3.7985782288575583E-003           1       49075           0
</event>
<event>
      5   9999  3.19816E-02  4.51517E+01 -1.00000E+00  1.41651E-01
      21    -1     0     0   502   512  0.000000000E+00  0.000000000E+00  4.987591619E+02  4.987591619E+02  0.000000000E+00  0.00000E+00  9.000E+00
      21    -1     0     0   501   502  0.000000000E+00  0.000000000E+00 -1.042794821E+02  1.042794821E+02  0.000000000E+00  0.00000E+00  9.000E+00
      25     1     1     2     0     0 -1.682971713E+01  1.547709007E+02  1.264960648E+02  2.363546604E+02  1.250000000E+02  0.00000E+00  9.000E+00
      25     1     1     2     0     0  5.838568791E+01 -1.371136145E+02  1.681536926E+02  2.571180588E+02  1.250000000E+02  0.00000E+00  9.000E+00
      21     1     1     2   501   512 -4.155597078E+01 -1.765728620E+01  9.982992248E+01  1.095659248E+02  0.000000000E+00  0.00000E+00  9.000E+00
#rwgt            1           1   2.9531322347747527E-002           1       49095           0
</event>
<event>
      5   9999  3.19816E-02  7.41268E+01 -1.00000E+00  1.29973E-01
       2    -1     0     0   502     0  0.000000000E+00  0.000000000E+00  2.678277896E+03  2.678277896E+03  0.000000000E+00  0.00000E+00  9.000E+00
      21    -1     0     0   501   502  0.000000000E+00  0.000000000E+00 -7.880897518E+01  7.880897518E+01  0.000000000E+00  0.00000E+00  9.000E+00
      25     1     1     2     0     0  1.721071815E+02 -1.260793916E+01  1.408299436E+03  1.424328665E+03  1.250000000E+02  0.00000E+00  9.000E+00
      25     1     1     2     0     0 -1.034462308E+02 -1.532878730E+01  2.576635895E+01  1.649999989E+02  1.250000000E+02  0.00000E+00  9.000E+00
       2     1     1     2   501     0 -6.866095066E+01  2.793672645E+01  1.165403125E+03  1.167758208E+03  0.000000000E+00  0.00000E+00  9.000E+00
#rwgt            1           1   3.0017894153171500E-002           1       49187           0
</event>
<event>
      5   9999  3.19816E-02  1.95509E+02 -1.00000E+00  1.12008E-01
      21    -1     0     0   502   511  0.000000000E+00  0.000000000E+00  4.392493830E+02  4.392493830E+02  0.000000000E+00  0.00000E+00  9.000E+00
      21    -1     0     0   501   502  0.000000000E+00  0.000000000E+00 -4.989251693E+02  4.989251693E+02  0.000000000E+00  0.00000E+00  9.000E+00
      25     1     1     2     0     0 -1.707378843E+02 -2.091071485E+02  2.565530164E+02  3.928379754E+02  1.250000000E+02  0.00000E+00  9.000E+00
      25     1     1     2     0     0  7.975397461E+01  3.605874445E+01 -3.147849734E+02  3.498221105E+02  1.250000000E+02  0.00000E+00  9.000E+00
      21     1     1     2   501   511  9.098390967E+01  1.730484040E+02 -1.443829299E+00  1.955144665E+02  2.426007893E-06  0.00000E+00  9.000E+00
#rwgt            2          11   4.1266445326241736E-003           1       49286           0
</event>
<event>
      5   9999  3.19816E-02  3.41084E+02 -1.00000E+00  1.03812E-01
      21    -1     0     0   502   501  0.000000000E+00  0.000000000E+00  1.685451190E+02  1.685451190E+02  0.000000000E+00  0.00000E+00  9.000E+00
       2    -1     0     0   501     0  0.000000000E+00  0.000000000E+00 -3.944785596E+03  3.944785596E+03  0.000000000E+00  0.00000E+00  9.000E+00
      25     1     1     2     0     0  1.473355662E+01 -5.271375475E+02 -7.515269939E+02  9.265575504E+02  1.250000000E+02  0.00000E+00  9.000E+00
      25     1     1     2     0     0  3.262994875E+02  5.330408238E+02 -2.284704217E+03  2.371940605E+03  1.250000000E+02  0.00000E+00  9.000E+00
       2     1     1     2   502     0 -3.410330441E+02 -5.903276295E+00 -7.400092660E+02  8.148325593E+02  0.000000000E+00  0.00000E+00  9.000E+00
#rwgt            2          13   3.8248983221600506E-003           1       49351           0
</event>
<event>
      5   9999  3.19816E-02  6.30940E+01 -1.00000E+00  1.33547E-01
      21    -1     0     0   502   511  0.000000000E+00  0.000000000E+00  8.040068778E+02  8.040068778E+02  0.000000000E+00  0.00000E+00  9.000E+00
      21    -1     0     0   501   502  0.000000000E+00  0.000000000E+00 -1.535225619E+03  1.535225619E+03  0.000000000E+00  0.00000E+00  9.000E+00
      25     1     1     2     0     0 -9.709560499E+02 -2.479311610E+02  6.293826888E+01  1.011835825E+03  1.250000000E+02  0.00000E+00  9.000E+00
      25     1     1     2     0     0  9.152173240E+02  2.774953459E+02 -8.131215491E+02  1.261514198E+03  1.250000000E+02  0.00000E+00  9.000E+00
      21     1     1     2   501   511  5.573872584E+01 -2.956418485E+01  1.896453939E+01  6.588247368E+01  6.307962682E-07  0.00000E+00  9.000E+00
#rwgt            1           1   3.1563057201694042E-002           1       49370           0
</event>
<event>
      5   9999  3.43504E-02  2.09219E+01 -1.00000E+00  1.64770E-01
      21    -1     0     0   512   501  0.000000000E+00  0.000000000E+00  1.307494161E+03  1.307494161E+03  0.000000000E+00  0.00000E+00  9.000E+00
      21    -1     0     0   501   502  0.000000000E+00  0.000000000E+00 -2.454822334E+02  2.454822334E+02  0.000000000E+00  0.00000E+00  9.000E+00
      25     1     1     2     0     0 -2.565757970E+02 -3.071630017E+02  1.115316855E+02  4.338716009E+02  1.250000000E+02  0.00000E+00  9.000E+00
      25     1     1     2     0     0  2.433578331E+02  3.233805970E+02  4.493061042E+02  6.174941463E+02  1.250000000E+02  0.00000E+00  9.000E+00
      21     1     1     2   512   502  1.321796391E+01 -1.621759539E+01  5.011741379E+02  5.016106473E+02  1.078959322E-05  0.00000E+00  9.000E+00
#rwgt            1           1   3.4373500216304420E-002           1       49507           0
</event>
<event>
      5   9999  3.19816E-02  1.08715E+02 -1.00000E+00  1.22218E-01
       2    -1     0     0   502     0  0.000000000E+00  0.000000000E+00  1.033067998E+03  1.033067998E+03  0.000000000E+00  0.00000E+00  9.000E+00
      21    -1     0     0   501   502  0.000000000E+00  0.000000000E+00 -3.079483720E+02  3.079483720E+02  0.000000000E+00  0.00000E+00  9.000E+00
      25     1     1     2     0     0  1.037452673E+02  2.198306831E+02 -1.810712513E+02  3.278725480E+02  1.250000000E+02  0.00000E+00  9.000E+00
      25     1     1     2     0     0 -4.838494485E+01 -3.133939254E+02  7.374746182E+02  8.124350238E+02  1.250000000E+02  0.00000E+00  9.000E+00
       2     1     1     2   501     0 -5.536032245E+01  9.356324229E+01  1.687162589E+02  2.007087981E+02  3.303624740E-06  0.00000E+00  9.000E+00
#rwgt            1           1   2.2370319900412203E-002           1       49632           0
</event>
<event>
      5   9999  3.19816E-02  9.86704E+00 -1.00000E+00  1.96432E-01
      21    -1     0     0   502   511  0.000000000E+00  0.000000000E+00  1.970411484E+02  1.970411484E+02  0.000000000E+00  0.00000E+00  9.000E+00
      21    -1     0     0   501   502  0.000000000E+00  0.000000000E+00 -5.759318300E+02  5.759318300E+02  0.000000000E+00  0.00000E+00  9.000E+00
      25     1     1     2     0     0 -1.562068192E+02  1.896791395E+02  4.090204782E+00  2.757181099E+02  1.250000000E+02  0.00000E+00  9.000E+00
      25     1     1     2     0     0  1.595787001E+02 -1.989521562E+02 -3.918676657E+02  4.839758149E+02  1.250000000E+02  0.00000E+00  9.000E+00
      21     1     1     2   501   511 -3.371880849E+00  9.273016661E+00  8.886779273E+00  1.327905359E+01  3.153981341E-07  0.00000E+00  9.000E+00
#rwgt            1           1   2.8295406722263397E-002           1       49689           0
</event>
<event>
      5   9999  3.19816E-02  4.98017E+01 -1.00000E+00  1.39174E-01
      21    -1     0     0   502   512  0.000000000E+00  0.000000000E+00  3.438564132E+01  3.438564132E+01  0.000000000E+00  0.00000E+00  9.000E+00
      21    -1     0     0   501   502  0.000000000E+00  0.000000000E+00 -2.147090163E+03  2.147090163E+03  0.000000000E+00  0.00000E+00  9.000E+00
      25     1     1     2     0     0 -6.434482658E+01 -2.027491907E+02 -8.055627223E+02  8.424985404E+02  1.250000000E+02  0.00000E+00  9.000E+00
      25     1     1     2     0     0  5.551254381E+01  1.537369180E+02 -1.230429784E+03  1.247517188E+03  1.250000000E+02  0.00000E+00  9.000E+00
      21     1     1     2   501   512  8.832282770E+00  4.901227266E+01 -7.671201599E+01  9.146007592E+01  2.523185073E-06  0.00000E+00  9.000E+00
#rwgt            1           1   8.4131273071003071E-002           1       50041           0
</event>
<event>
      5   9999  3.19816E-02  1.26783E+01 -1.00000E+00  1.84552E-01
      21    -1     0     0   502   501  0.000000000E+00  0.000000000E+00  2.827959182E+03  2.827959182E+03  0.000000000E+00  0.00000E+00  9.000E+00
      21    -1     0     0   501   511  0.000000000E+00  0.000000000E+00 -2.620926592E+02  2.620926592E+02  0.000000000E+00  0.00000E+00  9.000E+00
      25     1     1     2     0     0  3.725481888E+02 -2.551044380E+02  9.306492641E+00  4.685958153E+02  1.250000000E+02  0.00000E+00  9.000E+00
      25     1     1     2     0     0 -3.850534879E+02  2.571916428E+02  2.562821918E+03  2.607315653E+03  1.250000000E+02  0.00000E+00  9.000E+00
      21     1     1     2   502   511  1.250529916E+01 -2.087204754E+00 -6.261887409E+00  1.414037357E+01  3.769728732E-07  0.00000E+00  9.000E+00
#rwgt            1           1   2.9122682990794381E-002           1       50129           0
</event>
<event>
      5   9999  3.19816E-02  4.33272E+01 -1.00000E+00  1.42720E-01
       1    -1     0     0   502     0  0.000000000E+00  0.000000000E+00  1.879501889E+03  1.879501889E+03  0.000000000E+00  0.00000E+00  9.000E+00
      21    -1     0     0   501   502  0.000000000E+00  0.000000000E+00 -5.467170260E+01  5.467170260E+01  0.000000000E+00  0.00000E+00  9.000E+00
      25     1     1     2     0     0 -1.449015362E+02  6.377814809E+01  8.338848823E+02  8.579353731E+02  1.250000000E+02  0.00000E+00  9.000E+00
      25     1     1     2     0     0  1.656940601E+02 -2.576612974E+01  2.180919595E+02  3.021713385E+02  1.250000000E+02  0.00000E+00  9.000E+00
       1     1     1     2   501     0 -2.079252389E+01 -3.801201835E+01  7.728533445E+02  7.740668800E+02  1.078959322E-05  0.00000E+00  9.000E+00
#rwgt            1           1   2.8595123636867056E-002           1       50437           0
</event>
<event>
      5   9999  3.19816E-02  7.78604E+01 -1.00000E+00  1.28922E-01
      21    -1     0     0   502   511  0.000000000E+00  0.000000000E+00  4.826595998E+02  4.826595998E+02  0.000000000E+00  0.00000E+00  9.000E+00
      21    -1     0     0   501   502  0.000000000E+00  0.000000000E+00 -7.332010984E+02  7.332010984E+02  0.000000000E+00  0.00000E+00  9.000E+00
      25     1     1     2     0     0  1.644217863E+02  3.426708450E+02 -5.720532858E+02  6.980886718E+02  1.250000000E+02  0.00000E+00  9.000E+00
      25     1     1     2     0     0 -1.274492860E+02 -2.741487918E+02  2.724766609E+02  4.257574559E+02  1.250000000E+02  0.00000E+00  9.000E+00
      21     1     1     2   501   511 -3.697250033E+01 -6.852205319E+01  4.903512640E+01  9.201457045E+01  1.507891493E-06  0.00000E+00  9.000E+00
#rwgt            1           1   3.0481894963221772E-002           1       50500           0
</event>
<event>
      5   9999  3.19816E-02  3.89240E+01 -1.00000E+00  1.45578E-01
      21    -1     0     0   502   501  0.000000000E+00  0.000000000E+00  1.832167529E+02  1.832167529E+02  0.000000000E+00  0.00000E+00  9.000E+00
      21    -1     0     0   512   502  0.000000000E+00  0.000000000E+00 -5.213041941E+02  5.213041941E+02  0.000000000E+00  0.00000E+00  9.000E+00
      25     1     1     2     0     0 -8.038898838E+00 -5.309739366E+01  1.210937710E+02  1.821336281E+02  1.250000000E+02  0.00000E+00  9.000E+00
      25     1     1     2     0     0 -3.071992001E+01  4.951517303E+01 -1.255798012E+02  1.865227930E+02  1.250000000E+02  0.00000E+00  9.000E+00
      21     1     1     2   512   501  3.875881885E+01  3.582220632E+00 -3.336014110E+02  3.358645259E+02  0.000000000E+00  0.00000E+00  9.000E+00
#rwgt            1           1   2.5708361246053676E-002           1       50630           0
</event>
<event>
      5   9999  3.19816E-02  1.46894E+02 -1.00000E+00  1.16755E-01
      21    -1     0     0   511   501  0.000000000E+00  0.000000000E+00  1.709209267E+03  1.709209267E+03  0.000000000E+00  0.00000E+00  9.000E+00
      21    -1     0     0   501   502  0.000000000E+00  0.000000000E+00 -7.176902887E+02  7.176902887E+02  0.000000000E+00  0.00000E+00  9.000E+00
      25     1     1     2     0     0  8.170601630E+02 -2.192624339E+02 -7.532334514E+01  8.584648689E+02  1.250000000E+02  0.00000E+00  9.000E+00
      25     1     1     2     0     0 -9.491954347E+02  2.834351281E+02  9.728198038E+02  1.394026835E+03  1.250000000E+02  0.00000E+00  9.000E+00
      21     1     1     2   511   502  1.321352717E+02 -6.417269424E+01  9.402251977E+01  1.744078523E+02  3.015782986E-06  0.00000E+00  9.000E+00
#rwgt            1           1   3.0950893867049994E-002           1       50745           0
</event>
<event>
      5   9999  3.19816E-02  3.40093E+02 -1.00000E+00  1.03852E-01
       2    -1     0     0   502     0  0.000000000E+00  0.000000000E+00  3.066381857E+03  3.066381857E+03  0.000000000E+00  0.00000E+00  9.000E+00
      21    -1     0     0   501   502  0.000000000E+00  0.000000000E+00 -2.411388756E+02  2.411388756E+02  0.000000000E+00  0.00000E+00  9.000E+00
      25     1     1     2     0     0 -1.889743900E+02  2.068200446E+02  7.065917968E+02  7.703134546E+02  1.250000000E+02  0.00000E+00  9.000E+00
      25     1     1     2     0     0 -6.144205910E+00  7.173289221E+01 -1.702691619E+02  2.231590164E+02  1.250000000E+02  0.00000E+00  9.000E+00
       2     1     1     2   501     0  1.951185959E+02 -2.785529368E+02  2.288920347E+03  2.314048262E+03  6.103515625E-05  0.00000E+00  9.000E+00
#rwgt            1           1   2.9940628311661287E-002           1       50861           0
</event>
<event>
      5   9999  3.19816E-02  1.64627E+01 -1.00000E+00  1.73659E-01
      21    -1     0     0   502   501  0.000000000E+00  0.000000000E+00  3.565971725E+02  3.565971725E+02  0.000000000E+00  0.00000E+00  9.000E+00
      21    -1     0     0   501   511  0.000000000E+00  0.000000000E+00 -8.271511396E+02  8.271511396E+02  0.000000000E+00  0.00000E+00  9.000E+00
      25     1     1     2     0     0  2.683674796E+02 -6.857003112E+01  2.467917550E+02  3.914768494E+02  1.250000000E+02  0.00000E+00  9.000E+00
      25     1     1     2     0     0 -2.847421882E+02  7.026964456E+01 -6.937703911E+02  7.635170543E+02  1.250000000E+02  0.00000E+00  9.000E+00
      21     1     1     2   502   511  1.637470868E+01 -1.699613440E+00 -2.357533102E+01  2.875440841E+01  0.000000000E+00  0.00000E+00  9.000E+00
#rwgt            1           1   2.8919625341219161E-002           1       50915           0
</event>
<event>
      5   9999  3.19816E-02  4.26459E+02 -1.00000E+00  1.00855E-01
      21    -1     0     0   502   501  0.000000000E+00  0.000000000E+00  5.181299047E+02  5.181299047E+02  0.000000000E+00  0.00000E+00  9.000E+00
       1    -1     0     0   501     0  0.000000000E+00  0.000000000E+00 -1.489114933E+03  1.489114933E+03  0.000000000E+00  0.00000E+00  9.000E+00
      25     1     1     2     0     0 -1.861442449E+02  1.293925335E+02 -4.774772857E+02  5.431405583E+02  1.250000000E+02  0.00000E+00  9.000E+00
      25     1     1     2     0     0  1.085627084E+02 -5.487353682E+02  2.353867993E+02  6.196194891E+02  1.250000000E+02  0.00000E+00  9.000E+00
       1     1     1     2   502     0  7.758153647E+01  4.193428347E+02 -7.288945418E+02  8.444847901E+02  0.000000000E+00  0.00000E+00  9.000E+00
#rwgt            1           1   2.6779576567613390E-002           1       51203           0
</event>
<event>
      5   9999  3.19816E-02  1.07686E+02 -1.00000E+00  1.22399E-01
      21    -1     0     0   502   511  0.000000000E+00  0.000000000E+00  5.319565363E+02  5.319565363E+02  0.000000000E+00  0.00000E+00  9.000E+00
      21    -1     0     0   501   502  0.000000000E+00  0.000000000E+00 -3.766359600E+02  3.766359600E+02  0.000000000E+00  0.00000E+00  9.000E+00
      25     1     1     2     0     0  8.715979565E+00 -1.330498752E+02  3.355989799E+02  3.821386043E+02  1.250000000E+02  0.00000E+00  9.000E+00
      25     1     1     2     0     0  9.845642664E+01  1.435534814E+02 -2.979048848E+02  3.669790054E+02  1.250000000E+02  0.00000E+00  9.000E+00
      21     1     1     2   501   511 -1.071724062E+02 -1.050360623E+01  1.176264811E+02  1.594748866E+02  2.697398305E-06  0.00000E+00  9.000E+00
#rwgt            1           1   2.7294894764968356E-002           1       51243           0
</event>
<event>
      5   9999  3.19816E-02  2.33323E+01 -1.00000E+00  1.61030E-01
      21    -1     0     0   502   501  0.000000000E+00  0.000000000E+00  1.942923665E+03  1.942923665E+03  0.000000000E+00  0.00000E+00  9.000E+00
      21    -1     0     0   501   512  0.000000000E+00  0.000000000E+00 -7.838086067E+02  7.838086067E+02  0.000000000E+00  0.00000E+00  9.000E+00
      25     1     1     2     0     0  3.078904985E+02  4.368498419E+02  1.309177726E+03  1.419579396E+03  1.250000000E+02  0.00000E+00  9.000E+00
      25     1     1     2     0     0 -2.962916952E+02 -4.166047847E+02  4.585900475E+02  6.980531118E+02  1.250000000E+02  0.00000E+00  9.000E+00
      21     1     1     2   502   512 -1.159880330E+01 -2.024505724E+01 -6.086527152E+02  6.090997638E+02  7.629394531E-06  0.00000E+00  9.000E+00
#rwgt            1           1   2.9898168757061534E-002           1       51362           0
</event>
<event>
      5   9999  3.19816E-02  1.35735E+01 -1.00000E+00  1.81572E-01
      21    -1     0     0   502   511  0.000000000E+00  0.000000000E+00  3.677380644E+02  3.677380644E+02  0.000000000E+00  0.00000E+00  9.000E+00
      21    -1     0     0   501   502  0.000000000E+00  0.000000000E+00 -3.447126706E+02  3.447126706E+02  0.000000000E+00  0.00000E+00  9.000E+00
      25     1     1     2     0     0  2.595853899E+02  5.067974461E+01  1.966611307E+02  3.524962574E+02  1.250000000E+02  0.00000E+00  9.000E+00
      25     1     1     2     0     0 -2.687851458E+02 -4.069956135E+01 -1.744581283E+02  3.463560992E+02  1.250000000E+02  0.00000E+00  9.000E+00
      21     1     1     2   501   511  9.199755910E+00 -9.980183253E+00  8.223913777E-01  1.359837836E+01  1.821967849E-07  0.00000E+00  9.000E+00
#rwgt            1           1   3.1043278818138197E-002           1       51569           0
</event>
<event>
      5   9999  3.19816E-02  4.23538E+01 -1.00000E+00  1.43317E-01
      21    -1     0     0   502   501  0.000000000E+00  0.000000000E+00  6.657269551E+02  6.657269551E+02  0.000000000E+00  0.00000E+00  9.000E+00
      21    -1     0     0   501   512  0.000000000E+00  0.000000000E+00 -1.249806695E+03  1.249806695E+03  0.000000000E+00  0.00000E+00  9.000E+00
      25     1     1     2     0     0 -7.813956017E+02 -2.667721410E+02 -9.452782293E+01  8.404207107E+02  1.250000000E+02  0.00000E+00  9.000E+00
      25     1     1     2     0     0  8.234420456E+02  2.616790784E+02 -3.698302280E+02  9.481203194E+02  1.250000000E+02  0.00000E+00  9.000E+00
      21     1     1     2   502   512 -4.204644384E+01  5.093062583E+00 -1.197216890E+02  1.269926200E+02  0.000000000E+00  0.00000E+00  9.000E+00
#rwgt            1           1   3.9385073473208076E-002           1       51831           0
</event>
<event>
      5   9999  3.19816E-02  3.34976E+01 -1.00000E+00  1.49786E-01
      21    -1     0     0   502   501  0.000000000E+00  0.000000000E+00  8.398021958E+01  8.398021958E+01  0.000000000E+00  0.00000E+00  9.000E+00
      21    -1     0     0   511   502  0.000000000E+00  0.000000000E+00 -2.518546117E+03  2.518546117E+03  0.000000000E+00  0.00000E+00  9.000E+00
      25     1     1     2     0     0  2.219179686E+02  9.608487257E+01 -1.929787647E+03  1.948893340E+03  1.250000000E+02  0.00000E+00  9.000E+00
      25     1     1     2     0     0 -2.143082227E+02 -6.346307577E+01 -1.489965153E+02  2.962778052E+02  1.250000000E+02  0.00000E+00  9.000E+00
      21     1     1     2   511   501 -7.609745931E+00 -3.262179681E+01 -3.557817352E+02  3.573551916E+02  3.814697266E-06  0.00000E+00  9.000E+00
#rwgt            1           1   2.6259434258780842E-002           1       51975           0
</event>
<event>
      5   9999  3.19816E-02  5.15540E+00 -1.00000E+00  2.36217E-01
      21    -1     0     0   502   501  0.000000000E+00  0.000000000E+00  2.644772533E+02  2.644772533E+02  0.000000000E+00  0.00000E+00  9.000E+00
      21    -1     0     0   512   502  0.000000000E+00  0.000000000E+00 -1.325884084E+02  1.325884084E+02  0.000000000E+00  0.00000E+00  9.000E+00
      25     1     1     2     0     0  9.494187546E+01  5.524091961E+01 -1.321314024E+01  1.669284457E+02  1.250000000E+02  0.00000E+00  9.000E+00
      25     1     1     2     0     0 -9.953447244E+01 -5.758317341E+01  1.470173022E+02  2.246375307E+02  1.250000000E+02  0.00000E+00  9.000E+00
      21     1     1     2   512   501  4.592596975E+00  2.342253794E+00 -1.915317003E+00  5.499685358E+00  1.519626234E-07  0.00000E+00  9.000E+00
#rwgt            1           1   3.0161202129776663E-002           1       52111           0
</event>
<event>
      5   9999  3.19816E-02  2.59484E+02 -1.00000E+00  1.07681E-01
      21    -1     0     0   502   501  0.000000000E+00  0.000000000E+00  1.258093522E+03  1.258093522E+03  0.000000000E+00  0.00000E+00  9.000E+00
      21    -1     0     0   511   502  0.000000000E+00  0.000000000E+00 -4.378012555E+02  4.378012555E+02  0.000000000E+00  0.00000E+00  9.000E+00
      25     1     1     2     0     0 -1.422957050E+02 -8.812904423E+01 -3.003899796E+01  2.110500829E+02  1.250000000E+02  0.00000E+00  9.000E+00
      25     1     1     2     0     0  3.113691777E+02 -1.087117944E+02  1.081355255E+03  1.137419539E+03  1.250000000E+02  0.00000E+00  9.000E+00
      21     1     1     2   511   501 -1.690734727E+02  1.968408386E+02 -2.310239906E+02  3.474251561E+02  5.394796609E-06  0.00000E+00  9.000E+00
#rwgt            2          11   4.7053115864657512E-003           1       52392           0
</event>
<event>
      5   9999  3.19816E-02  4.65319E+01 -1.00000E+00  1.40880E-01
      21    -1     0     0   502   501  0.000000000E+00  0.000000000E+00  6.393396928E+01  6.393396928E+01  0.000000000E+00  0.00000E+00  9.000E+00
      21    -1     0     0   501   512  0.000000000E+00  0.000000000E+00 -1.058367768E+03  1.058367768E+03  0.000000000E+00  0.00000E+00  9.000E+00
      25     1     1     2     0     0 -1.569944079E+02  7.283610979E+01 -2.030662962E+02  2.946409063E+02  1.250000000E+02  0.00000E+00  9.000E+00
      25     1     1     2     0     0  1.159245952E+02 -9.471051905E+01 -6.098411683E+02  6.402654487E+02  1.250000000E+02  0.00000E+00  9.000E+00
      21     1     1     2   502   512  4.106981272E+01  2.187440926E+01 -1.815263343E+02  1.873953824E+02  0.000000000E+00  0.00000E+00  9.000E+00
#rwgt            1           1   3.1700632049899855E-002           1       52442           0
</event>
<event>
      5   9999  3.19816E-02  1.01628E+01 -1.00000E+00  1.94950E-01
      21    -1     0     0   502   501  0.000000000E+00  0.000000000E+00  1.053323302E+03  1.053323302E+03  0.000000000E+00  0.00000E+00  9.000E+00
      21    -1     0     0   501   511  0.000000000E+00  0.000000000E+00 -3.112720660E+01  3.112720660E+01  0.000000000E+00  0.00000E+00  9.000E+00
      25     1     1     2     0     0  1.172931734E+02 -1.732941561E+01  4.223678646E+02  4.561552480E+02  1.250000000E+02  0.00000E+00  9.000E+00
      25     1     1     2     0     0 -1.155929668E+02  2.734896872E+01  5.876828105E+02  6.124588034E+02  1.250000000E+02  0.00000E+00  9.000E+00
      21     1     1     2   502   511 -1.700206592E+00 -1.001955311E+01  1.214542044E+01  1.583645746E+01  2.384185791E-07  0.00000E+00  9.000E+00
#rwgt            1           1   3.3800919373028405E-002           1       52520           0
</event>
<event>
      5   9999  3.19816E-02  7.42861E+01 -1.00000E+00  1.29927E-01
      21    -1     0     0   502   501  0.000000000E+00  0.000000000E+00  4.606823039E+02  4.606823039E+02  0.000000000E+00  0.00000E+00  9.000E+00
      21    -1     0     0   501   512  0.000000000E+00  0.000000000E+00 -3.262577172E+03  3.262577172E+03  0.000000000E+00  0.00000E+00  9.000E+00
      25     1     1     2     0     0 -5.096902464E+02  3.574041769E+02 -1.232868120E+03  1.386762667E+03  1.250000000E+02  0.00000E+00  9.000E+00
      25     1     1     2     0     0  5.808784670E+02 -3.786330689E+02  5.876713078E+01  7.070087481E+02  1.250000000E+02  0.00000E+00  9.000E+00
      21     1     1     2   502   512 -7.118822063E+01  2.122889203E+01 -1.627793879E+03  1.629488061E+03  0.000000000E+00  0.00000E+00  9.000E+00
#rwgt            1           1   3.2378662637702969E-002           1       52727           0
</event>
<event>
      5   9999  3.19816E-02  7.21718E+01 -1.00000E+00  1.30552E-01
      21    -1     0     0   511   501  0.000000000E+00  0.000000000E+00  1.501541286E+02  1.501541286E+02  0.000000000E+00  0.00000E+00  9.000E+00
      21    -1     0     0   501   502  0.000000000E+00  0.000000000E+00 -2.679392191E+02  2.679392191E+02  0.000000000E+00  0.00000E+00  9.000E+00
      25     1     1     2     0     0 -7.031348835E+01  4.629710089E+01 -4.797129251E+01  1.581570520E+02  1.250000000E+02  0.00000E+00  9.000E+00
      25     1     1     2     0     0  3.112134971E+01 -1.069002195E+02 -8.255996416E+01  1.866476440E+02  1.250000000E+02  0.00000E+00  9.000E+00
      21     1     1     2   511   502  3.919213865E+01  6.060311858E+01  1.274616619E+01  7.328865168E+01  1.608221240E-06  0.00000E+00  9.000E+00
#rwgt            1           1   7.9420735829090303E-002           1       52805           0
</event>
<event>
      5   9999  3.19816E-02  8.62405E+02 -1.00000E+00  9.25615E-02
      21    -1     0     0   502   501  0.000000000E+00  0.000000000E+00  6.235899438E+02  6.235899438E+02  0.000000000E+00  0.00000E+00  9.000E+00
      21    -1     0     0   501   512  0.000000000E+00  0.000000000E+00 -2.185594032E+03  2.185594032E+03  0.000000000E+00  0.00000E+00  9.000E+00
      25     1     1     2     0     0 -1.867266301E+02 -4.465882316E+02 -4.743478328E+01  5.021781971E+02  1.250000000E+02  0.00000E+00  9.000E+00
      25     1     1     2     0     0 -3.259019668E+02 -2.469206482E+02  1.326678170E+02  4.476691280E+02  1.250000000E+02  0.00000E+00  9.000E+00
      21     1     1     2   502   512  5.126285968E+02  6.935088798E+02 -1.647237122E+03  1.859336651E+03  2.157918644E-05  0.00000E+00  9.000E+00
#rwgt            2          11   7.5703242056334519E-003           1       53055           0
</event>
<event>
      5   9999  3.19816E-02  5.14530E+02 -1.00000E+00  9.84999E-02
      21    -1     0     0   502   501  0.000000000E+00  0.000000000E+00  1.025617033E+03  1.025617033E+03  0.000000000E+00  0.00000E+00  9.000E+00
      21    -1     0     0   511   502  0.000000000E+00  0.000000000E+00 -1.283560515E+03  1.283560515E+03  0.000000000E+00  0.00000E+00  9.000E+00
      25     1     1     2     0     0  3.672558328E+02 -1.733769152E+02  2.998703342E+02  5.200803965E+02  1.250000000E+02  0.00000E+00  9.000E+00
      25     1     1     2     0     0 -7.994908448E+02  4.525070526E+02  1.235027409E+02  9.353214263E+02  1.250000000E+02  0.00000E+00  9.000E+00
      21     1     1     2   511   501  4.322350120E+02 -2.791301373E+02 -6.813165570E+02  8.537757258E+02  1.078959322E-05  0.00000E+00  9.000E+00
#rwgt            1           1   2.6851114680996317E-002           1       53075           0
</event>
<event>
      5   9999  3.19816E-02  7.04892E+02 -1.00000E+00  9.47917E-02
      21    -1     0     0   502   501  0.000000000E+00  0.000000000E+00  6.136651838E+02  6.136651838E+02  0.000000000E+00  0.00000E+00  9.000E+00
       1    -1     0     0   501     0  0.000000000E+00  0.000000000E+00 -1.678373342E+03  1.678373342E+03  0.000000000E+00  0.00000E+00  9.000E+00
      25     1     1     2     0     0 -3.145216768E+02  8.977559826E+02 -8.174575585E+02  1.260456881E+03  1.250000000E+02  0.00000E+00  9.000E+00
      25     1     1     2     0     0  1.558738499E+02 -2.109489310E+02 -1.244004194E+02  3.160641911E+02  1.250000000E+02  0.00000E+00  9.000E+00
       1     1     1     2   502     0  1.586478269E+02 -6.868070516E+02 -1.228501802E+02  7.155174533E+02  1.721903809E-05  0.00000E+00  9.000E+00
#rwgt            2          12   2.2240825149963446E-004           1       53197           0
</event>
<event>
      5   9999  3.19816E-02  5.49695E+01 -1.00000E+00  1.36768E-01
      21    -1     0     0   511   501  0.000000000E+00  0.000000000E+00  4.972393773E+02  4.972393773E+02  0.000000000E+00  0.00000E+00  9.000E+00
      21    -1     0     0   501   502  0.000000000E+00  0.000000000E+00 -2.178182852E+02  2.178182852E+02  0.000000000E+00  0.00000E+00  9.000E+00
      25     1     1     2     0     0  2.370829002E+02 -2.350917276E+01  2.901878201E+02  3.957208027E+02  1.250000000E+02  0.00000E+00  9.000E+00
      25     1     1     2     0     0 -1.869101778E+02  4.596667638E+01 -6.860770741E+01  2.395419951E+02  1.250000000E+02  0.00000E+00  9.000E+00
      21     1     1     2   511   502 -5.017272238E+01 -2.245750362E+01  5.784097939E+01  7.979486472E+01  6.743495762E-07  0.00000E+00  9.000E+00
#rwgt            1           1   2.7806693018172075E-002           1       53216           0
</event>
<event>
      5   9999  3.19816E-02  1.96360E+02 -1.00000E+00  1.11939E-01
      21    -1     0     0   502   501  0.000000000E+00  0.000000000E+00  1.922195976E+02  1.922195976E+02  0.000000000E+00  0.00000E+00  9.000E+00
      21    -1     0     0   501   512  0.000000000E+00  0.000000000E+00 -9.063608105E+02  9.063608105E+02  0.000000000E+00  0.00000E+00  9.000E+00
      25     1     1     2     0     0 -4.833805802E+01 -1.291644313E+02 -2.171552117E+02  2.860094477E+02  1.250000000E+02  0.00000E+00  9.000E+00
      25     1     1     2     0     0  2.186396027E+02  2.269126659E+02 -7.508154229E+01  3.472101263E+02  1.250000000E+02  0.00000E+00  9.000E+00
      21     1     1     2   502   512 -1.703015447E+02 -9.774823454E+01 -4.219044589E+02  4.653608342E+02  5.394796609E-06  0.00000E+00  9.000E+00
#rwgt            1           1   2.4004812231307366E-002           1       53294           0
</event>
<event>
      5   9999  3.19816E-02  1.23491E+02 -1.00000E+00  1.19842E-01
      21    -1     0     0   502   511  0.000000000E+00  0.000000000E+00  1.163549420E+02  1.163549420E+02  0.000000000E+00  0.00000E+00  9.000E+00
      21    -1     0     0   501   502  0.000000000E+00  0.000000000E+00 -1.339073332E+03  1.339073332E+03  0.000000000E+00  0.00000E+00  9.000E+00
      25     1     1     2     0     0  2.272190826E+02 -1.451533966E+02 -3.064638900E+02  4.268994448E+02  1.250000000E+02  0.00000E+00  9.000E+00
      25     1     1     2     0     0 -2.872686935E+02  3.724514225E+01 -7.956393016E+02  8.559073555E+02  1.250000000E+02  0.00000E+00  9.000E+00
      21     1     1     2   501   511  6.004961091E+01  1.079082543E+02 -1.206151982E+02  1.726214736E+02  2.336015456E-06  0.00000E+00  9.000E+00
#rwgt            1           1   2.7245482615494424E-002           1       53356           0
</event>
<event>
      5   9999  3.19816E-02  2.02517E+01 -1.00000E+00  1.65922E-01
      21    -1     0     0   502   501  0.000000000E+00  0.000000000E+00  2.084020455E+02  2.084020455E+02  0.000000000E+00  0.00000E+00  9.000E+00
      21    -1     0     0   501   512  0.000000000E+00  0.000000000E+00 -4.555529183E+02  4.555529183E+02  0.000000000E+00  0.00000E+00  9.000E+00
      25     1     1     2     0     0  1.247482644E+02 -2.231853117E+02  4.215490156E-01  2.846032160E+02  1.250000000E+02  0.00000E+00  9.000E+00
      25     1     1     2     0     0 -1.173504380E+02  2.043332047E+02 -2.243696526E+02  3.485540487E+02  1.250000000E+02  0.00000E+00  9.000E+00
      21     1     1     2   502   512 -7.397826333E+00  1.885210702E+01 -2.320276923E+01  3.079769916E+01  3.371747881E-07  0.00000E+00  9.000E+00
#rwgt            1           1   2.9590507241070065E-002           1       53412           0
</event>
<event>
      5   9999  3.19816E-02  2.53808E+01 -1.00000E+00  1.58261E-01
      21    -1     0     0   511   501  0.000000000E+00  0.000000000E+00  6.372744108E+01  6.372744108E+01  0.000000000E+00  0.00000E+00  9.000E+00
      21    -1     0     0   501   502  0.000000000E+00  0.000000000E+00 -8.593264997E+02  8.593264997E+02  0.000000000E+00  0.00000E+00  9.000E+00
      25     1     1     2     0     0 -6.008646128E+01 -1.259593369E+02 -4.316253077E+02  4.705332545E+02  1.250000000E+02  0.00000E+00  9.000E+00
      25     1     1     2     0     0  6.247421743E+01  1.512275829E+02 -3.726037772E+02  4.257127958E+02  1.250000000E+02  0.00000E+00  9.000E+00
      21     1     1     2   511   502 -2.387756157E+00 -2.526824602E+01  8.630026333E+00  2.680789046E+01  3.153981341E-07  0.00000E+00  9.000E+00
#rwgt            1           1   3.2075307636539006E-002           1       53589           0
</event>
<event>
      5   9999  3.19816E-02  4.13321E+01 -1.00000E+00  1.43963E-01
      21    -1     0     0   502   501  0.000000000E+00  0.000000000E+00  1.234870826E+03  1.234870826E+03  0.000000000E+00  0.00000E+00  9.000E+00
      21    -1     0     0   512   502  0.000000000E+00  0.000000000E+00 -3.786184325E+02  3.786184325E+02  0.000000000E+00  0.00000E+00  9.000E+00
      25     1     1     2     0     0  4.939137000E+02  8.028833896E+01 -6.691691331E+01  5.200959851E+02  1.250000000E+02  0.00000E+00  9.000E+00
      25     1     1     2     0     0 -5.154589098E+02 -4.501593743E+01  9.009916813E+02  1.046487139E+03  1.250000000E+02  0.00000E+00  9.000E+00
      21     1     1     2   512   501  2.154520983E+01 -3.527240154E+01  2.217762572E+01  4.690613456E+01  6.307962682E-07  0.00000E+00  9.000E+00
#rwgt            1           1   2.9163178226828890E-002           1       53810           0
</event>
<event>
      5   9999  3.19816E-02  1.34033E+02 -1.00000E+00  1.18364E-01
      21    -1     0     0   502   501  0.000000000E+00  0.000000000E+00  5.843915712E+02  5.843915712E+02  0.000000000E+00  0.00000E+00  9.000E+00
      21    -1     0     0   501   511  0.000000000E+00  0.000000000E+00 -6.090609419E+02  6.090609419E+02  0.000000000E+00  0.00000E+00  9.000E+00
      25     1     1     2     0     0  2.323435624E+01 -1.069339307E+02  6.556750686E+01  1.786023482E+02  1.250000000E+02  0.00000E+00  9.000E+00
      25     1     1     2     0     0 -5.602019928E+01  2.368949903E+02  4.122438660E+02  4.948004690E+02  1.250000000E+02  0.00000E+00  9.000E+00
      21     1     1     2   502   511  3.278584305E+01 -1.299610596E+02 -5.024807436E+02  5.200496959E+02  7.629394531E-06  0.00000E+00  9.000E+00
#rwgt            1           1   2.8009546388793476E-002           1       53944           0
</event>
<event>
      5   9999  3.19816E-02  1.01378E+02 -1.00000E+00  1.23561E-01
      21    -1     0     0   512   501  0.000000000E+00  0.000000000E+00  2.830921169E+02  2.830921169E+02  0.000000000E+00  0.00000E+00  9.000E+00
      21    -1     0     0   501   502  0.000000000E+00  0.000000000E+00 -1.196803814E+03  1.196803814E+03  0.000000000E+00  0.00000E+00  9.000E+00
      25     1     1     2     0     0  2.729585164E+02 -2.682470854E+01 -7.575835143E+02  8.153426874E+02  1.250000000E+02  0.00000E+00  9.000E+00
      25     1     1     2     0     0 -2.597950779E+02 -7.369542291E+01 -3.416911686E+02  4.531030264E+02  1.250000000E+02  0.00000E+00  9.000E+00
      21     1     1     2   512   502 -1.316343855E+01  1.005201315E+02  1.855629855E+02  2.114502176E+02  4.672030912E-06  0.00000E+00  9.000E+00
#rwgt            1           1   2.8968230837404969E-002           1       54022           0
</event>
<event>
      5   9999  3.19816E-02  5.75059E+00 -1.00000E+00  2.28374E-01
      21    -1     0     0   502   501  0.000000000E+00  0.000000000E+00  5.774612808E+02  5.774612808E+02  0.000000000E+00  0.00000E+00  9.000E+00
      21    -1     0     0   511   502  0.000000000E+00  0.000000000E+00 -7.541601097E+01  7.541601097E+01  0.000000000E+00  0.00000E+00  9.000E+00
      25     1     1     2     0     0 -3.759727644E+01 -6.237937584E+01  4.665986270E+02  4.885120474E+02  1.250000000E+02  0.00000E+00  9.000E+00
      25     1     1     2     0     0  3.801220057E+01  5.664377889E+01  4.822983741E+01  1.503481370E+02  1.250000000E+02  0.00000E+00  9.000E+00
      21     1     1     2   511   501 -4.149241276E-01  5.735596955E+00 -1.278319461E+01  1.401710737E+01  3.371747881E-07  0.00000E+00  9.000E+00
#rwgt            1           1   2.5249874880076795E-002           1       54110           0
</event>
<event>
      5   9999  3.19816E-02  1.57204E+01 -1.00000E+00  1.75486E-01
      21    -1     0     0   512   501  0.000000000E+00  0.000000000E+00  1.205441032E+03  1.205441032E+03  0.000000000E+00  0.00000E+00  9.000E+00
      21    -1     0     0   501   502  0.000000000E+00  0.000000000E+00 -9.188700038E+01  9.188700038E+01  0.000000000E+00  0.00000E+00  9.000E+00
      25     1     1     2     0     0  6.677579800E+01  1.435494981E+02  7.564395844E+02  7.828737513E+02  1.250000000E+02  0.00000E+00  9.000E+00
      25     1     1     2     0     0 -5.202077493E+01 -1.381254978E+02  4.070305212E+01  1.976526059E+02  1.250000000E+02  0.00000E+00  9.000E+00
      21     1     1     2   512   502 -1.475502306E+01 -5.424000326E+00  3.164113946E+02  3.168016748E+02  5.394796609E-06  0.00000E+00  9.000E+00
#rwgt            1           1   2.6386354999506940E-002           1       54292           0
</event>
<event>
      5   9999  3.19816E-02  7.85831E+01 -1.00000E+00  1.28726E-01
      21    -1     0     0   502   511  0.000000000E+00  0.000000000E+00  1.164670785E+02  1.164670785E+02  0.000000000E+00  0.00000E+00  9.000E+00
      21    -1     0     0   501   502  0.000000000E+00  0.000000000E+00 -1.053224055E+03  1.053224055E+03  0.000000000E+00  0.00000E+00  9.000E+00
      25     1     1     2     0     0 -8.498509190E+00 -1.257990900E+01 -8.081412217E+02  8.178922380E+02  1.250000000E+02  0.00000E+00  9.000E+00
      25     1     1     2     0     0  4.294973690E+01  8.320858809E+01 -1.943625644E+02  2.493394382E+02  1.250000000E+02  0.00000E+00  9.000E+00
      21     1     1     2   501   511 -3.445122771E+01 -7.062867909E+01  6.574680966E+01  1.024594573E+02  1.907348633E-06  0.00000E+00  9.000E+00
#rwgt            1           1   2.8488141521148942E-002           1       54409           0
</event>
<event>
      5   9999  3.19816E-02  1.26773E+01 -1.00000E+00  1.84555E-01
      21    -1     0     0   502   501  0.000000000E+00  0.000000000E+00  1.849848620E+02  1.849848620E+02  0.000000000E+00  0.00000E+00  9.000E+00
      -1    -1     0     0     0   502  0.000000000E+00  0.000000000E+00 -1.258728840E+03  1.258728840E+03  0.000000000E+00  0.00000E+00  9.000E+00
      25     1     1     2     0     0 -2.801334144E+01 -2.581475575E+02 -6.085188651E+02  6.733090805E+02  1.250000000E+02  0.00000E+00  9.000E+00
      25     1     1     2     0     0  4.001127384E+01  2.622420398E+02  1.153222950E+01  2.934787586E+02  1.250000000E+02  0.00000E+00  9.000E+00
      -1     1     1     2     0   501 -1.199793240E+01 -4.094482253E+00 -4.767573427E+02  4.769258632E+02  9.344061824E-06  0.00000E+00  9.000E+00
#rwgt            1           1   3.0228771839336026E-002           1       54476           0
</event>
<event>
      5   9999  3.19816E-02  4.53426E+01 -1.00000E+00  1.41542E-01
      21    -1     0     0   502   501  0.000000000E+00  0.000000000E+00  7.666354393E+02  7.666354393E+02  0.000000000E+00  0.00000E+00  9.000E+00
      21    -1     0     0   501   511  0.000000000E+00  0.000000000E+00 -1.000005446E+02  1.000005446E+02  0.000000000E+00  0.00000E+00  9.000E+00
      25     1     1     2     0     0 -1.344606413E+02 -1.705084208E+02  2.475357919E+02  3.522098152E+02  1.250000000E+02  0.00000E+00  9.000E+00
      25     1     1     2     0     0  8.921945076E+01  1.674774575E+02  4.091354736E+02  4.680017574E+02  1.250000000E+02  0.00000E+00  9.000E+00
      21     1     1     2   502   511  4.524119054E+01  3.030963320E+00  9.963629244E+00  4.642441133E+01  2.920019320E-07  0.00000E+00  9.000E+00
#rwgt            1           1   2.9007016423578977E-002           1       54731           0
</event>
<event>
      5   9999  3.19816E-02  1.05654E+02 -1.00000E+00  1.22763E-01
      21    -1     0     0   502   512  0.000000000E+00  0.000000000E+00  4.974806925E+02  4.974806925E+02  0.000000000E+00  0.00000E+00  9.000E+00
      21    -1     0     0   501   502  0.000000000E+00  0.000000000E+00 -9.163738580E+02  9.163738580E+02  0.000000000E+00  0.00000E+00  9.000E+00
      25     1     1     2     0     0  2.269133955E+02 -4.940997347E+02 -5.987180404E+02  8.183596573E+02  1.250000000E+02  0.00000E+00  9.000E+00
      25     1     1     2     0     0 -1.569419006E+02  4.149372020E+02  1.607814431E+02  4.881386219E+02  1.250000000E+02  0.00000E+00  9.000E+00
      21     1     1     2   501   512 -6.997149488E+01  7.916253265E+01  1.904343186E+01  1.073562712E+02  2.759894586E-06  0.00000E+00  9.000E+00
#rwgt            1           1   2.3298862744253582E-002           1       54827           0
</event>
<event>
      5   9999  3.19816E-02  1.76153E+02 -1.00000E+00  1.13693E-01
      21    -1     0     0   511   501  0.000000000E+00  0.000000000E+00  1.207948353E+03  1.207948353E+03  0.000000000E+00  0.00000E+00  9.000E+00
      21    -1     0     0   501   502  0.000000000E+00  0.000000000E+00 -8.236055531E+02  8.236055531E+02  0.000000000E+00  0.00000E+00  9.000E+00
      25     1     1     2     0     0 -2.549224024E+02  6.147539052E+01 -2.183424176E+02  3.634048242E+02  1.250000000E+02  0.00000E+00  9.000E+00
      25     1     1     2     0     0  1.440229139E+02 -1.983373492E+02 -4.896721300E+02  5.616797118E+02  1.250000000E+02  0.00000E+00  9.000E+00
      21     1     1     2   511   502  1.108994885E+02  1.368619587E+02  1.092357348E+03  1.106469370E+03  2.157918644E-05  0.00000E+00  9.000E+00
#rwgt            1           1   2.4200266437691267E-002           1       54930           0
</event>
<event>
      5   9999  3.19816E-02  3.23965E+01 -1.00000E+00  1.50757E-01
      21    -1     0     0   502   512  0.000000000E+00  0.000000000E+00  3.166062023E+02  3.166062023E+02  0.000000000E+00  0.00000E+00  9.000E+00
      21    -1     0     0   501   502  0.000000000E+00  0.000000000E+00 -5.419839136E+02  5.419839136E+02  0.000000000E+00  0.00000E+00  9.000E+00
      25     1     1     2     0     0 -9.558925234E+01  1.788664579E+02  4.339813912E+01  2.421547303E+02  1.250000000E+02  0.00000E+00  9.000E+00
      25     1     1     2     0     0  7.314448395E+01 -2.022280732E+02 -4.056171575E+02  4.758115043E+02  1.250000000E+02  0.00000E+00  9.000E+00
      21     1     1     2   501   512  2.244476839E+01  2.336161535E+01  1.368413071E+02  1.406238814E+02  1.907348633E-06  0.00000E+00  9.000E+00
#rwgt            1           1   2.8594413317026630E-002           1       54977           0
</event>
<event>
      5   9999  3.19816E-02  2.80094E+01 -1.00000E+00  1.55140E-01
      21    -1     0     0   502   501  0.000000000E+00  0.000000000E+00  4.147195095E+02  4.147195095E+02  0.000000000E+00  0.00000E+00  9.000E+00
      21    -1     0     0   511   502  0.000000000E+00  0.000000000E+00 -1.363549542E+03  1.363549542E+03  0.000000000E+00  0.00000E+00  9.000E+00
      25     1     1     2     0     0  1.574002863E+02  6.756931902E+02 -2.409493888E+02  7.449951311E+02  1.250000000E+02  0.00000E+00  9.000E+00
      25     1     1     2     0     0 -1.812228904E+02 -6.904243688E+02 -6.828880314E+02  9.957352100E+02  1.250000000E+02  0.00000E+00  9.000E+00
      21     1     1     2   511   501  2.382260415E+01  1.473117856E+01 -2.499261190E+01  3.753870988E+01  5.840038640E-07  0.00000E+00  9.000E+00
#rwgt            1           1   3.1833917212309951E-002           1       55149           0
</event>
<event>
      5   9999  3.19816E-02  3.25285E+01 -1.00000E+00  1.50638E-01
      21    -1     0     0   502   501  0.000000000E+00  0.000000000E+00  4.119454035E+02  4.119454035E+02  0.000000000E+00  0.00000E+00  9.000E+00
      21    -1     0     0   512   502  0.000000000E+00  0.000000000E+00 -5.642035606E+02  5.642035606E+02  0.000000000E+00  0.00000E+00  9.000E+00
      25     1     1     2     0     0  3.456164049E+02  6.682297649E+01  2.048698673E+02  4.260430402E+02  1.250000000E+02  0.00000E+00  9.000E+00
      25     1     1     2     0     0 -3.625242217E+02 -3.903392013E+01 -3.222318211E+02  5.024000446E+02  1.250000000E+02  0.00000E+00  9.000E+00
      21     1     1     2   512   501  1.690781680E+01 -2.778905636E+01 -3.489620330E+01  4.770587938E+01  4.768371582E-07  0.00000E+00  9.000E+00
#rwgt            1           1   2.4600311568680193E-002           1       55372           0
</event>
<event>
      5   9999  3.19816E-02  6.97892E+01 -1.00000E+00  1.31287E-01
      21    -1     0     0   502   501  0.000000000E+00  0.000000000E+00  1.005084388E+03  1.005084388E+03  0.000000000E+00  0.00000E+00  9.000E+00
      21    -1     0     0   511   502  0.000000000E+00  0.000000000E+00 -5.856303313E+01  5.856303313E+01  0.000000000E+00  0.00000E+00  9.000E+00
      25     1     1     2     0     0  4.759199010E+01 -4.476293765E+00  7.441519495E+02  7.560900466E+02  1.250000000E+02  0.00000E+00  9.000E+00
      25     1     1     2     0     0 -8.833807487E+01 -5.218315193E+01  1.372867008E+02  2.121304670E+02  1.250000000E+02  0.00000E+00  9.000E+00
      21     1     1     2   511   501  4.074608477E+01  5.665944569E+01  6.508270423E+01  9.542690711E+01  1.348699152E-06  0.00000E+00  9.000E+00
#rwgt            1           1   2.4941578131225519E-002           1       55493           0
</event>
<event>
      5   9999  3.19816E-02  1.13772E+03 -1.00000E+00  8.96659E-02
      21    -1     0     0   502   501  0.000000000E+00  0.000000000E+00  2.895322200E+03  2.895322200E+03  0.000000000E+00  0.00000E+00  9.000E+00
       1    -1     0     0   501     0  0.000000000E+00  0.000000000E+00 -1.361177038E+03  1.361177038E+03  0.000000000E+00  0.00000E+00  9.000E+00
      25     1     1     2     0     0 -1.095556174E+02  4.504188043E+02  1.219327194E+03  1.310443947E+03  1.250000000E+02  0.00000E+00  9.000E+00
      25     1     1     2     0     0  8.023431224E+02  4.520569045E+02  1.190534660E+03  1.510333641E+03  1.250000000E+02  0.00000E+00  9.000E+00
       1     1     1     2   502     0 -6.927875049E+02 -9.024757088E+02 -8.757166914E+02  1.435721650E+03  0.000000000E+00  0.00000E+00  9.000E+00
#rwgt            2          12   4.3090304607411854E-004           1       55686           0
</event>
<event>
      5   9999  3.19816E-02  2.84749E+02 -1.00000E+00  1.06333E-01
      21    -1     0     0   502   501  0.000000000E+00  0.000000000E+00  7.392521711E+02  7.392521711E+02  0.000000000E+00  0.00000E+00  9.000E+00
      21    -1     0     0   511   502  0.000000000E+00  0.000000000E+00 -1.469564142E+03  1.469564142E+03  0.000000000E+00  0.00000E+00  9.000E+00
      25     1     1     2     0     0 -2.206385056E+02 -8.122665932E+01  4.720866196E+02  5.420054398E+02  1.250000000E+02  0.00000E+00  9.000E+00
      25     1     1     2     0     0  1.513415600E+02 -1.949617931E+02  1.290343917E+02  3.052691317E+02  1.250000000E+02  0.00000E+00  9.000E+00
      21     1     1     2   511   501  6.929694564E+01  2.761884524E+02 -1.331432982E+03  1.361541742E+03  1.525878906E-05  0.00000E+00  9.000E+00
#rwgt            2          11   8.5588431693990209E-003           1       55795           0
</event>
<event>
      5   9999  3.19816E-02  3.24954E+02 -1.00000E+00  1.04477E-01
      21    -1     0     0   502   512  0.000000000E+00  0.000000000E+00  8.767646247E+02  8.767646247E+02  0.000000000E+00  0.00000E+00  9.000E+00
      21    -1     0     0   501   502  0.000000000E+00  0.000000000E+00 -2.868357534E+02  2.868357534E+02  0.000000000E+00  0.00000E+00  9.000E+00
      25     1     1     2     0     0  7.561402727E+01 -9.321814392E+01  2.031340030E+01  1.744842048E+02  1.250000000E+02  0.00000E+00  9.000E+00
      25     1     1     2     0     0 -2.416464898E+02  3.725538682E+02  2.176612713E+02  5.100890508E+02  1.250000000E+02  0.00000E+00  9.000E+00
      21     1     1     2   501   512  1.660324625E+02 -2.793357243E+02  3.519541997E+02  4.790271226E+02  8.529922400E-06  0.00000E+00  9.000E+00
#rwgt            1           1   2.6446133360362868E-002           1       55815           0
</event>
<event>
      5   9999  3.19816E-02  2.49481E+01 -1.00000E+00  1.58819E-01
      21    -1     0     0   502   501  0.000000000E+00  0.000000000E+00  1.415396843E+03  1.415396843E+03  0.000000000E+00  0.00000E+00  9.000E+00
      21    -1     0     0   501   511  0.000000000E+00  0.000000000E+00 -2.374439306E+02  2.374439306E+02  0.000000000E+00  0.00000E+00  9.000E+00
      25     1     1     2     0     0 -2.403907619E+02  4.599918642E+02  7.258065647E+02  9.009996687E+02  1.250000000E+02  0.00000E+00  9.000E+00
      25     1     1     2     0     0  2.456926387E+02 -4.356136823E+02  4.868742834E+02  7.090808986E+02  1.250000000E+02  0.00000E+00  9.000E+00
      21     1     1     2   502   511 -5.301876755E+00 -2.437818197E+01 -3.472793627E+01  4.276020592E+01  8.259061849E-07  0.00000E+00  9.000E+00
#rwgt            1           1   2.5965163295158463E-002           1       55845           0
</event>
<event>
      5   9999  3.19816E-02  2.03586E+01 -1.00000E+00  1.65735E-01
      21    -1     0     0   502   501  0.000000000E+00  0.000000000E+00  5.076165855E+02  5.076165855E+02  0.000000000E+00  0.00000E+00  9.000E+00
      21    -1     0     0   501   512  0.000000000E+00  0.000000000E+00 -1.895197604E+02  1.895197604E+02  0.000000000E+00  0.00000E+00  9.000E+00
      25     1     1     2     0     0  1.296771035E+02 -2.019634021E+02  2.724004356E+02  3.839692231E+02  1.250000000E+02  0.00000E+00  9.000E+00
      25     1     1     2     0     0 -1.126034462E+02  2.130523182E+02  7.108658826E+01  2.806227528E+02  1.250000000E+02  0.00000E+00  9.000E+00
      21     1     1     2   502   512 -1.707365730E+01 -1.108891606E+01 -2.539019873E+01  3.254437009E+01  5.840038640E-07  0.00000E+00  9.000E+00
#rwgt            1           1   2.8334444256353217E-002           1       56008           0
</event>
<event>
      5   9999  3.19816E-02  1.06433E+02 -1.00000E+00  1.22622E-01
      21    -1     0     0   502   511  0.000000000E+00  0.000000000E+00  2.036004280E+02  2.036004280E+02  0.000000000E+00  0.00000E+00  9.000E+00
      21    -1     0     0   501   502  0.000000000E+00  0.000000000E+00 -8.429728867E+02  8.429728867E+02  0.000000000E+00  0.00000E+00  9.000E+00
      25     1     1     2     0     0  5.255702790E+01 -9.667595922E+01 -5.942879473E+02  6.171804004E+02  1.250000000E+02  0.00000E+00  9.000E+00
      25     1     1     2     0     0  1.471725223E+01  1.791512951E+02 -1.611939858E+02  2.718828518E+02  1.250000000E+02  0.00000E+00  9.000E+00
      21     1     1     2   501   511 -6.727428013E+01 -8.247533586E+01  1.161094743E+02  1.575100626E+02  1.348699152E-06  0.00000E+00  9.000E+00
#rwgt            1           1   3.1179823027048279E-002           1       56121           0
</event>
<event>
      5   9999  3.19816E-02  1.21498E+02 -1.00000E+00  1.20140E-01
      21    -1     0     0   512   501  0.000000000E+00  0.000000000E+00  5.863735804E+02  5.863735804E+02  0.000000000E+00  0.00000E+00  9.000E+00
      21    -1     0     0   501   502  0.000000000E+00  0.000000000E+00 -1.683978675E+02  1.683978675E+02  0.000000000E+00  0.00000E+00  9.000E+00
      25     1     1     2     0     0 -1.051663775E+02 -6.582782672E+01  1.109598457E+02  2.081594511E+02  1.250000000E+02  0.00000E+00  9.000E+00
      25     1     1     2     0     0  2.250098167E+02  4.584586890E+01  5.548298548E+01  2.672725631E+02  1.250000000E+02  0.00000E+00  9.000E+00
      21     1     1     2   512   502 -1.198434392E+02  1.998195782E+01  2.515328818E+02  2.793394337E+02  0.000000000E+00  0.00000E+00  9.000E+00
#rwgt            1           1   3.3668314553977924E-002           1       56185           0
</event>
<event>
      5   9999  3.19816E-02  2.35813E+01 -1.00000E+00  1.60675E-01
      21    -1     0     0   502   511  0.000000000E+00  0.000000000E+00  4.397340468E+02  4.397340468E+02  0.000000000E+00  0.00000E+00  9.000E+00
      21    -1     0     0   501   502  0.000000000E+00  0.000000000E+00 -6.648452489E+01  6.648452489E+01  0.000000000E+00  0.00000E+00  9.000E+00
      25     1     1     2     0     0 -4.741417943E+01  5.619311359E+01  1.115505310E+02  1.829598081E+02  1.250000000E+02  0.00000E+00  9.000E+00
      25     1     1     2     0     0  6.451982694E+01 -3.996118334E+01  1.514940943E+02  2.105591719E+02  1.250000000E+02  0.00000E+00  9.000E+00
      21     1     1     2   501   511 -1.710564751E+01 -1.623193024E+01  1.102048966E+02  1.126995917E+02  1.907348633E-06  0.00000E+00  9.000E+00
#rwgt            1           1   3.7949888884972943E-002           1       56277           0
</event>
<event>
      5   9999  3.19816E-02  1.06550E+02 -1.00000E+00  1.22601E-01
      21    -1     0     0   502   501  0.000000000E+00  0.000000000E+00  3.267621285E+02  3.267621285E+02  0.000000000E+00  0.00000E+00  9.000E+00
      21    -1     0     0   512   502  0.000000000E+00  0.000000000E+00 -1.155298318E+03  1.155298318E+03  0.000000000E+00  0.00000E+00  9.000E+00
      25     1     1     2     0     0 -9.890574186E+01 -1.727937765E+02 -2.134710207E+01  2.360523962E+02  1.250000000E+02  0.00000E+00  9.000E+00
      25     1     1     2     0     0  1.928865778E+02  2.229989940E+02  9.773733166E+01  3.348303589E+02  1.250000000E+02  0.00000E+00  9.000E+00
      21     1     1     2   512   501 -9.398083591E+01 -5.020521750E+01 -9.049264187E+02  9.111776911E+02  0.000000000E+00  0.00000E+00  9.000E+00
#rwgt            2          11   3.1944111251295954E-003           1       56458           0
</event>
<event>
      5   9999  3.19816E-02  6.12731E+01 -1.00000E+00  1.34218E-01
      21    -1     0     0   502   501  0.000000000E+00  0.000000000E+00  4.360737396E+01  4.360737396E+01  0.000000000E+00  0.00000E+00  9.000E+00
      21    -1     0     0   511   502  0.000000000E+00  0.000000000E+00 -1.781329249E+03  1.781329249E+03  0.000000000E+00  0.00000E+00  9.000E+00
      25     1     1     2     0     0  5.762506546E+01  1.853306596E+02 -4.071344372E+02  4.680294345E+02  1.250000000E+02  0.00000E+00  9.000E+00
      25     1     1     2     0     0 -2.156648392E+00 -1.592988816E+02 -9.420884966E+02  9.636059984E+02  1.250000000E+02  0.00000E+00  9.000E+00
      21     1     1     2   511   501 -5.546841707E+01 -2.603177805E+01 -3.884989410E+02  3.933011898E+02  5.394796609E-06  0.00000E+00  9.000E+00
#rwgt            1           1   3.0711773555446437E-002           1       56493           0
</event>
<event>
      5   9999  3.19816E-02  6.43180E+01 -1.00000E+00  1.33110E-01
      21    -1     0     0   512   501  0.000000000E+00  0.000000000E+00  5.728877089E+02  5.728877089E+02  0.000000000E+00  0.00000E+00  9.000E+00
      21    -1     0     0   501   502  0.000000000E+00  0.000000000E+00 -3.356764066E+02  3.356764066E+02  0.000000000E+00  0.00000E+00  9.000E+00
      25     1     1     2     0     0  1.572211338E+02  1.685370557E+02 -1.549443847E+02  3.045586749E+02  1.250000000E+02  0.00000E+00  9.000E+00
      25     1     1     2     0     0 -1.576367493E+02 -1.042204129E+02  2.125549426E+01  2.275698469E+02  1.250000000E+02  0.00000E+00  9.000E+00
      21     1     1     2   512   502  4.156154240E-01 -6.431664285E+01  3.709001927E+02  3.764355937E+02  5.394796609E-06  0.00000E+00  9.000E+00
#rwgt            2          11   2.4967108220036059E-003           1       56620           0
</event>
<event>
      5   9999  3.19816E-02  8.55305E+01 -1.00000E+00  1.26960E-01
      21    -1     0     0   511   501  0.000000000E+00  0.000000000E+00  1.262420061E+03  1.262420061E+03  0.000000000E+00  0.00000E+00  9.000E+00
      21    -1     0     0   501   502  0.000000000E+00  0.000000000E+00 -9.492697056E+02  9.492697056E+02  0.000000000E+00  0.00000E+00  9.000E+00
      25     1     1     2     0     0  1.811601183E+02  6.680637835E+02  9.720857289E+02  1.199876607E+03  1.250000000E+02  0.00000E+00  9.000E+00
      25     1     1     2     0     0 -1.561398013E+02 -5.862746746E+02 -6.838781385E+02  9.227198599E+02  1.250000000E+02  0.00000E+00  9.000E+00
      21     1     1     2   511   502 -2.502031699E+01 -8.178910896E+01  2.494276547E+01  8.909330028E+01  1.752011592E-06  0.00000E+00  9.000E+00
#rwgt            1           1   2.9114040704909395E-002           1       56640           0
</event>
<event>
      5   9999  3.19816E-02  9.03732E+01 -1.00000E+00  1.25838E-01
      21    -1     0     0   502   501  0.000000000E+00  0.000000000E+00  4.331825050E+03  4.331825050E+03  0.000000000E+00  0.00000E+00  9.000E+00
      -3    -1     0     0     0   502  0.000000000E+00  0.000000000E+00 -2.402777190E+02  2.402777190E+02  0.000000000E+00  0.00000E+00  9.000E+00
      25     1     1     2     0     0 -5.609865000E+02  3.588087133E+01  1.971439942E+03  2.053824173E+03  1.250000000E+02  0.00000E+00  9.000E+00
      25     1     1     2     0     0  5.393792530E+02  5.187129310E+01  2.273347338E+03  2.340374698E+03  1.250000000E+02  0.00000E+00  9.000E+00
      -3     1     1     2     0   501  2.160724696E+01 -8.775216443E+01 -1.532399478E+02  1.779038984E+02  4.264961200E-06  0.00000E+00  9.000E+00
#rwgt            1           1   5.9787465234829125E-003           1       56778           0
</event>
<event>
      5   9999  3.19816E-02  7.30016E+01 -1.00000E+00  1.30304E-01
      -2    -1     0     0     0   501  0.000000000E+00  0.000000000E+00  7.825800083E+01  7.825800083E+01  0.000000000E+00  0.00000E+00  9.000E+00
      21    -1     0     0   501   502  0.000000000E+00  0.000000000E+00 -2.593069377E+03  2.593069377E+03  0.000000000E+00  0.00000E+00  9.000E+00
      25     1     1     2     0     0  9.069916641E+00 -6.247718951E+01 -2.214233660E+03  2.218657559E+03  1.250000000E+02  0.00000E+00  9.000E+00
      25     1     1     2     0     0 -1.210955269E+01 -1.046109022E+01 -3.449445543E+02  3.672435448E+02  1.250000000E+02  0.00000E+00  9.000E+00
      -2     1     1     2     0   502  3.039636045E+00  7.293827973E+01  4.436683791E+01  8.542627432E+01  3.371747881E-06  0.00000E+00  9.000E+00
#rwgt            1           1   3.8597946384737271E-002           1       56833           0
</event>
<event>
      5   9999  3.19816E-02  2.30227E+01 -1.00000E+00  1.61479E-01
      21    -1     0     0   502   501  0.000000000E+00  0.000000000E+00  7.068783311E+02  7.068783311E+02  0.000000000E+00  0.00000E+00  9.000E+00
      21    -1     0     0   511   502  0.000000000E+00  0.000000000E+00 -8.168398303E+01  8.168398303E+01  0.000000000E+00  0.00000E+00  9.000E+00
      25     1     1     2     0     0 -1.056577439E+02  6.012174573E+01  4.768403008E+02  5.077202533E+02  1.250000000E+02  0.00000E+00  9.000E+00
      25     1     1     2     0     0  8.897223931E+01 -4.425866840E+01  1.806944517E+02  2.411438865E+02  1.250000000E+02  0.00000E+00  9.000E+00
      21     1     1     2   511   501  1.668550454E+01 -1.586307733E+01 -3.234040447E+01  3.969817433E+01  1.066240300E-06  0.00000E+00  9.000E+00
#rwgt            1           1   2.9427467296986268E-002           1       56904           0
</event>
<event>
      5   9999  3.19816E-02  3.33532E+01 -1.00000E+00  1.49911E-01
      21    -1     0     0   502   501  0.000000000E+00  0.000000000E+00  3.034606299E+02  3.034606299E+02  0.000000000E+00  0.00000E+00  9.000E+00
       2    -1     0     0   501     0  0.000000000E+00  0.000000000E+00 -6.429855841E+02  6.429855841E+02  0.000000000E+00  0.00000E+00  9.000E+00
      25     1     1     2     0     0  2.578803758E+02 -1.610544758E+02 -3.043511944E+01  3.301395597E+02  1.250000000E+02  0.00000E+00  9.000E+00
      25     1     1     2     0     0 -2.254192013E+02  1.687166430E+02 -2.669744635E+00  3.080766942E+02  1.250000000E+02  0.00000E+00  9.000E+00
       2     1     1     2   502     0 -3.246117450E+01 -7.662167253E+00 -3.064200901E+02  3.082299600E+02  3.814697266E-06  0.00000E+00  9.000E+00
#rwgt            1           1   2.7627639343504741E-002           1       57022           0
</event>
<event>
      5   9999  3.19816E-02  4.22103E+02 -1.00000E+00  1.00987E-01
      21    -1     0     0   502   501  0.000000000E+00  0.000000000E+00  7.759028442E+02  7.759028442E+02  0.000000000E+00  0.00000E+00  9.000E+00
      21    -1     0     0   511   502  0.000000000E+00  0.000000000E+00 -6.087530848E+02  6.087530848E+02  0.000000000E+00  0.00000E+00  9.000E+00
      25     1     1     2     0     0  2.552923547E+01 -6.578603606E+01 -1.661022887E+02  2.195324913E+02  1.250000000E+02  0.00000E+00  9.000E+00
      25     1     1     2     0     0 -1.209718621E+02  4.769569963E+02  4.987954785E+02  7.117191139E+02  1.250000000E+02  0.00000E+00  9.000E+00
      21     1     1     2   511   501  9.544262665E+01 -4.111709602E+02 -1.655434304E+02  4.534043238E+02  3.303624740E-06  0.00000E+00  9.000E+00
#rwgt            1           1   2.5838581863976008E-002           1       57167           0
</event>
<event>
      5   9999  3.19816E-02  2.94154E+01 -1.00000E+00  1.53636E-01
      21    -1     0     0   502   501  0.000000000E+00  0.000000000E+00  4.279437431E+02  4.279437431E+02  0.000000000E+00  0.00000E+00  9.000E+00
      21    -1     0     0   512   502  0.000000000E+00  0.000000000E+00 -1.111563869E+03  1.111563869E+03  0.000000000E+00  0.00000E+00  9.000E+00
      25     1     1     2     0     0 -3.496467714E+02  4.553928020E+02 -3.710930241E+02  6.949607913E+02  1.250000000E+02  0.00000E+00  9.000E+00
      25     1     1     2     0     0  3.360962969E+02 -4.815012881E+02 -7.479151321E+01  6.049983319E+02  1.250000000E+02  0.00000E+00  9.000E+00
      21     1     1     2   512   501  1.355047448E+01  2.610848604E+01 -2.377355887E+02  2.395484889E+02  2.697398305E-06  0.00000E+00  9.000E+00
#rwgt            1           1   3.2407695272469297E-002           1       57199           0
</event>
<event>
      5   9999  3.19816E-02  8.47729E+01 -1.00000E+00  1.27143E-01
      21    -1     0     0   502   501  0.000000000E+00  0.000000000E+00  1.137787939E+02  1.137787939E+02  0.000000000E+00  0.00000E+00  9.000E+00
      21    -1     0     0   501   511  0.000000000E+00  0.000000000E+00 -8.071308387E+02  8.071308387E+02  0.000000000E+00  0.00000E+00  9.000E+00
      25     1     1     2     0     0  1.227849291E+02  8.694900276E+01 -2.595792283E+02  3.250271430E+02  1.250000000E+02  0.00000E+00  9.000E+00
      25     1     1     2     0     0 -6.001646217E+01 -2.997041053E+01  1.176606975E+01  1.423504185E+02  1.250000000E+02  0.00000E+00  9.000E+00
      21     1     1     2   502   511 -6.276846696E+01 -5.697859223E+01 -4.455388863E+02  4.535320712E+02  7.629394531E-06  0.00000E+00  9.000E+00
#rwgt            1           1   3.0902326915722648E-002           1       57418           0
</event>
<event>
      5   9999  3.19816E-02  4.02844E+01 -1.00000E+00  1.44650E-01
      21    -1     0     0   512   501  0.000000000E+00  0.000000000E+00  4.484955207E+02  4.484955207E+02  0.000000000E+00  0.00000E+00  9.000E+00
      21    -1     0     0   501   502  0.000000000E+00  0.000000000E+00 -4.220961994E+02  4.220961994E+02  0.000000000E+00  0.00000E+00  9.000E+00
      25     1     1     2     0     0  3.324278791E+02  1.828768957E+02  8.134706946E+01  4.076697187E+02  1.250000000E+02  0.00000E+00  9.000E+00
      25     1     1     2     0     0 -3.296706832E+02 -2.230668632E+02 -6.270145434E+01  4.218981598E+02  1.250000000E+02  0.00000E+00  9.000E+00
      21     1     1     2   512   502 -2.757195948E+00  4.018996751E+01  7.753706169E+00  4.102384157E+01  7.396741894E-07  0.00000E+00  9.000E+00
#rwgt            1           1   2.8649538781493088E-002           1       57460           0
</event>
<event>
      5   9999  3.19816E-02  2.83615E+01 -1.00000E+00  1.54754E-01
      21    -1     0     0   502   511  0.000000000E+00  0.000000000E+00  2.866970263E+03  2.866970263E+03  0.000000000E+00  0.00000E+00  9.000E+00
      21    -1     0     0   501   502  0.000000000E+00  0.000000000E+00 -9.451613544E+01  9.451613544E+01  0.000000000E+00  0.00000E+00  9.000E+00
      25     1     1     2     0     0  2.724546479E+02 -2.026554823E+02  5.547706304E+02  6.623414768E+02  1.250000000E+02  0.00000E+00  9.000E+00
      25     1     1     2     0     0 -2.663227681E+02  2.303461722E+02  8.193711189E+02  9.005449496E+02  1.250000000E+02  0.00000E+00  9.000E+00
      21     1     1     2   501   511 -6.131879776E+00 -2.769068991E+01  1.398312378E+03  1.398599972E+03  0.000000000E+00  0.00000E+00  9.000E+00
#rwgt            1           1   3.2715968789246250E-002           1       57614           0
</event>
<event>
      5   9999  3.19816E-02  4.73861E+01 -1.00000E+00  1.40419E-01
      21    -1     0     0   502   501  0.000000000E+00  0.000000000E+00  1.691006075E+03  1.691006075E+03  0.000000000E+00  0.00000E+00  9.000E+00
      21    -1     0     0   512   502  0.000000000E+00  0.000000000E+00 -8.074801188E+02  8.074801188E+02  0.000000000E+00  0.00000E+00  9.000E+00
      25     1     1     2     0     0 -2.665241925E+02 -6.418322778E+02  9.286016372E+02  1.166580395E+03  1.250000000E+02  0.00000E+00  9.000E+00
      25     1     1     2     0     0  2.972871784E+02  6.057895169E+02  4.589849802E+02  8.256226845E+02  1.250000000E+02  0.00000E+00  9.000E+00
      21     1     1     2   512   501 -3.076298585E+01  3.604276098E+01 -5.040606609E+02  5.062831143E+02  5.394796609E-06  0.00000E+00  9.000E+00
#rwgt            1           1   3.2844922909208353E-002           1       57720           0
</event>
<event>
      5   9999  3.19816E-02  2.00329E+02 -1.00000E+00  1.11622E-01
      21    -1     0     0   502   501  0.000000000E+00  0.000000000E+00  3.845551236E+02  3.845551236E+02  0.000000000E+00  0.00000E+00  9.000E+00
      21    -1     0     0   501   511  0.000000000E+00  0.000000000E+00 -3.090588806E+03  3.090588806E+03  0.000000000E+00  0.00000E+00  9.000E+00
      25     1     1     2     0     0  2.019418478E+02 -3.637861497E+02 -2.393764073E+03  2.432869152E+03  1.250000000E+02  0.00000E+00  9.000E+00
      25     1     1     2     0     0 -2.937948029E+01  4.655404168E+02  1.764028290E+02  5.141342155E+02  1.250000000E+02  0.00000E+00  9.000E+00
      21     1     1     2   502   511 -1.725623675E+02 -1.017542670E+02 -4.886724388E+02  5.281405628E+02  9.344061824E-06  0.00000E+00  9.000E+00
#rwgt            2          11   3.6762738554076357E-003           1       58342           0
</event>
<event>
      5   9999  3.19816E-02  3.55522E+02 -1.00000E+00  1.03250E-01
       2    -1     0     0   502     0  0.000000000E+00  0.000000000E+00  1.805530088E+03  1.805530088E+03  0.000000000E+00  0.00000E+00  9.000E+00
      21    -1     0     0   501   502  0.000000000E+00  0.000000000E+00 -1.728103766E+03  1.728103766E+03  0.000000000E+00  0.00000E+00  9.000E+00
      25     1     1     2     0     0 -1.770782188E+02 -4.592398205E+02 -1.510380433E+03  1.593465393E+03  1.250000000E+02  0.00000E+00  9.000E+00
      25     1     1     2     0     0  3.858829524E+01  1.318007214E+02 -1.030232006E+02  2.123658790E+02  1.250000000E+02  0.00000E+00  9.000E+00
       2     1     1     2   501     0  1.384899236E+02  3.274390990E+02  1.690829955E+03  1.727802581E+03  0.000000000E+00  0.00000E+00  9.000E+00
#rwgt            2          18   5.8929538191192156E-002           1       58647           0
</event>
<event>
      5   9999  3.19816E-02  2.45737E+01 -1.00000E+00  1.59312E-01
      21    -1     0     0   511   501  0.000000000E+00  0.000000000E+00  1.835742047E+02  1.835742047E+02  0.000000000E+00  0.00000E+00  9.000E+00
      21    -1     0     0   501   502  0.000000000E+00  0.000000000E+00 -7.256690977E+02  7.256690977E+02  0.000000000E+00  0.00000E+00  9.000E+00
      25     1     1     2     0     0 -1.674493661E+02 -2.635414444E+02 -2.194611319E+02  4.015987694E+02  1.250000000E+02  0.00000E+00  9.000E+00
      25     1     1     2     0     0  1.803231612E+02  2.426097887E+02 -3.442777898E+02  4.748980402E+02  1.250000000E+02  0.00000E+00  9.000E+00
      21     1     1     2   511   502 -1.287379510E+01  2.093165579E+01  2.164402866E+01  3.274649280E+01  2.384185791E-07  0.00000E+00  9.000E+00
#rwgt            1           1   2.8702905083739242E-002           1       58681           0
</event>
<event>
      5   9999  3.19816E-02  6.86082E+01 -1.00000E+00  1.31664E-01
      21    -1     0     0   512   501  0.000000000E+00  0.000000000E+00  4.877876846E+01  4.877876846E+01  0.000000000E+00  0.00000E+00  9.000E+00
      21    -1     0     0   501   502  0.000000000E+00  0.000000000E+00 -1.270833071E+03  1.270833071E+03  0.000000000E+00  0.00000E+00  9.000E+00
      25     1     1     2     0     0  3.369183831E+01 -1.408501325E+02 -4.924823954E+02  5.283349407E+02  1.250000000E+02  0.00000E+00  9.000E+00
      25     1     1     2     0     0  3.373409347E+01  1.535320837E+02 -6.730785732E+02  7.024029153E+02  1.250000000E+02  0.00000E+00  9.000E+00
      21     1     1     2   512   502 -6.742593179E+01 -1.268195116E+01 -5.649333419E+01  8.887398365E+01  1.907348633E-06  0.00000E+00  9.000E+00
#rwgt            1           1   2.9698221947948730E-002           1       58838           0
</event>
<event>
      5   9999  3.19816E-02  6.39974E+01 -1.00000E+00  1.33223E-01
       1    -1     0     0   502     0  0.000000000E+00  0.000000000E+00  1.875478998E+03  1.875478998E+03  0.000000000E+00  0.00000E+00  9.000E+00
      21    -1     0     0   501   502  0.000000000E+00  0.000000000E+00 -3.363369452E+02  3.363369452E+02  0.000000000E+00  0.00000E+00  9.000E+00
      25     1     1     2     0     0  1.610140171E+02 -8.582337181E+01  3.545503461E+02  4.178781076E+02  1.250000000E+02  0.00000E+00  9.000E+00
      25     1     1     2     0     0 -1.806382464E+02  2.490905450E+01 -2.637682451E+02  3.441646760E+02  1.250000000E+02  0.00000E+00  9.000E+00
       1     1     1     2   501     0  1.962422928E+01  6.091431731E+01  1.448359952E+03  1.449773160E+03  3.051757812E-05  0.00000E+00  9.000E+00
#rwgt            1           1   2.3106566878881893E-002           1       58922           0
</event>
<event>
      5   9999  3.19816E-02  1.84393E+01 -1.00000E+00  1.69334E-01
      21    -1     0     0   511   501  0.000000000E+00  0.000000000E+00  2.641920108E+02  2.641920108E+02  0.000000000E+00  0.00000E+00  9.000E+00
      21    -1     0     0   501   502  0.000000000E+00  0.000000000E+00 -3.929493770E+02  3.929493770E+02  0.000000000E+00  0.00000E+00  9.000E+00
      25     1     1     2     0     0  1.852311126E+02  1.466735810E+02  9.989629638E+01  2.853558734E+02  1.250000000E+02  0.00000E+00  9.000E+00
      25     1     1     2     0     0 -1.861522682E+02 -1.282572775E+02 -2.378845377E+02  3.511647041E+02  1.250000000E+02  0.00000E+00  9.000E+00
      21     1     1     2   511   502  9.211555648E-01 -1.841630352E+01  9.230875017E+00  2.062081028E+01  3.769728732E-07  0.00000E+00  9.000E+00
#rwgt            1           1   3.3544778442966841E-002           1       59039           0
</event>
<event>
      5   9999  3.19816E-02  8.76059E+01 -1.00000E+00  1.26469E-01
      21    -1     0     0   502   501  0.000000000E+00  0.000000000E+00  1.104617326E+03  1.104617326E+03  0.000000000E+00  0.00000E+00  9.000E+00
      21    -1     0     0   501   512  0.000000000E+00  0.000000000E+00 -1.138853332E+02  1.138853332E+02  0.000000000E+00  0.00000E+00  9.000E+00
      25     1     1     2     0     0 -1.019843811E+02 -1.024078426E+01 -1.660123342E+01  1.625001188E+02  1.250000000E+02  0.00000E+00  9.000E+00
      25     1     1     2     0     0  2.088983950E+01  4.338403622E+01  9.286121585E+02  9.382239077E+02  1.250000000E+02  0.00000E+00  9.000E+00
      21     1     1     2   502   512  8.109454157E+01 -3.314325196E+01  7.872106729E+01  1.177786324E+02  1.651812370E-06  0.00000E+00  9.000E+00
#rwgt            1           1   2.8220913196051429E-002           1       59244           0
</event>
<event>
      5   9999  3.19816E-02  1.29210E+02 -1.00000E+00  1.19021E-01
       2    -1     0     0   502     0  0.000000000E+00  0.000000000E+00  1.720296758E+03  1.720296758E+03  0.000000000E+00  0.00000E+00  9.000E+00
      21    -1     0     0   501   502  0.000000000E+00  0.000000000E+00 -5.257237972E+02  5.257237972E+02  0.000000000E+00  0.00000E+00  9.000E+00
      25     1     1     2     0     0 -4.998613447E+01 -3.115856114E+02 -1.891946303E+02  3.885920933E+02  1.250000000E+02  0.00000E+00  9.000E+00
      25     1     1     2     0     0 -7.900555294E+01  3.040848620E+02 -1.119163754E+02  3.561737719E+02  1.250000000E+02  0.00000E+00  9.000E+00
       2     1     1     2   501     0  1.289916874E+02  7.500749328E+00  1.495683966E+03  1.501254690E+03  2.157918644E-05  0.00000E+00  9.000E+00
#rwgt            2          18   4.2713814142310725E-003           1       59415           0
</event>
<event>
      5   9999  3.19816E-02  1.43274E+02 -1.00000E+00  1.17189E-01
      21    -1     0     0   511   501  0.000000000E+00  0.000000000E+00  6.206936280E+02  6.206936280E+02  0.000000000E+00  0.00000E+00  9.000E+00
      21    -1     0     0   501   502  0.000000000E+00  0.000000000E+00 -2.150414545E+03  2.150414545E+03  0.000000000E+00  0.00000E+00  9.000E+00
      25     1     1     2     0     0  9.364647094E+01  6.923389878E+01  2.767029960E-01  1.708451662E+02  1.250000000E+02  0.00000E+00  9.000E+00
      25     1     1     2     0     0  9.024620502E+00 -1.691646757E+02 -2.050051857E+03  2.060833750E+03  1.250000000E+02  0.00000E+00  9.000E+00
      21     1     1     2   511   502 -1.026710914E+02  9.993077688E+01  5.200542369E+02  5.394292563E+02  1.078959322E-05  0.00000E+00  9.000E+00
#rwgt            1           1   2.6674396513780726E-002           1       59434           0
</event>
<event>
      5   9999  3.19816E-02  4.79987E+02 -1.00000E+00  9.93586E-02
      21    -1     0     0   502   501  0.000000000E+00  0.000000000E+00  1.392794973E+03  1.392794973E+03  0.000000000E+00  0.00000E+00  9.000E+00
      -3    -1     0     0     0   502  0.000000000E+00  0.000000000E+00 -1.315297454E+03  1.315297454E+03  0.000000000E+00  0.00000E+00  9.000E+00
      25     1     1     2     0     0  4.586436878E+02  5.245721277E+02  9.724369403E+02  1.202825238E+03  1.250000000E+02  0.00000E+00  9.000E+00
      25     1     1     2     0     0 -1.706992536E+01 -3.364227468E+02  1.230558791E+02  3.797886206E+02  1.250000000E+02  0.00000E+00  9.000E+00
      -3     1     1     2     0   501 -4.415737624E+02 -1.881493809E+02 -1.017995300E+03  1.125478568E+03  2.642899792E-05  0.00000E+00  9.000E+00
#rwgt            2           8   9.2801410926758774E-005           1       59559           0
</event>
<event>
      5   9999  3.19816E-02  5.13986E+02 -1.00000E+00  9.85128E-02
      21    -1     0     0   502   501  0.000000000E+00  0.000000000E+00  1.403807375E+03  1.403807375E+03  0.000000000E+00  0.00000E+00  9.000E+00
      21    -1     0     0   501   511  0.000000000E+00  0.000000000E+00 -1.502112105E+03  1.502112105E+03  0.000000000E+00  0.00000E+00  9.000E+00
      25     1     1     2     0     0 -6.199489658E+02 -9.547927842E+02 -1.389242102E+01  1.145331384E+03  1.250000000E+02  0.00000E+00  9.000E+00
      25     1     1     2     0     0  1.604784008E+02  1.185158456E+03  1.178227501E+02  1.208247112E+03  1.250000000E+02  0.00000E+00  9.000E+00
      21     1     1     2   502   511  4.594705650E+02 -2.303656721E+02 -2.022350596E+02  5.523409837E+02  6.031565972E-06  0.00000E+00  9.000E+00
#rwgt            2          11   3.7383852538698278E-003           1       59593           0
</event>
<event>
      5   9999  3.19816E-02  1.92501E+01 -1.00000E+00  1.67750E-01
      21    -1     0     0   502   501  0.000000000E+00  0.000000000E+00  1.714635862E+03  1.714635862E+03  0.000000000E+00  0.00000E+00  9.000E+00
      21    -1     0     0   512   502  0.000000000E+00  0.000000000E+00 -4.764382049E+01  4.764382049E+01  0.000000000E+00  0.00000E+00  9.000E+00
      25     1     1     2     0     0 -9.771193309E-01  2.325575065E+02  9.277629793E+02  9.645999659E+02  1.250000000E+02  0.00000E+00  9.000E+00
      25     1     1     2     0     0  9.971465209E+00 -2.495771923E+02  7.065253869E+02  7.597310888E+02  1.250000000E+02  0.00000E+00  9.000E+00
      21     1     1     2   512   501 -8.994345878E+00  1.701968578E+01  3.270367508E+01  3.794862745E+01  1.066240300E-06  0.00000E+00  9.000E+00
#rwgt            1           1   3.3766425354818129E-002           1       59613           0
</event>
<event>
      5   9999  3.19816E-02  6.47148E+01 -1.00000E+00  1.32971E-01
      -1    -1     0     0     0   501  0.000000000E+00  0.000000000E+00  5.943383030E+02  5.943383030E+02  0.000000000E+00  0.00000E+00  9.000E+00
      21    -1     0     0   501   502  0.000000000E+00  0.000000000E+00 -8.009689242E+02  8.009689242E+02  0.000000000E+00  0.00000E+00  9.000E+00
      25     1     1     2     0     0 -1.788976035E+01  3.909988261E+02 -3.269449583E+02  5.250886890E+02  1.250000000E+02  0.00000E+00  9.000E+00
      25     1     1     2     0     0  8.226769838E+01 -3.975930665E+02 -2.509169130E+02  4.933888101E+02  1.250000000E+02  0.00000E+00  9.000E+00
      -1     1     1     2     0   502 -6.437793802E+01  6.594240378E+00  3.712312502E+02  3.768297281E+02  0.000000000E+00  0.00000E+00  9.000E+00
#rwgt            1           1   2.7659886651474990E-002           1       59760           0
</event>
<event>
      5   9999  3.19816E-02  1.15136E+02 -1.00000E+00  1.21136E-01
      21    -1     0     0   502   501  0.000000000E+00  0.000000000E+00  3.029065067E+02  3.029065067E+02  0.000000000E+00  0.00000E+00  9.000E+00
       1    -1     0     0   501     0  0.000000000E+00  0.000000000E+00 -6.465741116E+02  6.465741116E+02  0.000000000E+00  0.00000E+00  9.000E+00
      25     1     1     2     0     0  1.889548002E+02 -1.824472589E+02  9.191679865E+01  3.050649384E+02  1.250000000E+02  0.00000E+00  9.000E+00
      25     1     1     2     0     0 -1.476434710E+02  2.899166189E+02 -2.616071010E+02  4.357906788E+02  1.250000000E+02  0.00000E+00  9.000E+00
       1     1     1     2   502     0 -4.131132924E+01 -1.074693600E+02 -1.739773025E+02  2.086250010E+02  1.907348633E-06  0.00000E+00  9.000E+00
#rwgt            1           1   2.8559430114039906E-002           1       59880           0
</event>
<event>
      5   9999  3.19816E-02  1.77727E+01 -1.00000E+00  1.70714E-01
      21    -1     0     0   511   501  0.000000000E+00  0.000000000E+00  3.071911687E+02  3.071911687E+02  0.000000000E+00  0.00000E+00  9.000E+00
      21    -1     0     0   501   502  0.000000000E+00  0.000000000E+00 -1.983067008E+02  1.983067008E+02  0.000000000E+00  0.00000E+00  9.000E+00
      25     1     1     2     0     0  3.816522042E+01 -1.060261826E+02  1.996927449E+02  2.611519248E+02  1.250000000E+02  0.00000E+00  9.000E+00
      25     1     1     2     0     0 -4.728136202E+01  1.212828624E+02 -1.152450731E+02  2.141296028E+02  1.250000000E+02  0.00000E+00  9.000E+00
      21     1     1     2   511   502  9.116141598E+00 -1.525667982E+01  2.443679609E+01  3.021634194E+01  0.000000000E+00  0.00000E+00  9.000E+00
#rwgt            1           1   2.9107854191927646E-002           1       59954           0
</event>
<event>
      5   9999  3.19816E-02  1.05519E+01 -1.00000E+00  1.93098E-01
       1    -1     0     0   502     0  0.000000000E+00  0.000000000E+00  1.174997867E+02  1.174997867E+02  0.000000000E+00  0.00000E+00  9.000E+00
      21    -1     0     0   501   502  0.000000000E+00  0.000000000E+00 -1.177010584E+03  1.177010584E+03  0.000000000E+00  0.00000E+00  9.000E+00
      25     1     1     2     0     0 -3.147373841E+02  2.814762758E+01 -7.251140144E+02  8.007916357E+02  1.250000000E+02  0.00000E+00  9.000E+00
      25     1     1     2     0     0  3.140025659E+02 -3.867393331E+01 -3.406810112E+02  4.814372606E+02  1.250000000E+02  0.00000E+00  9.000E+00
       1     1     1     2   501     0  7.348181933E-01  1.052630573E+01  6.284228772E+00  1.228147391E+01  1.685873940E-07  0.00000E+00  9.000E+00
#rwgt            1           1   2.6183341938687779E-002           1       60082           0
</event>
<event>
      5   9999  3.19816E-02  5.17812E+01 -1.00000E+00  1.38214E-01
      21    -1     0     0   502   501  0.000000000E+00  0.000000000E+00  5.311055106E+02  5.311055106E+02  0.000000000E+00  0.00000E+00  9.000E+00
      21    -1     0     0   501   511  0.000000000E+00  0.000000000E+00 -5.685816016E+02  5.685816016E+02  0.000000000E+00  0.00000E+00  9.000E+00
      25     1     1     2     0     0 -1.490237136E+02 -3.537380827E+02 -7.445492740E+01  4.104963271E+02  1.250000000E+02  0.00000E+00  9.000E+00
      25     1     1     2     0     0  9.987546782E+01  3.374363126E+02  2.633553088E+02  4.569676059E+02  1.250000000E+02  0.00000E+00  9.000E+00
      21     1     1     2   502   511  4.914824579E+01  1.630177006E+01 -2.263764724E+02  2.322231793E+02  3.814697266E-06  0.00000E+00  9.000E+00
#rwgt            1           1   2.8836680706307932E-002           1       60267           0
</event>
<event>
      5   9999  3.19816E-02  3.20951E+02 -1.00000E+00  1.04648E-01
      21    -1     0     0   512   501  0.000000000E+00  0.000000000E+00  1.386642296E+03  1.386642296E+03  0.000000000E+00  0.00000E+00  9.000E+00
      21    -1     0     0   501   502  0.000000000E+00  0.000000000E+00 -1.383241837E+03  1.383241837E+03  0.000000000E+00  0.00000E+00  9.000E+00
      25     1     1     2     0     0  1.176329648E+03  3.243563007E+02 -2.923323840E+02  1.260968546E+03  1.250000000E+02  0.00000E+00  9.000E+00
      25     1     1     2     0     0 -1.148952737E+03 -4.575062336E+00  2.704979419E+02  1.186974077E+03  1.250000000E+02  0.00000E+00  9.000E+00
      21     1     1     2   512   502 -2.737691084E+01 -3.197812384E+02  2.523490057E+01  3.219415100E+02  8.946258087E-06  0.00000E+00  9.000E+00
#rwgt            1           1   7.0460934257136121E-002           1       60409           0
</event>
<event>
      5   9999  3.19816E-02  2.41319E+02 -1.00000E+00  1.08757E-01
      21    -1     0     0   502   501  0.000000000E+00  0.000000000E+00  1.224074070E+03  1.224074070E+03  0.000000000E+00  0.00000E+00  9.000E+00
      21    -1     0     0   511   502  0.000000000E+00  0.000000000E+00 -1.287456565E+02  1.287456565E+02  0.000000000E+00  0.00000E+00  9.000E+00
      25     1     1     2     0     0 -7.386951653E+01 -7.254090799E+01  6.924424315E+02  7.112105242E+02  1.250000000E+02  0.00000E+00  9.000E+00
      25     1     1     2     0     0  1.675164458E+02 -1.498665565E+02  2.263789835E+02  3.426283534E+02  1.250000000E+02  0.00000E+00  9.000E+00
      21     1     1     2   511   501 -9.364692924E+01  2.224074645E+02  1.765069990E+02  2.989808494E+02  6.325959759E-06  0.00000E+00  9.000E+00
#rwgt            1           1   2.8837223596838858E-002           1       60471           0
</event>
<event>
      5   9999  3.19816E-02  1.19566E+01 -1.00000E+00  1.87194E-01
      21    -1     0     0   502   501  0.000000000E+00  0.000000000E+00  5.900292299E+02  5.900292299E+02  0.000000000E+00  0.00000E+00  9.000E+00
       2    -1     0     0   501     0  0.000000000E+00  0.000000000E+00 -1.792547320E+02  1.792547320E+02  0.000000000E+00  0.00000E+00  9.000E+00
      25     1     1     2     0     0  5.579331636E+01 -9.534873506E+00  5.148521340E+02  5.328241059E+02  1.250000000E+02  0.00000E+00  9.000E+00
      25     1     1     2     0     0 -6.460715165E+01  1.761427599E+01 -1.058081934E+01  1.422016192E+02  1.250000000E+02  0.00000E+00  9.000E+00
       2     1     1     2   502     0  8.813835291E+00 -8.079402487E+00 -9.349681680E+01  9.425823672E+01  0.000000000E+00  0.00000E+00  9.000E+00
#rwgt            1           1   2.5839388359424214E-002           1       60501           0
</event>
<event>
      5   9999  3.19816E-02  5.48744E+01 -1.00000E+00  1.36809E-01
      21    -1     0     0   502   501  0.000000000E+00  0.000000000E+00  7.927164725E+01  7.927164725E+01  0.000000000E+00  0.00000E+00  9.000E+00
      21    -1     0     0   501   511  0.000000000E+00  0.000000000E+00 -3.388797178E+03  3.388797178E+03  0.000000000E+00  0.00000E+00  9.000E+00
      25     1     1     2     0     0 -3.657816259E+02 -1.980113228E+02 -1.459630732E+03  1.522876080E+03  1.250000000E+02  0.00000E+00  9.000E+00
      25     1     1     2     0     0  4.192443919E+02  2.103780700E+02 -1.221769961E+03  1.314675484E+03  1.250000000E+02  0.00000E+00  9.000E+00
      21     1     1     2   502   511 -5.346276599E+01 -1.236674726E+01 -6.281248386E+02  6.305172611E+02  7.629394531E-06  0.00000E+00  9.000E+00
#rwgt            1           1   6.8404395473054297E-002           1       60670           0
</event>
<event>
      5   9999  3.19816E-02  2.01495E+02 -1.00000E+00  1.11530E-01
      21    -1     0     0   502   512  0.000000000E+00  0.000000000E+00  1.549598593E+02  1.549598593E+02  0.000000000E+00  0.00000E+00  9.000E+00
      21    -1     0     0   501   502  0.000000000E+00  0.000000000E+00 -7.040478006E+02  7.040478006E+02  0.000000000E+00  0.00000E+00  9.000E+00
      25     1     1     2     0     0  1.937418548E+00 -1.335612718E+02 -2.880302713E+02  3.412166527E+02  1.250000000E+02  0.00000E+00  9.000E+00
      25     1     1     2     0     0  1.909250300E+02  7.521464662E+01 -1.816375010E+02  3.012088842E+02  1.250000000E+02  0.00000E+00  9.000E+00
      21     1     1     2   501   512 -1.928624486E+02  5.834662519E+01 -7.942016907E+01  2.165821230E+02  3.015782986E-06  0.00000E+00  9.000E+00
#rwgt            1           1   2.5745374524700014E-002           1       60809           0
</event>
<event>
      5   9999  3.19816E-02  5.74827E+02 -1.00000E+00  9.71613E-02
      21    -1     0     0   502   511  0.000000000E+00  0.000000000E+00  2.523587115E+02  2.523587115E+02  0.000000000E+00  0.00000E+00  9.000E+00
      21    -1     0     0   501   502  0.000000000E+00  0.000000000E+00 -2.114057514E+03  2.114057514E+03  0.000000000E+00  0.00000E+00  9.000E+00
      25     1     1     2     0     0 -1.886923587E+02  1.102019623E+02 -1.078687556E+03  1.107673743E+03  1.250000000E+02  0.00000E+00  9.000E+00
      25     1     1     2     0     0 -2.161677965E+02  2.978590504E+02 -1.892109307E+02  4.322896095E+02  1.250000000E+02  0.00000E+00  9.000E+00
      21     1     1     2   501   511  4.048601552E+02 -4.080610127E+02 -5.938003155E+02  8.264528723E+02  1.525878906E-05  0.00000E+00  9.000E+00
#rwgt            1           1   2.9020184230237622E-002           1       60857           0
</event>
<event>
      5   9999  3.19816E-02  3.07859E+02 -1.00000E+00  1.05228E-01
      21    -1     0     0   502   501  0.000000000E+00  0.000000000E+00  2.893175956E+02  2.893175956E+02  0.000000000E+00  0.00000E+00  9.000E+00
      21    -1     0     0   501   512  0.000000000E+00  0.000000000E+00 -1.019028303E+03  1.019028303E+03  0.000000000E+00  0.00000E+00  9.000E+00
      25     1     1     2     0     0 -7.193073971E+01 -6.368159756E+01 -1.319505280E+02  2.055853084E+02  1.250000000E+02  0.00000E+00  9.000E+00
      25     1     1     2     0     0  2.575989761E+02  3.092516691E+02  9.899620730E+00  4.215647398E+02  1.250000000E+02  0.00000E+00  9.000E+00
      21     1     1     2   502   512 -1.856682364E+02 -2.455700715E+02 -6.076598006E+02  6.811958509E+02  1.078959322E-05  0.00000E+00  9.000E+00
#rwgt            2          11   2.6639781844474478E-003           1       60925           0
</event>
<event>
      5   9999  3.19816E-02  4.36009E+02 -1.00000E+00  1.00572E-01
      21    -1     0     0   502   501  0.000000000E+00  0.000000000E+00  1.951087408E+03  1.951087408E+03  0.000000000E+00  0.00000E+00  9.000E+00
       1    -1     0     0   501     0  0.000000000E+00  0.000000000E+00 -9.833374368E+02  9.833374368E+02  0.000000000E+00  0.00000E+00  9.000E+00
      25     1     1     2     0     0  5.392459738E+01  1.548607019E+02  1.162998626E+03  1.181135260E+03  1.250000000E+02  0.00000E+00  9.000E+00
      25     1     1     2     0     0 -1.544945887E+02 -5.791124018E+02  5.930842284E+02  8.524163617E+02  1.250000000E+02  0.00000E+00  9.000E+00
       1     1     1     2   502     0  1.005699913E+02  4.242516998E+02 -7.883328833E+02  9.008732224E+02  1.525878906E-05  0.00000E+00  9.000E+00
#rwgt            2          12   1.6987096024825795E-003           1       61005           0
</event>
<event>
      5   9999  3.19816E-02  5.26359E+01 -1.00000E+00  1.37814E-01
      21    -1     0     0   502   511  0.000000000E+00  0.000000000E+00  8.224706395E+02  8.224706395E+02  0.000000000E+00  0.00000E+00  9.000E+00
      21    -1     0     0   501   502  0.000000000E+00  0.000000000E+00 -1.304492838E+02  1.304492838E+02  0.000000000E+00  0.00000E+00  9.000E+00
      25     1     1     2     0     0  1.852971210E+02  1.637207190E+02  2.173840988E+02  3.521652216E+02  1.250000000E+02  0.00000E+00  9.000E+00
      25     1     1     2     0     0 -2.358943822E+02 -1.492134857E+02  3.461521087E+02  4.619059495E+02  1.250000000E+02  0.00000E+00  9.000E+00
      21     1     1     2   501   511  5.059726114E+01 -1.450723333E+01  1.284851483E+02  1.388487522E+02  2.697398305E-06  0.00000E+00  9.000E+00
#rwgt            1           1   2.8929269753721149E-002           1       61039           0
</event>
<event>
      5   9999  3.19816E-02  1.61073E+02 -1.00000E+00  1.15181E-01
      21    -1     0     0   502   501  0.000000000E+00  0.000000000E+00  1.065089169E+03  1.065089169E+03  0.000000000E+00  0.00000E+00  9.000E+00
      21    -1     0     0   512   502  0.000000000E+00  0.000000000E+00 -6.040242412E+02  6.040242412E+02  0.000000000E+00  0.00000E+00  9.000E+00
      25     1     1     2     0     0 -5.491391359E+02  4.385072702E+02  1.623216422E+02  7.319943526E+02  1.250000000E+02  0.00000E+00  9.000E+00
      25     1     1     2     0     0  3.965213819E+02 -3.870059330E+02  4.434364988E+02  7.205995607E+02  1.250000000E+02  0.00000E+00  9.000E+00
      21     1     1     2   512   501  1.526177540E+02 -5.150133728E+01 -1.446932132E+02  2.165194969E+02  3.303624740E-06  0.00000E+00  9.000E+00
#rwgt            1           1   2.5851958818054965E-002           1       61129           0
</event>
<event>
      5   9999  3.19816E-02  4.08297E+01 -1.00000E+00  1.44289E-01
      21    -1     0     0   502   501  0.000000000E+00  0.000000000E+00  2.272245952E+02  2.272245952E+02  0.000000000E+00  0.00000E+00  9.000E+00
       1    -1     0     0   501     0  0.000000000E+00  0.000000000E+00 -1.499144273E+03  1.499144273E+03  0.000000000E+00  0.00000E+00  9.000E+00
      25     1     1     2     0     0 -1.132822762E+02 -3.589072358E+02 -1.375801198E+02  4.197625131E+02  1.250000000E+02  0.00000E+00  9.000E+00
      25     1     1     2     0     0  1.278017493E+02  3.207463584E+02 -3.080340014E+02  4.792926659E+02  1.250000000E+02  0.00000E+00  9.000E+00
       1     1     1     2   502     0 -1.451947315E+01  3.816087737E+01 -8.263055561E+02  8.273136889E+02  1.078959322E-05  0.00000E+00  9.000E+00
#rwgt            1           1   2.9661230511304138E-002           1       61176           0
</event>
<event>
      5   9999  3.19816E-02  1.16264E+02 -1.00000E+00  1.20954E-01
      21    -1     0     0   511   501  0.000000000E+00  0.000000000E+00  1.254799698E+02  1.254799698E+02  0.000000000E+00  0.00000E+00  9.000E+00
      21    -1     0     0   501   502  0.000000000E+00  0.000000000E+00 -1.959988987E+03  1.959988987E+03  0.000000000E+00  0.00000E+00  9.000E+00
      25     1     1     2     0     0  1.691751024E+02 -1.519350054E+02 -3.994273077E+02  4.763104400E+02  1.250000000E+02  0.00000E+00  9.000E+00
      25     1     1     2     0     0 -9.205316488E+01  2.389377816E+02 -1.462257606E+03  1.489760838E+03  1.250000000E+02  0.00000E+00  9.000E+00
      21     1     1     2   511   502 -7.712193752E+01 -8.700277625E+01  2.717589653E+01  1.193976787E+02  3.631483605E-06  0.00000E+00  9.000E+00
#rwgt            1           1   2.8035976364950751E-002           1       61303           0
</event>
<event>
      5   9999  3.19816E-02  1.75285E+01 -1.00000E+00  1.71239E-01
      21    -1     0     0   512   501  0.000000000E+00  0.000000000E+00  1.554928287E+03  1.554928287E+03  0.000000000E+00  0.00000E+00  9.000E+00
      21    -1     0     0   501   502  0.000000000E+00  0.000000000E+00 -3.938422115E+01  3.938422115E+01  0.000000000E+00  0.00000E+00  9.000E+00
      25     1     1     2     0     0  8.475077388E+01 -3.725543847E+01  1.427422703E+02  2.111184907E+02  1.250000000E+02  0.00000E+00  9.000E+00
      25     1     1     2     0     0 -7.779523713E+01  2.116606281E+01  1.290650480E+03  1.299193505E+03  1.250000000E+02  0.00000E+00  9.000E+00
      21     1     1     2   512   502 -6.955536744E+00  1.608937566E+01  8.215131549E+01  8.400051272E+01  0.000000000E+00  0.00000E+00  9.000E+00
#rwgt            1           1   4.5606202797087589E-002           1       61410           0
</event>
<event>
      5   9999  3.19816E-02  6.83239E+00 -1.00000E+00  2.17052E-01
      21    -1     0     0   511   501  0.000000000E+00  0.000000000E+00  6.213053371E+02  6.213053371E+02  0.000000000E+00  0.00000E+00  9.000E+00
      21    -1     0     0   501   502  0.000000000E+00  0.000000000E+00 -1.201444396E+02  1.201444396E+02  0.000000000E+00  0.00000E+00  9.000E+00
      25     1     1     2     0     0  3.591565837E+01 -9.677314966E+01  5.308054889E+02  5.550085081E+02  1.250000000E+02  0.00000E+00  9.000E+00
      25     1     1     2     0     0 -3.035792233E+01  1.007472060E+02 -4.513551138E+01  1.695105228E+02  1.250000000E+02  0.00000E+00  9.000E+00
      21     1     1     2   511   502 -5.557736036E+00 -3.974056288E+00  1.549091996E+01  1.693074583E+01  0.000000000E+00  0.00000E+00  9.000E+00
#rwgt            1           1   2.7403824783539366E-002           1       61566           0
</event>
<event>
      5   9999  3.19816E-02  6.75036E+01 -1.00000E+00  1.32024E-01
      21    -1     0     0   502   501  0.000000000E+00  0.000000000E+00  4.343065960E+02  4.343065960E+02  0.000000000E+00  0.00000E+00  9.000E+00
      21    -1     0     0   501   512  0.000000000E+00  0.000000000E+00 -1.723416490E+03  1.723416490E+03  0.000000000E+00  0.00000E+00  9.000E+00
      25     1     1     2     0     0  4.176120851E+02  1.315947192E+02  2.546208802E+02  5.217028046E+02  1.250000000E+02  0.00000E+00  9.000E+00
      25     1     1     2     0     0 -4.065121058E+02 -1.981794918E+02 -1.413401298E+03  1.489246599E+03  1.250000000E+02  0.00000E+00  9.000E+00
      21     1     1     2   502   512 -1.109997931E+01  6.658477257E+01 -1.303294762E+02  1.467736824E+02  1.907348633E-06  0.00000E+00  9.000E+00
#rwgt            2          11   6.6382799166319131E-003           1       61865           0
</event>
<event>
      5   9999  3.19816E-02  2.61857E+01 -1.00000E+00  1.57258E-01
      21    -1     0     0   502   511  0.000000000E+00  0.000000000E+00  2.093272780E+02  2.093272780E+02  0.000000000E+00  0.00000E+00  9.000E+00
      21    -1     0     0   501   502  0.000000000E+00  0.000000000E+00 -1.724976976E+03  1.724976976E+03  0.000000000E+00  0.00000E+00  9.000E+00
      25     1     1     2     0     0  5.214240012E+02 -5.322860240E+01 -6.979812394E+02  8.817704257E+02  1.250000000E+02  0.00000E+00  9.000E+00
      25     1     1     2     0     0 -5.310928354E+02  7.756389313E+01 -8.487032108E+02  1.011927812E+03  1.250000000E+02  0.00000E+00  9.000E+00
      21     1     1     2   501   511  9.668834162E+00 -2.433529073E+01  3.103475191E+01  4.060601625E+01  1.261592536E-06  0.00000E+00  9.000E+00
#rwgt            1           1   2.7168173237160177E-002           1       61900           0
</event>
<event>
      5   9999  3.19816E-02  2.44921E+01 -1.00000E+00  1.59421E-01
      21    -1     0     0   512   501  0.000000000E+00  0.000000000E+00  1.218372721E+03  1.218372721E+03  0.000000000E+00  0.00000E+00  9.000E+00
      21    -1     0     0   501   502  0.000000000E+00  0.000000000E+00 -5.446975478E+02  5.446975478E+02  0.000000000E+00  0.00000E+00  9.000E+00
      25     1     1     2     0     0  5.629370414E+02  4.826264116E+02  8.276183392E+01  7.565057085E+02  1.250000000E+02  0.00000E+00  9.000E+00
      25     1     1     2     0     0 -5.859246936E+02 -4.910780262E+02  5.238055804E+02  9.351270824E+02  1.250000000E+02  0.00000E+00  9.000E+00
      21     1     1     2   512   502  2.298765214E+01  8.451614508E+00  6.710775907E+01  7.143747803E+01  9.536743164E-07  0.00000E+00  9.000E+00
#rwgt            1           1   2.9436011187123828E-002           1       62055           0
</event>
<event>
      5   9999  3.19816E-02  1.68979E+01 -1.00000E+00  1.72644E-01
      21    -1     0     0   502   501  0.000000000E+00  0.000000000E+00  4.197674575E+01  4.197674575E+01  0.000000000E+00  0.00000E+00  9.000E+00
       2    -1     0     0   501     0  0.000000000E+00  0.000000000E+00 -3.054505321E+03  3.054505321E+03  0.000000000E+00  0.00000E+00  9.000E+00
      25     1     1     2     0     0  3.711603602E+01  1.015341380E+02 -1.509803055E+03  1.518820940E+03  1.250000000E+02  0.00000E+00  9.000E+00
      25     1     1     2     0     0 -3.453014478E+01 -1.182330441E+02 -1.683651464E+02  2.431937626E+02  1.250000000E+02  0.00000E+00  9.000E+00
       2     1     1     2   502     0 -2.585891240E+00  1.669890611E+01 -1.334360373E+03  1.334467364E+03  0.000000000E+00  0.00000E+00  9.000E+00
#rwgt            1           1   2.8692695032557069E-002           1       62322           0
</event>
<event>
      5   9999  3.19816E-02  4.24580E+01 -1.00000E+00  1.43252E-01
      21    -1     0     0   502   501  0.000000000E+00  0.000000000E+00  1.172747003E+03  1.172747003E+03  0.000000000E+00  0.00000E+00  9.000E+00
      21    -1     0     0   511   502  0.000000000E+00  0.000000000E+00 -2.846433184E+02  2.846433184E+02  0.000000000E+00  0.00000E+00  9.000E+00
      25     1     1     2     0     0  4.752347022E+02 -2.574931683E+02  6.399532443E+02  8.469450447E+02  1.250000000E+02  0.00000E+00  9.000E+00
      25     1     1     2     0     0 -4.423506432E+02  2.306357603E+02  2.191814833E+02  5.590460339E+02  1.250000000E+02  0.00000E+00  9.000E+00
      21     1     1     2   511   501 -3.288405904E+01  2.685740802E+01  2.896895738E+01  5.139924315E+01  4.768371582E-07  0.00000E+00  9.000E+00
#rwgt            1           1   2.7735701779770930E-002           1       62496           0
</event>
<event>
      5   9999  3.19816E-02  4.31787E+02 -1.00000E+00  1.00696E-01
      21    -1     0     0   502   512  0.000000000E+00  0.000000000E+00  1.594611237E+03  1.594611237E+03  0.000000000E+00  0.00000E+00  9.000E+00
      21    -1     0     0   501   502  0.000000000E+00  0.000000000E+00 -1.609436370E+03  1.609436370E+03  0.000000000E+00  0.00000E+00  9.000E+00
      25     1     1     2     0     0 -5.026595279E+02 -7.652079202E+02 -9.167138644E+02  1.301614025E+03  1.250000000E+02  0.00000E+00  9.000E+00
      25     1     1     2     0     0  9.193871472E+02  6.521686009E+02  3.210489544E+02  1.178683181E+03  1.250000000E+02  0.00000E+00  9.000E+00
      21     1     1     2   501   512 -4.167276192E+02  1.130393192E+02  5.808397770E+02  7.237504009E+02  0.000000000E+00  0.00000E+00  9.000E+00
#rwgt            2          11   2.9562362143665784E-003           1       62827           0
</event>
<event>
      5   9999  3.19816E-02  7.24267E+01 -1.00000E+00  1.30475E-01
      21    -1     0     0   511   501  0.000000000E+00  0.000000000E+00  3.544395415E+02  3.544395415E+02  0.000000000E+00  0.00000E+00  9.000E+00
      21    -1     0     0   501   502  0.000000000E+00  0.000000000E+00 -9.087039617E+02  9.087039617E+02  0.000000000E+00  0.00000E+00  9.000E+00
      25     1     1     2     0     0 -6.766268018E+01  3.739255830E+02  1.375901440E+02  4.230302917E+02  1.250000000E+02  0.00000E+00  9.000E+00
      25     1     1     2     0     0  1.904145077E+00 -3.435703488E+02 -6.719934515E+02  7.650126856E+02  1.250000000E+02  0.00000E+00  9.000E+00
      21     1     1     2   511   502  6.575853510E+01 -3.035523427E+01 -1.986111268E+01  7.510052585E+01  1.430511475E-06  0.00000E+00  9.000E+00
#rwgt            1           1   2.5766006080670610E-002           1       62862           0
</event>
<event>
      5   9999  3.19816E-02  6.58198E+01 -1.00000E+00  1.32589E-01
      21    -1     0     0   502   501  0.000000000E+00  0.000000000E+00  3.510319079E+02  3.510319079E+02  0.000000000E+00  0.00000E+00  9.000E+00
      21    -1     0     0   512   502  0.000000000E+00  0.000000000E+00 -2.723690251E+02  2.723690251E+02  0.000000000E+00  0.00000E+00  9.000E+00
      25     1     1     2     0     0  9.124780095E+01 -8.405345406E+01  1.953084831E+02  2.629858321E+02  1.250000000E+02  0.00000E+00  9.000E+00
      25     1     1     2     0     0 -6.054094291E+01  1.422714675E+02  2.867631570E+01  2.008823221E+02  1.250000000E+02  0.00000E+00  9.000E+00
      21     1     1     2   512   501 -3.070685804E+01 -5.821801348E+01 -1.453219160E+02  1.595327787E+02  0.000000000E+00  0.00000E+00  9.000E+00
#rwgt            1           1   2.8241466911753336E-002           1       62982           0
</event>
<event>
      5   9999  3.19816E-02  3.56088E+01 -1.00000E+00  1.48043E-01
      21    -1     0     0   502   511  0.000000000E+00  0.000000000E+00  4.143151921E+02  4.143151921E+02  0.000000000E+00  0.00000E+00  9.000E+00
      21    -1     0     0   501   502  0.000000000E+00  0.000000000E+00 -1.303243714E+03  1.303243714E+03  0.000000000E+00  0.00000E+00  9.000E+00
      25     1     1     2     0     0 -3.317435735E+01  9.914290172E+01 -1.160637337E+02  2.000640978E+02  1.250000000E+02  0.00000E+00  9.000E+00
      25     1     1     2     0     0  6.713747254E+01 -1.098429240E+02 -1.137277646E+03  1.151346322E+03  1.250000000E+02  0.00000E+00  9.000E+00
      21     1     1     2   501   511 -3.396311519E+01  1.070002227E+01  3.644128576E+02  3.661484869E+02  7.629394531E-06  0.00000E+00  9.000E+00
#rwgt            1           1   2.5934399964742658E-002           1       63055           0
</event>
<event>
      5   9999  3.19816E-02  9.80495E+01 -1.00000E+00  1.24214E-01
      21    -1     0     0   502   512  0.000000000E+00  0.000000000E+00  7.931789960E+02  7.931789960E+02  0.000000000E+00  0.00000E+00  9.000E+00
      21    -1     0     0   501   502  0.000000000E+00  0.000000000E+00 -1.029469988E+02  1.029469988E+02  0.000000000E+00  0.00000E+00  9.000E+00
      25     1     1     2     0     0  5.419396455E+01  4.887750329E+01  3.412122337E+01  1.487119834E+02  1.250000000E+02  0.00000E+00  9.000E+00
      25     1     1     2     0     0 -1.224337649E+01 -1.374995076E+02  1.721050555E+02  2.535767438E+02  1.250000000E+02  0.00000E+00  9.000E+00
      21     1     1     2   501   512 -4.195058806E+01  8.862200432E+01  4.840057183E+02  4.938372676E+02  5.394796609E-06  0.00000E+00  9.000E+00
#rwgt            1           1   2.7586949981810455E-002           1       63195           0
</event>
<event>
      5   9999  3.19816E-02  2.97959E+01 -1.00000E+00  1.53246E-01
      21    -1     0     0   511   501  0.000000000E+00  0.000000000E+00  6.095960629E+02  6.095960629E+02  0.000000000E+00  0.00000E+00  9.000E+00
      21    -1     0     0   501   502  0.000000000E+00  0.000000000E+00 -1.018461980E+02  1.018461980E+02  0.000000000E+00  0.00000E+00  9.000E+00
      25     1     1     2     0     0 -2.730078066E+01 -4.094196727E+01  4.954682081E+02  5.133569154E+02  1.250000000E+02  0.00000E+00  9.000E+00
      25     1     1     2     0     0  5.276666445E+01  5.641072869E+01 -2.636417408E+01  1.492868409E+02  1.250000000E+02  0.00000E+00  9.000E+00
      21     1     1     2   511   502 -2.546588379E+01 -1.546876143E+01  3.864583085E+01  4.879850468E+01  6.743495762E-07  0.00000E+00  9.000E+00
#rwgt            1           1   2.7848571727126566E-002           1       63267           0
</event>
<event>
      5   9999  3.19816E-02  2.16892E+01 -1.00000E+00  1.63515E-01
      21    -1     0     0   502   501  0.000000000E+00  0.000000000E+00  7.398247459E+01  7.398247459E+01  0.000000000E+00  0.00000E+00  9.000E+00
      21    -1     0     0   501   512  0.000000000E+00  0.000000000E+00 -1.002660071E+03  1.002660071E+03  0.000000000E+00  0.00000E+00  9.000E+00
      25     1     1     2     0     0 -1.151776369E+01 -2.339145801E+02 -5.514923674E+02  6.120600632E+02  1.250000000E+02  0.00000E+00  9.000E+00
      25     1     1     2     0     0  3.622434073E+00  2.137134498E+02 -3.292380410E+02  4.119578235E+02  1.250000000E+02  0.00000E+00  9.000E+00
      21     1     1     2   502   512  7.895329613E+00  2.020113023E+01 -4.794718822E+01  5.262465915E+01  6.743495762E-07  0.00000E+00  9.000E+00
#rwgt            1           1   2.9995583791890490E-002           1       63353           0
</event>
<event>
      5   9999  3.19816E-02  2.33289E+01 -1.00000E+00  1.61035E-01
      21    -1     0     0   502   501  0.000000000E+00  0.000000000E+00  2.548792227E+03  2.548792227E+03  0.000000000E+00  0.00000E+00  9.000E+00
      -1    -1     0     0     0   502  0.000000000E+00  0.000000000E+00 -8.842464418E+01  8.842464418E+01  0.000000000E+00  0.00000E+00  9.000E+00
      25     1     1     2     0     0 -8.136280903E+01 -1.992211079E+02  1.057060938E+03  1.085961225E+03  1.250000000E+02  0.00000E+00  9.000E+00
      25     1     1     2     0     0  7.438136458E+01  1.769613298E+02  1.466297994E+03  1.484083120E+03  1.250000000E+02  0.00000E+00  9.000E+00
      -1     1     1     2     0   501  6.981444451E+00  2.225977814E+01 -6.299134864E+01  6.717252633E+01  4.623107774E-06  0.00000E+00  9.000E+00
#rwgt            1           1   4.2313538759879130E-002           1       63541           0
</event>
<event>
      5   9999  3.19816E-02  1.16713E+02 -1.00000E+00  1.20882E-01
      21    -1     0     0   502   501  0.000000000E+00  0.000000000E+00  8.360787419E+02  8.360787419E+02  0.000000000E+00  0.00000E+00  9.000E+00
      21    -1     0     0   511   502  0.000000000E+00  0.000000000E+00 -2.893999850E+02  2.893999850E+02  0.000000000E+00  0.00000E+00  9.000E+00
      25     1     1     2     0     0 -1.778684935E+02  2.320673948E+02  5.083745910E+02  5.996350569E+02  1.250000000E+02  0.00000E+00  9.000E+00
      25     1     1     2     0     0  1.505590361E+02 -3.455407013E+02  7.369180737E+01  4.038835006E+02  1.250000000E+02  0.00000E+00  9.000E+00
      21     1     1     2   511   501  2.730945736E+01  1.134733065E+02 -3.538764147E+01  1.219601694E+02  4.768371582E-07  0.00000E+00  9.000E+00
#rwgt            2          11   3.7422532057169327E-003           1       63840           0
</event>
<event>
      5   9999  3.19816E-02  5.24120E+01 -1.00000E+00  1.37918E-01
      21    -1     0     0   502   501  0.000000000E+00  0.000000000E+00  1.109939575E+02  1.109939575E+02  0.000000000E+00  0.00000E+00  9.000E+00
      -1    -1     0     0     0   502  0.000000000E+00  0.000000000E+00 -8.448641508E+02  8.448641508E+02  0.000000000E+00  0.00000E+00  9.000E+00
      25     1     1     2     0     0 -2.522491903E+00  2.849180111E+01 -2.074581032E+02  2.438893403E+02  1.250000000E+02  0.00000E+00  9.000E+00
      25     1     1     2     0     0  4.772324701E+01 -5.502314059E+01  3.440575372E+01  1.487071289E+02  1.250000000E+02  0.00000E+00  9.000E+00
      -1     1     1     2     0   501 -4.520075511E+01  2.653133948E+01 -5.608178437E+02  5.632616391E+02  7.629394531E-06  0.00000E+00  9.000E+00
#rwgt            1           1   3.0209827270008528E-002           1       63875           0
</event>
<event>
      5   9999  3.19816E-02  8.43325E+01 -1.00000E+00  1.27251E-01
       2    -1     0     0   502     0  0.000000000E+00  0.000000000E+00  1.602145635E+03  1.602145635E+03  0.000000000E+00  0.00000E+00  9.000E+00
      21    -1     0     0   501   502  0.000000000E+00  0.000000000E+00 -1.226435729E+02  1.226435729E+02  0.000000000E+00  0.00000E+00  9.000E+00
      25     1     1     2     0     0  9.867754061E+01 -1.502256877E+02  9.365094567E+02  9.617587935E+02  1.250000000E+02  0.00000E+00  9.000E+00
      25     1     1     2     0     0 -1.578026996E+02  9.009099875E+01  7.229006963E+00  2.206702032E+02  1.250000000E+02  0.00000E+00  9.000E+00
       2     1     1     2   501     0  5.912515898E+01  6.013468898E+01  5.357635984E+02  5.423602111E+02  7.629394531E-06  0.00000E+00  9.000E+00
#rwgt            1           1   2.7880156418480535E-002           1       63922           0
</event>
<event>
      5   9999  3.19816E-02  8.12654E+01 -1.00000E+00  1.28020E-01
      21    -1     0     0   502   501  0.000000000E+00  0.000000000E+00  2.133116229E+02  2.133116229E+02  0.000000000E+00  0.00000E+00  9.000E+00
      21    -1     0     0   511   502  0.000000000E+00  0.000000000E+00 -7.337991366E+02  7.337991366E+02  0.000000000E+00  0.00000E+00  9.000E+00
      25     1     1     2     0     0  7.507650197E+01 -2.065180720E+02  4.717029786E+01  2.571696565E+02  1.250000000E+02  0.00000E+00  9.000E+00
      25     1     1     2     0     0 -1.513568318E+02  1.784934190E+02 -2.590426398E+02  3.708057179E+02  1.250000000E+02  0.00000E+00  9.000E+00
      21     1     1     2   511   501  7.628032979E+01  2.802465296E+01 -3.086151717E+02  3.191353852E+02  0.000000000E+00  0.00000E+00  9.000E+00
#rwgt            1           1   2.8609282952726748E-002           1       63989           0
</event>
<event>
      5   9999  3.19816E-02  7.24628E+02 -1.00000E+00  9.44799E-02
       2    -1     0     0   502     0  0.000000000E+00  0.000000000E+00  4.737480793E+03  4.737480793E+03  0.000000000E+00  0.00000E+00  9.000E+00
      21    -1     0     0   501   502  0.000000000E+00  0.000000000E+00 -4.109271333E+02  4.109271333E+02  0.000000000E+00  0.00000E+00  9.000E+00
      25     1     1     2     0     0  4.590350643E+02  2.487839406E+02 -3.729433928E+01  5.381658732E+02  1.250000000E+02  0.00000E+00  9.000E+00
      25     1     1     2     0     0  3.029167365E+01  2.856734085E+02  1.743488414E+02  3.585378646E+02  1.250000000E+02  0.00000E+00  9.000E+00
       2     1     1     2   501     0 -4.893267380E+02 -5.344573491E+02  4.189499157E+03  4.251704188E+03  6.103515625E-05  0.00000E+00  9.000E+00
#rwgt            2          18   1.6188385393544392E-003           1       64100           0
</event>
<event>
      5   9999  3.19816E-02  9.89070E+00 -1.00000E+00  1.96310E-01
      21    -1     0     0   502   501  0.000000000E+00  0.000000000E+00  5.990596000E+02  5.990596000E+02  0.000000000E+00  0.00000E+00  9.000E+00
      21    -1     0     0   501   511  0.000000000E+00  0.000000000E+00 -1.164983732E+02  1.164983732E+02  0.000000000E+00  0.00000E+00  9.000E+00
      25     1     1     2     0     0  6.459847254E+01  2.000499663E+02  3.667044464E+02  4.407835100E+02  1.250000000E+02  0.00000E+00  9.000E+00
      25     1     1     2     0     0 -6.941500905E+01 -1.914112763E+02  1.139549656E+02  2.647025772E+02  1.250000000E+02  0.00000E+00  9.000E+00
      21     1     1     2   502   511  4.816536507E+00 -8.638689965E+00  1.901814829E+00  1.007188601E+01  1.999200562E-07  0.00000E+00  9.000E+00
#rwgt            1           1   1.6208244989534545E-002           1       64134           0
</event>
<event>
      5   9999  3.19816E-02  7.25858E+01 -1.00000E+00  1.30428E-01
      21    -1     0     0   502   501  0.000000000E+00  0.000000000E+00  1.288963163E+02  1.288963163E+02  0.000000000E+00  0.00000E+00  9.000E+00
       2    -1     0     0   501     0  0.000000000E+00  0.000000000E+00 -2.210309596E+03  2.210309596E+03  0.000000000E+00  0.00000E+00  9.000E+00
      25     1     1     2     0     0 -1.070670010E+02  1.518898379E+01 -4.385943226E+00  1.653429298E+02  1.250000000E+02  0.00000E+00  9.000E+00
      25     1     1     2     0     0  4.431108040E+01  2.128555333E+01 -4.665090726E+01  1.421894995E+02  1.250000000E+02  0.00000E+00  9.000E+00
       2     1     1     2   502     0  6.275592062E+01 -3.647453711E+01 -2.030376430E+03  2.031673483E+03  2.157918644E-05  0.00000E+00  9.000E+00
#rwgt            1           1   3.5363596235405061E-002           1       64322           0
</event>
<event>
      5   9999  3.19816E-02  2.33818E+01 -1.00000E+00  1.60959E-01
      21    -1     0     0   502   511  0.000000000E+00  0.000000000E+00  8.219914273E+02  8.219914273E+02  0.000000000E+00  0.00000E+00  9.000E+00
      21    -1     0     0   501   502  0.000000000E+00  0.000000000E+00 -2.536394995E+03  2.536394995E+03  0.000000000E+00  0.00000E+00  9.000E+00
      25     1     1     2     0     0  5.500027882E+02 -2.647234326E+01  2.331215994E+02  6.108801290E+02  1.250000000E+02  0.00000E+00  9.000E+00
      25     1     1     2     0     0 -5.681846861E+02  4.117356485E+01 -2.310909296E+03  2.383370696E+03  1.250000000E+02  0.00000E+00  9.000E+00
      21     1     1     2   501   511  1.818189791E+01 -1.470122159E+01  3.633841294E+02  3.641355968E+02  5.394796609E-06  0.00000E+00  9.000E+00
#rwgt            1           1   2.4897681529478057E-002           1       64349           0
</event>
<event>
      5   9999  3.19816E-02  1.65237E+02 -1.00000E+00  1.14752E-01
      21    -1     0     0   502   501  0.000000000E+00  0.000000000E+00  4.571216918E+02  4.571216918E+02  0.000000000E+00  0.00000E+00  9.000E+00
       1    -1     0     0   501     0  0.000000000E+00  0.000000000E+00 -1.431511875E+03  1.431511875E+03  0.000000000E+00  0.00000E+00  9.000E+00
      25     1     1     2     0     0  4.040686415E+02 -5.632298951E+01  1.681394660E+02  4.586279824E+02  1.250000000E+02  0.00000E+00  9.000E+00
      25     1     1     2     0     0 -2.462279476E+02  7.441240520E+00 -6.583998107E-01  2.762408510E+02  1.250000000E+02  0.00000E+00  9.000E+00
       1     1     1     2   502     0 -1.578406939E+02  4.888174899E+01 -1.141871249E+03  1.153764733E+03  2.642899792E-05  0.00000E+00  9.000E+00
#rwgt            1           1   3.0311137329203958E-002           1       64591           0
</event>
<event>
      5   9999  3.19816E-02  4.77769E+01 -1.00000E+00  1.40212E-01
      21    -1     0     0   502   501  0.000000000E+00  0.000000000E+00  4.900359343E+02  4.900359343E+02  0.000000000E+00  0.00000E+00  9.000E+00
      21    -1     0     0   501   511  0.000000000E+00  0.000000000E+00 -6.046472499E+02  6.046472499E+02  0.000000000E+00  0.00000E+00  9.000E+00
      25     1     1     2     0     0  3.740185820E+02  1.303093094E+02  1.817033851E+02  4.533338019E+02  1.250000000E+02  0.00000E+00  9.000E+00
      25     1     1     2     0     0 -3.570096480E+02 -8.566262594E+01 -5.070894576E+01  3.911398361E+02  1.250000000E+02  0.00000E+00  9.000E+00
      21     1     1     2   502   511 -1.700893402E+01 -4.464668349E+01 -2.456057549E+02  2.502095462E+02  2.697398305E-06  0.00000E+00  9.000E+00
#rwgt            1           1   2.5801792916548622E-002           1       64638           0
</event>
<event>
      5   9999  3.19816E-02  5.99638E+01 -1.00000E+00  1.34717E-01
      21    -1     0     0   512   501  0.000000000E+00  0.000000000E+00  1.767185497E+02  1.767185497E+02  0.000000000E+00  0.00000E+00  9.000E+00
      21    -1     0     0   501   502  0.000000000E+00  0.000000000E+00 -1.273856804E+03  1.273856804E+03  0.000000000E+00  0.00000E+00  9.000E+00
      25     1     1     2     0     0  1.868990141E+02 -3.234704257E+01 -1.107171335E+03  1.130234903E+03  1.250000000E+02  0.00000E+00  9.000E+00
      25     1     1     2     0     0 -1.828601880E+02  9.217466356E+01 -3.876975684E+01  2.430269759E+02  1.250000000E+02  0.00000E+00  9.000E+00
      21     1     1     2   512   502 -4.038826067E+00 -5.982762099E+01  4.880283745E+01  7.731347420E+01  1.651812370E-06  0.00000E+00  9.000E+00
#rwgt            1           1   2.8209623669091282E-002           1       64771           0
</event>
<event>
      5   9999  3.19816E-02  4.40503E+01 -1.00000E+00  1.42289E-01
      21    -1     0     0   502   511  0.000000000E+00  0.000000000E+00  3.375317498E+02  3.375317498E+02  0.000000000E+00  0.00000E+00  9.000E+00
      21    -1     0     0   501   502  0.000000000E+00  0.000000000E+00 -6.604980508E+02  6.604980508E+02  0.000000000E+00  0.00000E+00  9.000E+00
      25     1     1     2     0     0  2.582001157E+02  2.364206762E+02 -3.868880048E+02  5.365345880E+02  1.250000000E+02  0.00000E+00  9.000E+00
      25     1     1     2     0     0 -2.824199664E+02 -2.732150774E+02  5.041377630E+01  4.154203471E+02  1.250000000E+02  0.00000E+00  9.000E+00
      21     1     1     2   501   511  2.421985070E+01  3.679440125E+01  1.350792747E+01  4.607486555E+01  5.331201500E-07  0.00000E+00  9.000E+00
#rwgt            2          11   4.0992161164032188E-003           1       64904           0
</event>
<event>
      5   9999  3.19816E-02  4.78640E+01 -1.00000E+00  1.40166E-01
      21    -1     0     0   502   501  0.000000000E+00  0.000000000E+00  3.649307998E+02  3.649307998E+02  0.000000000E+00  0.00000E+00  9.000E+00
      21    -1     0     0   501   512  0.000000000E+00  0.000000000E+00 -6.188431696E+02  6.188431696E+02  0.000000000E+00  0.00000E+00  9.000E+00
      25     1     1     2     0     0 -2.297522824E+02 -3.417760536E+02 -2.955695636E+01  4.313879875E+02  1.250000000E+02  0.00000E+00  9.000E+00
      25     1     1     2     0     0  2.762685799E+02  3.304979758E+02 -1.692590197E+02  4.794026032E+02  1.250000000E+02  0.00000E+00  9.000E+00
      21     1     1     2   502   512 -4.651629747E+01  1.127807779E+01 -5.509639378E+01  7.298337876E+01  1.348699152E-06  0.00000E+00  9.000E+00
#rwgt            1           1   2.7965727335963628E-002           1       64924           0
</event>
<event>
      5   9999  3.19816E-02  2.10077E+01 -1.00000E+00  1.64627E-01
      21    -1     0     0   502   501  0.000000000E+00  0.000000000E+00  6.719402032E+02  6.719402032E+02  0.000000000E+00  0.00000E+00  9.000E+00
       2    -1     0     0   501     0  0.000000000E+00  0.000000000E+00 -1.195034713E+03  1.195034713E+03  0.000000000E+00  0.00000E+00  9.000E+00
      25     1     1     2     0     0 -2.388037653E+02  1.285589735E+02  1.699600611E+02  3.436074364E+02  1.250000000E+02  0.00000E+00  9.000E+00
      25     1     1     2     0     0  2.308237861E+02 -1.479919826E+02  3.603559876E+02  4.697474693E+02  1.250000000E+02  0.00000E+00  9.000E+00
       2     1     1     2   502     0  7.979979228E+00  1.943300909E+01 -1.053410559E+03  1.053620011E+03  2.157918644E-05  0.00000E+00  9.000E+00
#rwgt            1           1   2.6921000799462160E-002           1       65044           0
</event>
<event>
      5   9999  3.19816E-02  2.28546E+01 -1.00000E+00  1.61726E-01
      21    -1     0     0   511   501  0.000000000E+00  0.000000000E+00  1.058142861E+03  1.058142861E+03  0.000000000E+00  0.00000E+00  9.000E+00
      21    -1     0     0   501   502  0.000000000E+00  0.000000000E+00 -1.605275365E+02  1.605275365E+02  0.000000000E+00  0.00000E+00  9.000E+00
      25     1     1     2     0     0 -2.034969794E+02 -1.780921833E+02  6.513159192E+02  7.162159402E+02  1.250000000E+02  0.00000E+00  9.000E+00
      25     1     1     2     0     0  2.196551114E+02  1.942552940E+02  7.216620580E+01  3.268278576E+02  1.250000000E+02  0.00000E+00  9.000E+00
      21     1     1     2   511   502 -1.615813203E+01 -1.616311067E+01  1.741331994E+02  1.756265997E+02  2.697398305E-06  0.00000E+00  9.000E+00
#rwgt            1           1   2.7433779361774255E-002           1       65185           0
</event>
<event>
      5   9999  3.19816E-02  6.63668E+02 -1.00000E+00  9.54795E-02
      21    -1     0     0   502   501  0.000000000E+00  0.000000000E+00  4.417919774E+02  4.417919774E+02  0.000000000E+00  0.00000E+00  9.000E+00
       2    -1     0     0   501     0  0.000000000E+00  0.000000000E+00 -1.388211401E+03  1.388211401E+03  0.000000000E+00  0.00000E+00  9.000E+00
      25     1     1     2     0     0 -1.915454677E+02 -5.079746080E+02 -6.029531769E+02  8.209174149E+02  1.250000000E+02  0.00000E+00  9.000E+00
      25     1     1     2     0     0 -2.112426593E+02 -1.948803475E+01  2.918652869E+01  2.479518060E+02  1.250000000E+02  0.00000E+00  9.000E+00
       2     1     1     2   502     0  4.027881270E+02  5.274626427E+02 -3.726527754E+02  7.611341575E+02  1.206313194E-05  0.00000E+00  9.000E+00
#rwgt            2          13   6.9758714173831277E-004           1       65452           0
</event>
<event>
      5   9999  3.19816E-02  8.44156E+01 -1.00000E+00  1.27230E-01
      21    -1     0     0   502   511  0.000000000E+00  0.000000000E+00  1.630381547E+02  1.630381547E+02  0.000000000E+00  0.00000E+00  9.000E+00
      21    -1     0     0   501   502  0.000000000E+00  0.000000000E+00 -1.485726913E+03  1.485726913E+03  0.000000000E+00  0.00000E+00  9.000E+00
      25     1     1     2     0     0 -2.946114467E+02 -1.194138104E+02 -1.460662765E+02  3.715049391E+02  1.250000000E+02  0.00000E+00  9.000E+00
      25     1     1     2     0     0  2.422196465E+02  5.322396847E+01 -1.157971023E+03  1.190808565E+03  1.250000000E+02  0.00000E+00  9.000E+00
      21     1     1     2   501   511  5.239180021E+01  6.618984198E+01 -1.865145835E+01  8.645156337E+01  2.211002945E-06  0.00000E+00  9.000E+00
#rwgt            1           1   2.3925214966082888E-002           1       65471           0
</event>
<event>
      5   9999  3.19816E-02  3.62709E+01 -1.00000E+00  1.47526E-01
      21    -1     0     0   512   501  0.000000000E+00  0.000000000E+00  4.703201037E+02  4.703201037E+02  0.000000000E+00  0.00000E+00  9.000E+00
      21    -1     0     0   501   502  0.000000000E+00  0.000000000E+00 -4.261272771E+02  4.261272771E+02  0.000000000E+00  0.00000E+00  9.000E+00
      25     1     1     2     0     0  3.110691575E+02 -9.916875606E+01  2.237432849E+02  4.150717052E+02  1.250000000E+02  0.00000E+00  9.000E+00
      25     1     1     2     0     0 -2.818961261E+02  7.761620274E+01 -2.484334597E+02  4.035268079E+02  1.250000000E+02  0.00000E+00  9.000E+00
      21     1     1     2   512   502 -2.917303141E+01  2.155255332E+01  6.888300142E+01  7.784886769E+01  0.000000000E+00  0.00000E+00  9.000E+00
#rwgt            1           1   2.6846756482481426E-002           1       65601           0
</event>
<event>
      5   9999  3.19816E-02  4.52282E+02 -1.00000E+00  1.00105E-01
       2    -1     0     0   502     0  0.000000000E+00  0.000000000E+00  2.388150701E+03  2.388150701E+03  0.000000000E+00  0.00000E+00  9.000E+00
      21    -1     0     0   501   502  0.000000000E+00  0.000000000E+00 -7.159140739E+02  7.159140739E+02  0.000000000E+00  0.00000E+00  9.000E+00
      25     1     1     2     0     0 -5.317348121E+02  1.677804895E+02 -3.693094441E+02  6.803724484E+02  1.250000000E+02  0.00000E+00  9.000E+00
      25     1     1     2     0     0  3.423817179E+02 -5.785166860E+02  5.893620876E+02  9.027067448E+02  1.250000000E+02  0.00000E+00  9.000E+00
       2     1     1     2   501     0  1.893530942E+02  4.107361965E+02  1.452183984E+03  1.520985582E+03  0.000000000E+00  0.00000E+00  9.000E+00
#rwgt            1           1   2.7842408979095783E-002           1       65695           0
</event>
<event>
      5   9999  3.19816E-02  2.36550E+01 -1.00000E+00  1.60571E-01
       1    -1     0     0   502     0  0.000000000E+00  0.000000000E+00  1.300294662E+03  1.300294662E+03  0.000000000E+00  0.00000E+00  9.000E+00
      21    -1     0     0   501   502  0.000000000E+00  0.000000000E+00 -3.308909794E+02  3.308909794E+02  0.000000000E+00  0.00000E+00  9.000E+00
      25     1     1     2     0     0 -3.003142825E+02  4.327732072E+02  6.055142932E+02  8.122523477E+02  1.250000000E+02  0.00000E+00  9.000E+00
      25     1     1     2     0     0  2.886971419E+02 -4.121674010E+02  6.898218752E+01  5.230789122E+02  1.250000000E+02  0.00000E+00  9.000E+00
       1     1     1     2   501     0  1.161714057E+01 -2.060580619E+01  2.949072025E+02  2.958543819E+02  3.814697266E-06  0.00000E+00  9.000E+00
#rwgt            1           1   2.7628987660233542E-002           1       65737           0
</event>
<event>
      5   9999  3.19816E-02  3.48285E+02 -1.00000E+00  1.03528E-01
      21    -1     0     0   502   501  0.000000000E+00  0.000000000E+00  1.784556570E+02  1.784556570E+02  0.000000000E+00  0.00000E+00  9.000E+00
       3    -1     0     0   501     0  0.000000000E+00  0.000000000E+00 -2.177315776E+03  2.177315776E+03  0.000000000E+00  0.00000E+00  9.000E+00
      25     1     1     2     0     0 -1.396154061E+02 -7.668648831E+01 -2.685581862E+02  3.363358121E+02  1.250000000E+02  0.00000E+00  9.000E+00
      25     1     1     2     0     0 -1.792911746E+02  2.166889669E+02 -6.045580762E+01  3.136548076E+02  1.250000000E+02  0.00000E+00  9.000E+00
       3     1     1     2   502     0  3.189065808E+02 -1.400024786E+02 -1.669846125E+03  1.705780813E+03  3.737624730E-05  0.00000E+00  9.000E+00
#rwgt            2          14   5.1788512266216865E-005           1       65948           0
</event>
<event>
      5   9999  3.19816E-02  3.61917E+02 -1.00000E+00  1.03010E-01
      21    -1     0     0   502   501  0.000000000E+00  0.000000000E+00  1.766407242E+03  1.766407242E+03  0.000000000E+00  0.00000E+00  9.000E+00
      21    -1     0     0   501   511  0.000000000E+00  0.000000000E+00 -1.550778902E+03  1.550778902E+03  0.000000000E+00  0.00000E+00  9.000E+00
      25     1     1     2     0     0  2.415797966E+02 -1.529267805E+02  1.640353806E+03  1.669770346E+03  1.250000000E+02  0.00000E+00  9.000E+00
      25     1     1     2     0     0 -2.260021626E+02 -2.086550076E+02 -2.428208207E+02  4.113402979E+02  1.250000000E+02  0.00000E+00  9.000E+00
      21     1     1     2   502   511 -1.557763401E+01  3.615817881E+02 -1.181904645E+03  1.236075500E+03  1.525878906E-05  0.00000E+00  9.000E+00
#rwgt            2          11   3.1705019269504505E-003           1       65997           0
</event>
<event>
      5   9999  3.19816E-02  8.52538E+01 -1.00000E+00  1.27027E-01
      21    -1     0     0   502   512  0.000000000E+00  0.000000000E+00  5.235659202E+02  5.235659202E+02  0.000000000E+00  0.00000E+00  9.000E+00
      21    -1     0     0   501   502  0.000000000E+00  0.000000000E+00 -9.645176896E+02  9.645176896E+02  0.000000000E+00  0.00000E+00  9.000E+00
      25     1     1     2     0     0  5.554927229E+02 -2.011741220E+01 -1.977620528E+02  6.030851556E+02  1.250000000E+02  0.00000E+00  9.000E+00
      25     1     1     2     0     0 -5.534492384E+02  1.053467202E+02 -4.029975128E+02  7.038721378E+02  1.250000000E+02  0.00000E+00  9.000E+00
      21     1     1     2   501   512 -2.043484404E+00 -8.522930802E+01  1.598077961E+02  1.811263164E+02  1.907348633E-06  0.00000E+00  9.000E+00
#rwgt            1           1   2.5917321881707336E-002           1       66017           0
</event>
<event>
      5   9999  3.19816E-02  1.42449E+01 -1.00000E+00  1.79523E-01
      21    -1     0     0   502   501  0.000000000E+00  0.000000000E+00  1.286029802E+03  1.286029802E+03  0.000000000E+00  0.00000E+00  9.000E+00
      -2    -1     0     0     0   502  0.000000000E+00  0.000000000E+00 -7.257859130E+02  7.257859130E+02  0.000000000E+00  0.00000E+00  9.000E+00
      25     1     1     2     0     0 -1.319707587E+02 -4.917645788E+01  1.183853168E+03  1.198735971E+03  1.250000000E+02  0.00000E+00  9.000E+00
      25     1     1     2     0     0  1.197568395E+02  5.650696349E+01  7.074107173E+00  1.822355084E+02  1.250000000E+02  0.00000E+00  9.000E+00
      -2     1     1     2     0   501  1.221391918E+01 -7.330505614E+00 -6.306833860E+02  6.308442355E+02  7.629394531E-06  0.00000E+00  9.000E+00
#rwgt            1           1   2.5850046027437942E-002           1       66095           0
</event>
<event>
      5   9999  3.19816E-02  3.59768E+02 -1.00000E+00  1.03090E-01
      21    -1     0     0   511   501  0.000000000E+00  0.000000000E+00  2.224245352E+03  2.224245352E+03  0.000000000E+00  0.00000E+00  9.000E+00
      21    -1     0     0   501   502  0.000000000E+00  0.000000000E+00 -1.640576187E+03  1.640576187E+03  0.000000000E+00  0.00000E+00  9.000E+00
      25     1     1     2     0     0 -5.775240967E+02  3.437618440E+02  1.725771391E+03  1.856237641E+03  1.250000000E+02  0.00000E+00  9.000E+00
      25     1     1     2     0     0  3.512485283E+02 -6.234618031E+02 -1.392268710E+03  1.570387630E+03  1.250000000E+02  0.00000E+00  9.000E+00
      21     1     1     2   511   502  2.262755684E+02  2.796999591E+02  2.501664832E+02  4.381962680E+02  1.009274029E-05  0.00000E+00  9.000E+00
#rwgt            1           1   3.8483449164113483E-002           1       66224           0
</event>
<event>
      5   9999  3.19816E-02  5.49784E+01 -1.00000E+00  1.36764E-01
      21    -1     0     0   502   501  0.000000000E+00  0.000000000E+00  1.340156515E+02  1.340156515E+02  0.000000000E+00  0.00000E+00  9.000E+00
      21    -1     0     0   501   512  0.000000000E+00  0.000000000E+00 -4.769888085E+02  4.769888085E+02  0.000000000E+00  0.00000E+00  9.000E+00
      25     1     1     2     0     0  8.288929648E+01  7.834698384E+01 -3.985556738E+01  1.738457696E+02  1.250000000E+02  0.00000E+00  9.000E+00
      25     1     1     2     0     0 -7.303291507E+01 -2.425930389E+01 -1.928615292E+01  1.480515998E+02  1.250000000E+02  0.00000E+00  9.000E+00
      21     1     1     2   502   512 -9.856381408E+00 -5.408767995E+01 -2.838314367E+02  2.891070906E+02  3.814697266E-06  0.00000E+00  9.000E+00
#rwgt            1           1   7.1184178709148477E-002           1       66267           0
</event>
<event>
      5   9999  3.19816E-02  4.46716E+02 -1.00000E+00  1.00262E-01
      21    -1     0     0   502   501  0.000000000E+00  0.000000000E+00  2.206516390E+02  2.206516390E+02  0.000000000E+00  0.00000E+00  9.000E+00
      21    -1     0     0   511   502  0.000000000E+00  0.000000000E+00 -1.424853273E+03  1.424853273E+03  0.000000000E+00  0.00000E+00  9.000E+00
      25     1     1     2     0     0  1.794373208E+02  4.364808498E+02 -6.235455031E+02  7.919263089E+02  1.250000000E+02  0.00000E+00  9.000E+00
      25     1     1     2     0     0  6.170052489E+01 -6.043816973E+01 -5.005417615E+01  1.599692085E+02  1.250000000E+02  0.00000E+00  9.000E+00
      21     1     1     2   511   501 -2.411378457E+02 -3.760426800E+02 -5.306019545E+02  6.936093944E+02  7.629394531E-06  0.00000E+00  9.000E+00
#rwgt            2          11   2.4954116298836204E-003           1       66385           0
</event>
<event>
      5   9999  3.19816E-02  6.42551E+02 -1.00000E+00  9.58527E-02
      21    -1     0     0   502   501  0.000000000E+00  0.000000000E+00  2.109644063E+02  2.109644063E+02  0.000000000E+00  0.00000E+00  9.000E+00
       2    -1     0     0   501     0  0.000000000E+00  0.000000000E+00 -3.402721921E+03  3.402721921E+03  0.000000000E+00  0.00000E+00  9.000E+00
      25     1     1     2     0     0 -5.385693913E+02  2.008065061E+02 -7.945831355E+02  9.886190375E+02  1.250000000E+02  0.00000E+00  9.000E+00
      25     1     1     2     0     0  1.406023394E+02  3.036674734E+02 -4.496186977E+02  5.742516222E+02  1.250000000E+02  0.00000E+00  9.000E+00
       2     1     1     2   502     0  3.979670519E+02 -5.044739795E+02 -1.947555682E+03  2.050815668E+03  3.737624730E-05  0.00000E+00  9.000E+00
#rwgt            2          13   1.1286668184456014E-003           1       66450           0
</event>
<event>
      5   9999  3.19816E-02  1.05709E+01 -1.00000E+00  1.93010E-01
      21    -1     0     0   502   501  0.000000000E+00  0.000000000E+00  4.369900603E+02  4.369900603E+02  0.000000000E+00  0.00000E+00  9.000E+00
      21    -1     0     0   511   502  0.000000000E+00  0.000000000E+00 -1.935005026E+02  1.935005026E+02  0.000000000E+00  0.00000E+00  9.000E+00
      25     1     1     2     0     0  2.202473543E+02 -8.353033221E+01  2.313652698E+02  3.530454667E+02  1.250000000E+02  0.00000E+00  9.000E+00
      25     1     1     2     0     0 -2.160033720E+02  9.321193687E+01  9.598265987E+00  2.665765343E+02  1.250000000E+02  0.00000E+00  9.000E+00
      21     1     1     2   511   501 -4.243982225E+00 -9.681604652E+00  2.526021858E+00  1.086856201E+01  1.519626234E-07  0.00000E+00  9.000E+00
#rwgt            1           1   2.6280267528746508E-002           1       66484           0
</event>
<event>
      5   9999  3.19816E-02  2.34911E+01 -1.00000E+00  1.60803E-01
      21    -1     0     0   502   501  0.000000000E+00  0.000000000E+00  3.520826837E+02  3.520826837E+02  0.000000000E+00  0.00000E+00  9.000E+00
       2    -1     0     0   501     0  0.000000000E+00  0.000000000E+00 -2.469374265E+03  2.469374265E+03  0.000000000E+00  0.00000E+00  9.000E+00
      25     1     1     2     0     0  2.577143343E+02  5.666080045E+02 -1.951737080E+03  2.052404428E+03  1.250000000E+02  0.00000E+00  9.000E+00
      25     1     1     2     0     0 -2.379135989E+02 -5.792477562E+02 -3.836197811E+01  6.397089064E+02  1.250000000E+02  0.00000E+00  9.000E+00
       2     1     1     2   502     0 -1.980073533E+01  1.263975167E+01 -1.271925237E+02  1.293436142E+02  3.015782986E-06  0.00000E+00  9.000E+00
#rwgt            1           1   2.5454454212143773E-002           1       66673           0
</event>
<event>
      5   9999  3.19816E-02  5.81857E+01 -1.00000E+00  1.35420E-01
      21    -1     0     0   502   501  0.000000000E+00  0.000000000E+00  1.799631610E+03  1.799631610E+03  0.000000000E+00  0.00000E+00  9.000E+00
      21    -1     0     0   501   511  0.000000000E+00  0.000000000E+00 -1.077945537E+03  1.077945537E+03  0.000000000E+00  0.00000E+00  9.000E+00
      25     1     1     2     0     0 -5.734075508E+02 -1.319392799E+02  4.190453556E+02  7.330949481E+02  1.250000000E+02  0.00000E+00  9.000E+00
      25     1     1     2     0     0  5.157088888E+02  1.244264692E+02  1.161832330E+03  1.283322628E+03  1.250000000E+02  0.00000E+00  9.000E+00
      21     1     1     2   502   511  5.769866203E+01  7.512810682E+00 -8.591916134E+02  8.611595708E+02  0.000000000E+00  0.00000E+00  9.000E+00
#rwgt            1           1   3.0551570586011118E-002           1       66882           0
</event>
<event>
      5   9999  3.19816E-02  2.86666E+01 -1.00000E+00  1.54424E-01
      21    -1     0     0   502   501  0.000000000E+00  0.000000000E+00  2.056338339E+03  2.056338339E+03  0.000000000E+00  0.00000E+00  9.000E+00
      21    -1     0     0   501   512  0.000000000E+00  0.000000000E+00 -3.386155506E+02  3.386155506E+02  0.000000000E+00  0.00000E+00  9.000E+00
      25     1     1     2     0     0 -4.054124045E+02  6.480295163E+02  6.602871028E+02  1.017794444E+03  1.250000000E+02  0.00000E+00  9.000E+00
      25     1     1     2     0     0  3.821781934E+02 -6.648208231E+02  1.086902000E+03  1.336049346E+03  1.250000000E+02  0.00000E+00  9.000E+00
      21     1     1     2   502   512  2.323421113E+01  1.679130689E+01 -2.946631468E+01  4.111009919E+01  1.011524364E-06  0.00000E+00  9.000E+00
#rwgt            1           1   3.9059081932669881E-002           1       67033           0
</event>
<event>
      5   9999  3.19816E-02  1.66339E+01 -1.00000E+00  1.73255E-01
      21    -1     0     0   511   501  0.000000000E+00  0.000000000E+00  1.401170036E+03  1.401170036E+03  0.000000000E+00  0.00000E+00  9.000E+00
      21    -1     0     0   501   502  0.000000000E+00  0.000000000E+00 -1.036417238E+02  1.036417238E+02  0.000000000E+00  0.00000E+00  9.000E+00
      25     1     1     2     0     0  2.557051792E+02  2.076771722E+02  4.974561172E+02  6.095921055E+02  1.250000000E+02  0.00000E+00  9.000E+00
      25     1     1     2     0     0 -2.602806307E+02 -2.236694429E+02  6.613327543E+02  7.554866235E+02  1.250000000E+02  0.00000E+00  9.000E+00
      21     1     1     2   511   502  4.575451433E+00  1.599227068E+01  1.387394407E+02  1.397330308E+02  1.907348633E-06  0.00000E+00  9.000E+00
#rwgt            1           1   2.6917861969486586E-002           1       67263           0
</event>
<event>
      5   9999  3.19816E-02  2.43584E+01 -1.00000E+00  1.59601E-01
      21    -1     0     0   502   501  0.000000000E+00  0.000000000E+00  1.475162454E+02  1.475162454E+02  0.000000000E+00  0.00000E+00  9.000E+00
      21    -1     0     0   501   512  0.000000000E+00  0.000000000E+00 -1.673631570E+03  1.673631570E+03  0.000000000E+00  0.00000E+00  9.000E+00
      25     1     1     2     0     0 -3.193533599E+02  1.519657655E+02 -7.800836470E+02  8.655839986E+02  1.250000000E+02  0.00000E+00  9.000E+00
      25     1     1     2     0     0  2.991049147E+02 -1.384257166E+02 -1.927571386E+02  4.017533366E+02  1.250000000E+02  0.00000E+00  9.000E+00
      21     1     1     2   502   512  2.024844520E+01 -1.354004896E+01 -5.532745393E+02  5.538104805E+02  7.629394531E-06  0.00000E+00  9.000E+00
#rwgt            1           1   2.9428720767853529E-002           1       67434           0
</event>
<event>
      5   9999  3.19816E-02  4.53224E+01 -1.00000E+00  1.41554E-01
      21    -1     0     0   511   501  0.000000000E+00  0.000000000E+00  4.305844522E+02  4.305844522E+02  0.000000000E+00  0.00000E+00  9.000E+00
      21    -1     0     0   501   502  0.000000000E+00  0.000000000E+00 -4.321011412E+02  4.321011412E+02  0.000000000E+00  0.00000E+00  9.000E+00
      25     1     1     2     0     0 -1.207298139E+02 -1.738644244E+01  1.277418524E+02  2.163815085E+02  1.250000000E+02  0.00000E+00  9.000E+00
      25     1     1     2     0     0  1.614522578E+02 -2.508389892E+00 -3.585257280E+02  4.126000742E+02  1.250000000E+02  0.00000E+00  9.000E+00
      21     1     1     2   511   502 -4.072244386E+01  1.989483233E+01  2.292671866E+02  2.337040108E+02  0.000000000E+00  0.00000E+00  9.000E+00
#rwgt            1           1   2.5806493000945771E-002           1       67572           0
</event>
<event>
      5   9999  3.19816E-02  4.19059E+01 -1.00000E+00  1.43598E-01
      21    -1     0     0   502   501  0.000000000E+00  0.000000000E+00  4.100426159E+01  4.100426159E+01  0.000000000E+00  0.00000E+00  9.000E+00
       2    -1     0     0   501     0  0.000000000E+00  0.000000000E+00 -2.328939499E+03  2.328939499E+03  0.000000000E+00  0.00000E+00  9.000E+00
      25     1     1     2     0     0 -8.795193839E+01  2.040699084E+02 -1.472253138E+03  1.494166783E+03  1.250000000E+02  0.00000E+00  9.000E+00
      25     1     1     2     0     0  5.640157433E+01 -2.316502630E+02 -7.587146565E+02  8.050564650E+02  1.250000000E+02  0.00000E+00  9.000E+00
       2     1     1     2   502     0  3.155036406E+01  2.758035460E+01 -5.696744268E+01  7.072051299E+01  6.743495762E-07  0.00000E+00  9.000E+00
#rwgt            1           1   7.2385083158335348E-002           1       67698           0
</event>
<event>
      5   9999  3.19816E-02  4.04215E+01 -1.00000E+00  1.44558E-01
       1    -1     0     0   502     0  0.000000000E+00  0.000000000E+00  1.036666993E+03  1.036666993E+03  0.000000000E+00  0.00000E+00  9.000E+00
      21    -1     0     0   501   502  0.000000000E+00  0.000000000E+00 -2.779504577E+02  2.779504577E+02  0.000000000E+00  0.00000E+00  9.000E+00
      25     1     1     2     0     0 -3.692743100E+02  1.264011386E+02  2.400090875E+02  4.749422343E+02  1.250000000E+02  0.00000E+00  9.000E+00
      25     1     1     2     0     0  4.051014201E+02 -1.451179531E+02  1.556296310E+02  4.743542589E+02  1.250000000E+02  0.00000E+00  9.000E+00
       1     1     1     2   501     0 -3.582711003E+01  1.871681451E+01  3.630778163E+02  3.653209570E+02  5.394796609E-06  0.00000E+00  9.000E+00
#rwgt            1           1   2.6477800910895258E-002           1       67758           0
</event>
<event>
      5   9999  3.19816E-02  7.66329E+01 -1.00000E+00  1.29260E-01
       2    -1     0     0   502     0  0.000000000E+00  0.000000000E+00  2.197564808E+03  2.197564808E+03  0.000000000E+00  0.00000E+00  9.000E+00
      21    -1     0     0   501   502  0.000000000E+00  0.000000000E+00 -7.359705773E+02  7.359705773E+02  0.000000000E+00  0.00000E+00  9.000E+00
      25     1     1     2     0     0  9.887082338E+02  5.058510712E+02  6.162165583E+02  1.276235529E+03  1.250000000E+02  0.00000E+00  9.000E+00
      25     1     1     2     0     0 -1.027514971E+03 -4.397705285E+02  3.821731030E+02  1.187798979E+03  1.250000000E+02  0.00000E+00  9.000E+00
       2     1     1     2   501     0  3.880673745E+01 -6.608054266E+01  4.632045695E+02  4.695008778E+02  0.000000000E+00  0.00000E+00  9.000E+00
#rwgt            1           1   3.1883246970791798E-002           1       67921           0
</event>
<event>
      5   9999  3.19816E-02  7.54850E+01 -1.00000E+00  1.29583E-01
      21    -1     0     0   502   511  0.000000000E+00  0.000000000E+00  4.349477773E+02  4.349477773E+02  0.000000000E+00  0.00000E+00  9.000E+00
      21    -1     0     0   501   502  0.000000000E+00  0.000000000E+00 -1.704867621E+03  1.704867621E+03  0.000000000E+00  0.00000E+00  9.000E+00
      25     1     1     2     0     0 -1.258826037E+02 -3.293057503E+02 -1.517201749E+03  1.562630748E+03  1.250000000E+02  0.00000E+00  9.000E+00
      25     1     1     2     0     0  1.893701394E+02  3.701385143E+02  2.512191153E+02  5.015970628E+02  1.250000000E+02  0.00000E+00  9.000E+00
      21     1     1     2   501   511 -6.348753571E+01 -4.083276405E+01 -3.937210188E+00  7.558758783E+01  6.769786293E-07  0.00000E+00  9.000E+00
#rwgt            1           1   3.1303437968189692E-002           1       68098           0
</event>
<event>
      5   9999  3.19816E-02  4.85395E+02 -1.00000E+00  9.92191E-02
      21    -1     0     0   502   501  0.000000000E+00  0.000000000E+00  4.051206315E+02  4.051206315E+02  0.000000000E+00  0.00000E+00  9.000E+00
      21    -1     0     0   512   502  0.000000000E+00  0.000000000E+00 -1.696668449E+03  1.696668449E+03  0.000000000E+00  0.00000E+00  9.000E+00
      25     1     1     2     0     0 -5.998794179E+02 -2.329469251E+01 -3.876523928E+02  7.254635321E+02  1.250000000E+02  0.00000E+00  9.000E+00
      25     1     1     2     0     0  3.266432291E+02  4.244804742E+02 -4.323200047E+02  6.995749128E+02  1.250000000E+02  0.00000E+00  9.000E+00
      21     1     1     2   512   501  2.732361888E+02 -4.011857817E+02 -4.715754202E+02  6.767506359E+02  0.000000000E+00  0.00000E+00  9.000E+00
#rwgt            2          11   1.9537290288891120E-003           1       68241           0
</event>
<event>
      5   9999  3.19816E-02  1.05976E+02 -1.00000E+00  1.22705E-01
       2    -1     0     0   502     0  0.000000000E+00  0.000000000E+00  2.902887939E+03  2.902887939E+03  0.000000000E+00  0.00000E+00  9.000E+00
      21    -1     0     0   501   502  0.000000000E+00  0.000000000E+00 -2.084328778E+02  2.084328778E+02  0.000000000E+00  0.00000E+00  9.000E+00
      25     1     1     2     0     0  3.838103009E+02 -2.047934670E+02  9.947276959E+01  4.634334289E+02  1.250000000E+02  0.00000E+00  9.000E+00
      25     1     1     2     0     0 -2.968703506E+02  2.653926865E+02  1.939949570E+03  1.984337325E+03  1.250000000E+02  0.00000E+00  9.000E+00
       2     1     1     2   501     0 -8.693995023E+01 -6.059921950E+01  6.550327212E+02  6.635500630E+02  0.000000000E+00  0.00000E+00  9.000E+00
#rwgt            1           1   3.4168696811085073E-002           1       68261           0
</event>
<event>
      5   9999  3.19816E-02  9.75673E+01 -1.00000E+00  1.24311E-01
      21    -1     0     0   502   501  0.000000000E+00  0.000000000E+00  4.985251674E+02  4.985251674E+02  0.000000000E+00  0.00000E+00  9.000E+00
      21    -1     0     0   501   511  0.000000000E+00  0.000000000E+00 -7.497352549E+02  7.497352549E+02  0.000000000E+00  0.00000E+00  9.000E+00
      25     1     1     2     0     0 -5.152879115E+01  4.652204869E+02  1.323952624E+02  5.022338332E+02  1.250000000E+02  0.00000E+00  9.000E+00
      25     1     1     2     0     0 -3.091251378E+01 -5.174010605E+02 -2.746256481E+02  5.997530221E+02  1.250000000E+02  0.00000E+00  9.000E+00
      21     1     1     2   502   511  8.244130492E+01  5.218057360E+01 -1.089797017E+02  1.462735670E+02  2.697398305E-06  0.00000E+00  9.000E+00
#rwgt            1           1   2.8764952931756887E-002           1       68325           0
</event>
<event>
      5   9999  3.19816E-02  2.04768E+02 -1.00000E+00  1.11277E-01
      21    -1     0     0   512   501  0.000000000E+00  0.000000000E+00  8.822693401E+02  8.822693401E+02  0.000000000E+00  0.00000E+00  9.000E+00
      21    -1     0     0   501   502  0.000000000E+00  0.000000000E+00 -5.764484153E+02  5.764484153E+02  0.000000000E+00  0.00000E+00  9.000E+00
      25     1     1     2     0     0  2.604111723E+01  3.292406000E+02 -3.824622178E+02  5.205572596E+02  1.250000000E+02  0.00000E+00  9.000E+00
      25     1     1     2     0     0 -2.308023660E+02 -3.309056454E+02  3.804945986E+02  5.684799186E+02  1.250000000E+02  0.00000E+00  9.000E+00
      21     1     1     2   512   502  2.047612488E+02  1.665045366E+00  3.077885440E+02  3.696805772E+02  6.607249480E-06  0.00000E+00  9.000E+00
#rwgt            1           1   3.2378397573653073E-002           1       68421           0
</event>
<event>
      5   9999  3.19816E-02  8.99371E+01 -1.00000E+00  1.25936E-01
       1    -1     0     0   502     0  0.000000000E+00  0.000000000E+00  9.695735823E+02  9.695735823E+02  0.000000000E+00  0.00000E+00  9.000E+00
      21    -1     0     0   501   502  0.000000000E+00  0.000000000E+00 -6.352842282E+01  6.352842282E+01  0.000000000E+00  0.00000E+00  9.000E+00
      25     1     1     2     0     0  2.781274300E+01  6.432798644E+01  5.509965235E+02  5.693275046E+02  1.250000000E+02  0.00000E+00  9.000E+00
      25     1     1     2     0     0  2.202967787E+00 -1.491085512E+02  1.714967985E+02  2.593730229E+02  1.250000000E+02  0.00000E+00  9.000E+00
       1     1     1     2   501     0 -3.001571079E+01  8.478056473E+01  1.835518375E+02  2.044014777E+02  3.814697266E-06  0.00000E+00  9.000E+00
#rwgt            1           1   3.0138077036889761E-002           1       68527           0
</event>
<event>
      5   9999  3.19816E-02  1.86460E+02 -1.00000E+00  1.12768E-01
      21    -1     0     0   502   501  0.000000000E+00  0.000000000E+00  1.343356044E+03  1.343356044E+03  0.000000000E+00  0.00000E+00  9.000E+00
      21    -1     0     0   501   511  0.000000000E+00  0.000000000E+00 -3.298470544E+02  3.298470544E+02  0.000000000E+00  0.00000E+00  9.000E+00
      25     1     1     2     0     0 -1.915149900E+02 -1.987220673E+02  7.212738638E+02  7.823231033E+02  1.250000000E+02  0.00000E+00  9.000E+00
      25     1     1     2     0     0  2.060955017E+01  1.241649398E+02  5.470718236E+02  5.751123943E+02  1.250000000E+02  0.00000E+00  9.000E+00
      21     1     1     2   502   511  1.709054399E+02  7.455712754E+01 -2.548366983E+02  3.157676003E+02  6.607249480E-06  0.00000E+00  9.000E+00
#rwgt            1           1   2.7471734309559046E-002           1       68577           0
</event>
<event>
      5   9999  3.19816E-02  3.11268E+01 -1.00000E+00  1.51936E-01
      21    -1     0     0   502   501  0.000000000E+00  0.000000000E+00  3.836339647E+02  3.836339647E+02  0.000000000E+00  0.00000E+00  9.000E+00
      21    -1     0     0   512   502  0.000000000E+00  0.000000000E+00 -2.480046575E+03  2.480046575E+03  0.000000000E+00  0.00000E+00  9.000E+00
      25     1     1     2     0     0  8.827269404E+01  1.443269218E+02  3.326980590E+02  3.936182508E+02  1.250000000E+02  0.00000E+00  9.000E+00
      25     1     1     2     0     0 -9.921195027E+01 -1.734680878E+02 -6.625856727E+02  7.032630818E+02  1.250000000E+02  0.00000E+00  9.000E+00
      21     1     1     2   512   501  1.093925623E+01  2.914116598E+01 -1.766524997E+03  1.766799207E+03  2.157918644E-05  0.00000E+00  9.000E+00
#rwgt            1           1   2.8397602584801649E-002           1       68619           0
</event>
<event>
      5   9999  3.19816E-02  1.23237E+02 -1.00000E+00  1.19880E-01
      21    -1     0     0   502   501  0.000000000E+00  0.000000000E+00  8.960388883E+02  8.960388883E+02  0.000000000E+00  0.00000E+00  9.000E+00
      21    -1     0     0   501   511  0.000000000E+00  0.000000000E+00 -3.322098385E+02  3.322098385E+02  0.000000000E+00  0.00000E+00  9.000E+00
      25     1     1     2     0     0 -1.642877512E+02  2.976484066E+02  2.951468680E+02  4.672490908E+02  1.250000000E+02  0.00000E+00  9.000E+00
      25     1     1     2     0     0  4.248026405E+01 -2.789309170E+02  4.476459528E+02  5.437084957E+02  1.250000000E+02  0.00000E+00  9.000E+00
      21     1     1     2   502   511  1.218074872E+02 -1.871748965E+01 -1.789637709E+02  2.172911403E+02  2.697398305E-06  0.00000E+00  9.000E+00
#rwgt            1           1   2.8111649643479883E-002           1       68749           0
</event>
<event>
      5   9999  3.19816E-02  9.75087E+00 -1.00000E+00  1.97032E-01
      21    -1     0     0   502   501  0.000000000E+00  0.000000000E+00  4.445595427E+02  4.445595427E+02  0.000000000E+00  0.00000E+00  9.000E+00
      21    -1     0     0   501   512  0.000000000E+00  0.000000000E+00 -2.738224510E+02  2.738224510E+02  0.000000000E+00  0.00000E+00  9.000E+00
      25     1     1     2     0     0  2.967650564E+02  8.625023887E+01  5.595552836E+01  3.380305068E+02  1.250000000E+02  0.00000E+00  9.000E+00
      25     1     1     2     0     0 -2.870141906E+02 -8.624009915E+01  1.397773192E+02  3.535211440E+02  1.250000000E+02  0.00000E+00  9.000E+00
      21     1     1     2   502   512 -9.750865736E+00 -1.013971935E-02 -2.499575583E+01  2.683034280E+01  3.371747881E-07  0.00000E+00  9.000E+00
#rwgt            1           1   2.8063578789534058E-002           1       68825           0
</event>
<event>
      5   9999  3.19816E-02  1.73940E+01 -1.00000E+00  1.71532E-01
      21    -1     0     0   502   511  0.000000000E+00  0.000000000E+00  1.058174045E+03  1.058174045E+03  0.000000000E+00  0.00000E+00  9.000E+00
      21    -1     0     0   501   502  0.000000000E+00  0.000000000E+00 -1.248593083E+02  1.248593083E+02  0.000000000E+00  0.00000E+00  9.000E+00
      25     1     1     2     0     0  2.942968090E+02  1.249474178E+02  3.541822711E+02  4.932469464E+02  1.250000000E+02  0.00000E+00  9.000E+00
      25     1     1     2     0     0 -3.043413844E+02 -1.391480776E+02  5.553613062E+02  6.603310126E+02  1.250000000E+02  0.00000E+00  9.000E+00
      21     1     1     2   501   511  1.004457538E+01  1.420065974E+01  2.377115967E+01  2.945539447E+01  3.371747881E-07  0.00000E+00  9.000E+00
#rwgt            1           1   2.4613630395462618E-002           1       69091           0
</event>
<event>
      5   9999  3.19816E-02  3.54097E+01 -1.00000E+00  1.48202E-01
       2    -1     0     0   502     0  0.000000000E+00  0.000000000E+00  1.160978099E+03  1.160978099E+03  0.000000000E+00  0.00000E+00  9.000E+00
      21    -1     0     0   501   502  0.000000000E+00  0.000000000E+00 -2.364220903E+03  2.364220903E+03  0.000000000E+00  0.00000E+00  9.000E+00
      25     1     1     2     0     0  3.966438681E+02 -1.725381246E+02 -1.420266637E+03  1.489925529E+03  1.250000000E+02  0.00000E+00  9.000E+00
      25     1     1     2     0     0 -4.204187684E+02  1.987792813E+02 -8.450416458E+02  9.726178729E+02  1.250000000E+02  0.00000E+00  9.000E+00
       2     1     1     2   501     0  2.377490033E+01 -2.624115669E+01  1.062065479E+03  1.062655600E+03  1.525878906E-05  0.00000E+00  9.000E+00
#rwgt            1           1   2.2586221734230728E-002           1       69240           0
</event>
<event>
      5   9999  3.19816E-02  1.07787E+02 -1.00000E+00  1.22381E-01
      21    -1     0     0   502   511  0.000000000E+00  0.000000000E+00  2.994449791E+02  2.994449791E+02  0.000000000E+00  0.00000E+00  9.000E+00
      21    -1     0     0   501   502  0.000000000E+00  0.000000000E+00 -7.694371890E+02  7.694371890E+02  0.000000000E+00  0.00000E+00  9.000E+00
      25     1     1     2     0     0  4.102900587E+02  1.033311250E+02 -6.007591587E+01  4.452520290E+02  1.250000000E+02  0.00000E+00  9.000E+00
      25     1     1     2     0     0 -3.283436371E+02 -3.331117222E+01 -3.623703803E+02  5.058225684E+02  1.250000000E+02  0.00000E+00  9.000E+00
      21     1     1     2   501   511 -8.194642164E+01 -7.001995274E+01 -4.754591376E+01  1.178075707E+02  9.536743164E-07  0.00000E+00  9.000E+00
#rwgt            1           1   2.8353685120548467E-002           1       69381           0
</event>
<event>
      5   9999  3.19816E-02  4.08373E+01 -1.00000E+00  1.44284E-01
       5    -1     0     0   502     0  0.000000000E+00  0.000000000E+00  5.686604399E+02  5.686604399E+02  0.000000000E+00  0.00000E+00  9.000E+00
      21    -1     0     0   501   502  0.000000000E+00  0.000000000E+00 -2.277384909E+03  2.277384909E+03  0.000000000E+00  0.00000E+00  9.000E+00
      25     1     1     2     0     0 -1.079611518E+03 -2.965021748E+02 -9.553515354E+02  1.477090426E+03  1.250000000E+02  0.00000E+00  9.000E+00
      25     1     1     2     0     0  1.039473252E+03  3.040259740E+02 -7.580423311E+02  1.327851502E+03  1.250000000E+02  0.00000E+00  9.000E+00
       5     1     1     2   501     0  4.013826631E+01 -7.523799174E+00  4.669397268E+00  4.110342136E+01  3.862822472E-07  0.00000E+00  9.000E+00
#rwgt            1           1   2.8018762831344940E-002           1       69513           0
</event>
<event>
      5   9999  3.19816E-02  8.89955E+01 -1.00000E+00  1.26149E-01
      21    -1     0     0   502   501  0.000000000E+00  0.000000000E+00  9.388294161E+02  9.388294161E+02  0.000000000E+00  0.00000E+00  9.000E+00
      21    -1     0     0   501   511  0.000000000E+00  0.000000000E+00 -1.659066530E+03  1.659066530E+03  0.000000000E+00  0.00000E+00  9.000E+00
      25     1     1     2     0     0  5.739932642E+02 -4.485261189E+02  6.737758061E+02  1.000121384E+03  1.250000000E+02  0.00000E+00  9.000E+00
      25     1     1     2     0     0 -5.077989807E+02  3.890406946E+02 -9.987641964E+02  1.192630449E+03  1.250000000E+02  0.00000E+00  9.000E+00
      21     1     1     2   502   511 -6.619428345E+01  5.948542430E+01 -3.952487239E+02  4.051441134E+02  5.394796609E-06  0.00000E+00  9.000E+00
#rwgt            1           1   2.9894499873286091E-002           1       69714           0
</event>
<event>
      5   9999  3.19816E-02  1.42306E+02 -1.00000E+00  1.17307E-01
      21    -1     0     0   502   501  0.000000000E+00  0.000000000E+00  1.015316400E+03  1.015316400E+03  0.000000000E+00  0.00000E+00  9.000E+00
      21    -1     0     0   512   502  0.000000000E+00  0.000000000E+00 -6.200664274E+02  6.200664274E+02  0.000000000E+00  0.00000E+00  9.000E+00
      25     1     1     2     0     0  7.162977520E+02  2.373923062E+02  1.784896991E+02  7.854432820E+02  1.250000000E+02  0.00000E+00  9.000E+00
      25     1     1     2     0     0 -5.888492768E+02 -3.006996369E+02  2.189366713E+02  7.076171340E+02  1.250000000E+02  0.00000E+00  9.000E+00
      21     1     1     2   512   501 -1.274484753E+02  6.330733069E+01 -2.176398068E+00  1.423224110E+02  2.163492610E-06  0.00000E+00  9.000E+00
#rwgt            1           1   3.1860794831052093E-002           1       69837           0
</event>
<event>
      5   9999  3.19816E-02  1.84230E+02 -1.00000E+00  1.12962E-01
      21    -1     0     0   502   501  0.000000000E+00  0.000000000E+00  1.134344920E+03  1.134344920E+03  0.000000000E+00  0.00000E+00  9.000E+00
       2    -1     0     0   501     0  0.000000000E+00  0.000000000E+00 -2.882597674E+02  2.882597674E+02  0.000000000E+00  0.00000E+00  9.000E+00
      25     1     1     2     0     0  1.154904273E+01  4.688971822E+00  5.658977999E+01  1.377779737E+02  1.250000000E+02  0.00000E+00  9.000E+00
      25     1     1     2     0     0 -3.539977587E+01 -1.873686127E+02  9.880218101E+02  1.013988283E+03  1.250000000E+02  0.00000E+00  9.000E+00
       2     1     1     2   502     0  2.385073314E+01  1.826796408E+02 -1.985264379E+02  2.708384301E+02  2.697398305E-06  0.00000E+00  9.000E+00
#rwgt            2          13   1.0578746908159085E-003           1       69940           0
</event>
<event>
      5   9999  3.19816E-02  9.69681E+01 -1.00000E+00  1.24432E-01
      21    -1     0     0   502   501  0.000000000E+00  0.000000000E+00  1.482067420E+02  1.482067420E+02  0.000000000E+00  0.00000E+00  9.000E+00
      21    -1     0     0   501   511  0.000000000E+00  0.000000000E+00 -1.431841094E+03  1.431841094E+03  0.000000000E+00  0.00000E+00  9.000E+00
      25     1     1     2     0     0  2.697020921E+02 -1.098155611E+02 -8.999720038E+01  3.294285537E+02  1.250000000E+02  0.00000E+00  9.000E+00
      25     1     1     2     0     0 -1.808472084E+02  1.486437949E+02 -9.919083884E+02  1.026794985E+03  1.250000000E+02  0.00000E+00  9.000E+00
      21     1     1     2   502   511 -8.885488367E+01 -3.882823379E+01 -2.017287633E+02  2.238242972E+02  2.697398305E-06  0.00000E+00  9.000E+00
#rwgt            1           1   3.0521541096544084E-002           1       69959           0
</event>
<event>
      5   9999  3.19816E-02  6.09410E+01 -1.00000E+00  1.34343E-01
      21    -1     0     0   512   501  0.000000000E+00  0.000000000E+00  1.789362010E+02  1.789362010E+02  0.000000000E+00  0.00000E+00  9.000E+00
      21    -1     0     0   501   502  0.000000000E+00  0.000000000E+00 -8.437583854E+02  8.437583854E+02  0.000000000E+00  0.00000E+00  9.000E+00
      25     1     1     2     0     0 -1.344922780E+02 -2.988109789E+02 -4.791020951E+02  5.937507824E+02  1.250000000E+02  0.00000E+00  9.000E+00
      25     1     1     2     0     0  1.660991948E+02  2.467071306E+02 -1.751558705E+02  3.670938978E+02  1.250000000E+02  0.00000E+00  9.000E+00
      21     1     1     2   512   502 -3.160691676E+01  5.210384833E+01 -1.056421875E+01  6.184990635E+01  1.105501472E-06  0.00000E+00  9.000E+00
#rwgt            1           1   3.2152983789092288E-002           1       70051           0
</event>
<event>
      5   9999  3.19816E-02  6.79620E+02 -1.00000E+00  9.52072E-02
      21    -1     0     0   502   501  0.000000000E+00  0.000000000E+00  1.376012370E+03  1.376012370E+03  0.000000000E+00  0.00000E+00  9.000E+00
       4    -1     0     0   501     0  0.000000000E+00  0.000000000E+00 -6.120854704E+02  6.120854704E+02  0.000000000E+00  0.00000E+00  9.000E+00
      25     1     1     2     0     0  2.125946004E+02  1.461597201E+02 -1.953409119E+02  3.469037327E+02  1.250000000E+02  0.00000E+00  9.000E+00
      25     1     1     2     0     0  4.329152701E+02 -3.587647962E+02  7.169704409E+02  9.196735416E+02  1.250000000E+02  0.00000E+00  9.000E+00
       4     1     1     2   502     0 -6.455098705E+02  2.126050761E+02  2.422973704E+02  7.215205659E+02  1.477425898E-05  0.00000E+00  9.000E+00
#rwgt            2          15   1.3114431061658216E-005           1       70225           0
</event>
<event>
      5   9999  3.19816E-02  5.69440E+01 -1.00000E+00  1.35928E-01
       2    -1     0     0   502     0  0.000000000E+00  0.000000000E+00  1.653858458E+03  1.653858458E+03  0.000000000E+00  0.00000E+00  9.000E+00
      21    -1     0     0   501   502  0.000000000E+00  0.000000000E+00 -1.720366904E+03  1.720366904E+03  0.000000000E+00  0.00000E+00  9.000E+00
      25     1     1     2     0     0 -5.171654235E+02  1.361489806E+03 -3.637018463E+02  1.506326193E+03  1.250000000E+02  0.00000E+00  9.000E+00
      25     1     1     2     0     0  5.229877900E+02 -1.304844276E+03 -1.480387793E+02  1.419040272E+03  1.250000000E+02  0.00000E+00  9.000E+00
       2     1     1     2   501     0 -5.822366486E+00 -5.664552986E+01  4.452321799E+02  4.488588977E+02  5.394796609E-06  0.00000E+00  9.000E+00
#rwgt            1           1   5.4560094891362348E-002           1       70274           0
</event>
<event>
      5   9999  3.19816E-02  1.89259E+01 -1.00000E+00  1.68372E-01
      21    -1     0     0   502   501  0.000000000E+00  0.000000000E+00  6.210691908E+02  6.210691908E+02  0.000000000E+00  0.00000E+00  9.000E+00
      21    -1     0     0   501   511  0.000000000E+00  0.000000000E+00 -1.196694329E+02  1.196694329E+02  0.000000000E+00  0.00000E+00  9.000E+00
      25     1     1     2     0     0  1.321922459E+02 -1.202856216E+02  4.457068141E+02  4.962086102E+02  1.250000000E+02  0.00000E+00  9.000E+00
      25     1     1     2     0     0 -1.264934002E+02  1.022380905E+02  7.412491309E+01  2.181116920E+02  1.250000000E+02  0.00000E+00  9.000E+00
      21     1     1     2   502   511 -5.698845770E+00  1.804753112E+01 -1.843196928E+01  2.641832156E+01  2.384185791E-07  0.00000E+00  9.000E+00
#rwgt            1           1   3.0010497911347578E-002           1       70419           0
</event>
<event>
      5   9999  3.19816E-02  1.13882E+02 -1.00000E+00  1.21341E-01
      21    -1     0     0   512   501  0.000000000E+00  0.000000000E+00  8.132884387E+01  8.132884387E+01  0.000000000E+00  0.00000E+00  9.000E+00
      21    -1     0     0   501   502  0.000000000E+00  0.000000000E+00 -8.915924243E+02  8.915924243E+02  0.000000000E+00  0.00000E+00  9.000E+00
      25     1     1     2     0     0 -9.627316033E+00  4.614551746E+01 -1.178026821E+02  1.781139127E+02  1.250000000E+02  0.00000E+00  9.000E+00
      25     1     1     2     0     0  8.266515407E+01  4.123058349E+01 -6.575853823E+02  6.757048348E+02  1.250000000E+02  0.00000E+00  9.000E+00
      21     1     1     2   512   502 -7.303783804E+01 -8.737610095E+01 -3.487551598E+01  1.191025206E+02  1.846782373E-06  0.00000E+00  9.000E+00
#rwgt            2          11   2.9124756326164014E-003           1       70902           0
</event>
<event>
      5   9999  3.19816E-02  1.10373E+02 -1.00000E+00  1.21930E-01
      21    -1     0     0   502   511  0.000000000E+00  0.000000000E+00  8.633813119E+02  8.633813119E+02  0.000000000E+00  0.00000E+00  9.000E+00
      21    -1     0     0   501   502  0.000000000E+00  0.000000000E+00 -1.048759973E+03  1.048759973E+03  0.000000000E+00  0.00000E+00  9.000E+00
      25     1     1     2     0     0  1.147333137E+02  4.378507662E+02  2.060381193E+02  5.127901455E+02  1.250000000E+02  0.00000E+00  9.000E+00
      25     1     1     2     0     0 -5.490054059E+01 -5.305988610E+02 -8.036267586E+02  9.726202691E+02  1.250000000E+02  0.00000E+00  9.000E+00
      21     1     1     2   501   511 -5.983277311E+01  9.274809482E+01  4.122099780E+02  4.267308704E+02  5.394796609E-06  0.00000E+00  9.000E+00
#rwgt            1           1   2.3805452999114379E-002           1       70922           0
</event>
<event>
      5   9999  3.19816E-02  1.06758E+02 -1.00000E+00  1.22564E-01
      21    -1     0     0   502   501  0.000000000E+00  0.000000000E+00  8.805006327E+02  8.805006327E+02  0.000000000E+00  0.00000E+00  9.000E+00
      21    -1     0     0   501   512  0.000000000E+00  0.000000000E+00 -3.849366549E+02  3.849366549E+02  0.000000000E+00  0.00000E+00  9.000E+00
      25     1     1     2     0     0  1.932299732E+02  2.971224875E+01 -1.404584891E+02  2.712456957E+02  1.250000000E+02  0.00000E+00  9.000E+00
      25     1     1     2     0     0 -9.823273848E+01  1.899977924E+01  7.904231963E+02  8.064765910E+02  1.250000000E+02  0.00000E+00  9.000E+00
      21     1     1     2   502   512 -9.499723477E+01 -4.871202799E+01 -1.544007295E+02  1.877150009E+02  1.907348633E-06  0.00000E+00  9.000E+00
#rwgt            1           1   2.8264719589286634E-002           1       71018           0
</event>
<event>
      5   9999  3.19816E-02  4.94043E+01 -1.00000E+00  1.39373E-01
      21    -1     0     0   511   501  0.000000000E+00  0.000000000E+00  3.429646691E+02  3.429646691E+02  0.000000000E+00  0.00000E+00  9.000E+00
      21    -1     0     0   501   502  0.000000000E+00  0.000000000E+00 -3.456784537E+02  3.456784537E+02  0.000000000E+00  0.00000E+00  9.000E+00
      25     1     1     2     0     0  1.280090239E+02  9.512018404E+01 -7.023664889E+01  2.144582627E+02  1.250000000E+02  0.00000E+00  9.000E+00
      25     1     1     2     0     0 -1.352377917E+02 -4.624761599E+01 -1.557053419E+02  2.455549954E+02  1.250000000E+02  0.00000E+00  9.000E+00
      21     1     1     2   511   502  7.228767783E+00 -4.887256805E+01  2.232282062E+02  2.286298647E+02  0.000000000E+00  0.00000E+00  9.000E+00
#rwgt            1           1   2.8196673866823611E-002           1       71111           0
</event>
<event>
      5   9999  3.19816E-02  1.27310E+02 -1.00000E+00  1.19288E-01
      21    -1     0     0   502   501  0.000000000E+00  0.000000000E+00  1.039965583E+03  1.039965583E+03  0.000000000E+00  0.00000E+00  9.000E+00
      21    -1     0     0   501   512  0.000000000E+00  0.000000000E+00 -2.945461375E+02  2.945461375E+02  0.000000000E+00  0.00000E+00  9.000E+00
      25     1     1     2     0     0  9.902445627E+01 -5.052889909E+02  4.435165163E+02  6.909809748E+02  1.250000000E+02  0.00000E+00  9.000E+00
      25     1     1     2     0     0 -2.260009840E+01  4.034700188E+02  2.956368641E+02  5.160668328E+02  1.250000000E+02  0.00000E+00  9.000E+00
      21     1     1     2   502   512 -7.642435787E+01  1.018189722E+02  6.266065368E+00  1.274639131E+02  1.704734522E-06  0.00000E+00  9.000E+00
#rwgt            1           1   2.8850210278536136E-002           1       71175           0
</event>
<event>
      5   9999  3.19816E-02  1.20003E+02 -1.00000E+00  1.20368E-01
      21    -1     0     0   502   501  0.000000000E+00  0.000000000E+00  1.636211917E+03  1.636211917E+03  0.000000000E+00  0.00000E+00  9.000E+00
      21    -1     0     0   511   502  0.000000000E+00  0.000000000E+00 -4.656297208E+01  4.656297208E+01  0.000000000E+00  0.00000E+00  9.000E+00
      25     1     1     2     0     0  2.090524941E+01  2.113640465E+01  1.218380246E+02  1.770685779E+02  1.250000000E+02  0.00000E+00  9.000E+00
      25     1     1     2     0     0 -1.163746017E+02 -9.384318102E+01  1.141814358E+03  1.158324056E+03  1.250000000E+02  0.00000E+00  9.000E+00
      21     1     1     2   511   501  9.546935230E+01  7.270677637E+01  3.259965624E+02  3.473822553E+02  0.000000000E+00  0.00000E+00  9.000E+00
#rwgt            1           1   1.3310410908814489E-002           1       71217           0
</event>
<event>
      5   9999  3.19816E-02  7.46068E+01 -1.00000E+00  1.29834E-01
       2    -1     0     0   502     0  0.000000000E+00  0.000000000E+00  6.560634519E+01  6.560634519E+01  0.000000000E+00  0.00000E+00  9.000E+00
      21    -1     0     0   501   502  0.000000000E+00  0.000000000E+00 -1.368154371E+03  1.368154371E+03  0.000000000E+00  0.00000E+00  9.000E+00
      25     1     1     2     0     0 -5.831410863E+01 -1.661803152E+02 -9.216592487E+02  9.466241087E+02  1.250000000E+02  0.00000E+00  9.000E+00
      25     1     1     2     0     0  3.222831772E+01  9.628244385E+01 -3.797896182E+02  4.125216692E+02  1.250000000E+02  0.00000E+00  9.000E+00
       2     1     1     2   501     0  2.608579091E+01  6.989787140E+01 -1.099159221E+00  7.461493861E+01  1.882093936E-06  0.00000E+00  9.000E+00
#rwgt            2          18   9.5731406441961530E-005           1       71307           0
</event>
<event>
      5   9999  3.19816E-02  1.40159E+01 -1.00000E+00  1.80206E-01
      21    -1     0     0   511   501  0.000000000E+00  0.000000000E+00  9.669169643E+02  9.669169643E+02  0.000000000E+00  0.00000E+00  9.000E+00
      21    -1     0     0   501   502  0.000000000E+00  0.000000000E+00 -4.817205173E+01  4.817205173E+01  0.000000000E+00  0.00000E+00  9.000E+00
      25     1     1     2     0     0  6.416568400E+01 -4.072553802E+01  1.012105574E+02  1.778886770E+02  1.250000000E+02  0.00000E+00  9.000E+00
      25     1     1     2     0     0 -6.846945916E+01  5.406432942E+01  5.946841584E+02  6.139098197E+02  1.250000000E+02  0.00000E+00  9.000E+00
      21     1     1     2   511   502  4.303775164E+00 -1.333879141E+01  2.228501967E+02  2.232905193E+02  0.000000000E+00  0.00000E+00  9.000E+00
#rwgt            1           1   3.1992682527510488E-002           1       71356           0
</event>
<event>
      5   9999  3.19816E-02  1.31529E+02 -1.00000E+00  1.18701E-01
      21    -1     0     0   502   512  0.000000000E+00  0.000000000E+00  1.250604367E+02  1.250604367E+02  0.000000000E+00  0.00000E+00  9.000E+00
      21    -1     0     0   501   502  0.000000000E+00  0.000000000E+00 -9.230241513E+02  9.230241513E+02  0.000000000E+00  0.00000E+00  9.000E+00
      25     1     1     2     0     0 -1.602372735E+02 -8.846793679E+01 -2.798729957E+02  3.570104388E+02  1.250000000E+02  0.00000E+00  9.000E+00
      25     1     1     2     0     0  2.117743058E+02  2.094793277E+02 -4.013880624E+02  5.152352103E+02  1.250000000E+02  0.00000E+00  9.000E+00
      21     1     1     2   501   512 -5.153703225E+01 -1.210113909E+02 -1.167026565E+02  1.758389389E+02  1.907348633E-06  0.00000E+00  9.000E+00
#rwgt            1           1   3.5548059095143247E-002           1       71492           0
</event>
<event>
      5   9999  3.19816E-02  2.34638E+02 -1.00000E+00  1.09180E-01
      21    -1     0     0   502   501  0.000000000E+00  0.000000000E+00  1.494853654E+03  1.494853654E+03  0.000000000E+00  0.00000E+00  9.000E+00
      21    -1     0     0   511   502  0.000000000E+00  0.000000000E+00 -2.110010034E+02  2.110010034E+02  0.000000000E+00  0.00000E+00  9.000E+00
      25     1     1     2     0     0 -2.705042004E+02  2.743589345E+01  1.183875696E+03  1.221110935E+03  1.250000000E+02  0.00000E+00  9.000E+00
      25     1     1     2     0     0  1.135864721E+02  1.470108072E+02  1.108515405E+02  2.498542137E+02  1.250000000E+02  0.00000E+00  9.000E+00
      21     1     1     2   511   501  1.569177282E+02 -1.744467006E+02 -1.087458615E+01  2.348895090E+02  4.214684851E-06  0.00000E+00  9.000E+00
#rwgt            2          11   4.7548078567961659E-003           1       71630           0
</event>
<event>
      5   9999  3.19816E-02  1.52297E+02 -1.00000E+00  1.16133E-01
      21    -1     0     0   502   501  0.000000000E+00  0.000000000E+00  2.170350712E+02  2.170350712E+02  0.000000000E+00  0.00000E+00  9.000E+00
      21    -1     0     0   512   502  0.000000000E+00  0.000000000E+00 -5.484966960E+02  5.484966960E+02  0.000000000E+00  0.00000E+00  9.000E+00
      25     1     1     2     0     0  8.317380107E+01  5.954953886E+01  6.580725855E+01  1.744122245E+02  1.250000000E+02  0.00000E+00  9.000E+00
      25     1     1     2     0     0 -2.148253076E+02 -1.361140443E+02 -2.850893293E+02  4.019675006E+02  1.250000000E+02  0.00000E+00  9.000E+00
      21     1     1     2   512   501  1.316515066E+02  7.656450542E+01 -1.121795541E+02  1.891520421E+02  4.046097457E-06  0.00000E+00  9.000E+00
#rwgt            1           1   2.8515991889405519E-002           1       71650           0
</event>
<event>
      5   9999  3.19816E-02  2.16004E+01 -1.00000E+00  1.63657E-01
      21    -1     0     0   502   501  0.000000000E+00  0.000000000E+00  1.541259080E+02  1.541259080E+02  0.000000000E+00  0.00000E+00  9.000E+00
      -2    -1     0     0     0   502  0.000000000E+00  0.000000000E+00 -6.730373607E+02  6.730373607E+02  0.000000000E+00  0.00000E+00  9.000E+00
      25     1     1     2     0     0 -1.512489338E+02  2.159624869E+02 -1.639661824E+02  3.347027706E+02  1.250000000E+02  0.00000E+00  9.000E+00
      25     1     1     2     0     0  1.328763115E+02 -2.273213735E+02 -2.460403340E+02  3.814340926E+02  1.250000000E+02  0.00000E+00  9.000E+00
      -2     1     1     2     0   501  1.837262229E+01  1.135888664E+01 -1.089049363E+02  1.110264054E+02  1.907348633E-06  0.00000E+00  9.000E+00
#rwgt            1           1   2.6614528765264222E-002           1       71729           0
</event>
<event>
      5   9999  3.19816E-02  5.09387E+02 -1.00000E+00  9.86231E-02
      21    -1     0     0   511   501  0.000000000E+00  0.000000000E+00  1.564132404E+03  1.564132404E+03  0.000000000E+00  0.00000E+00  9.000E+00
      21    -1     0     0   501   502  0.000000000E+00  0.000000000E+00 -6.257197392E+02  6.257197392E+02  0.000000000E+00  0.00000E+00  9.000E+00
      25     1     1     2     0     0  3.072239589E+01  4.560203956E+02  5.472109892E+02  7.238531159E+02  1.250000000E+02  0.00000E+00  9.000E+00
      25     1     1     2     0     0  4.714287933E+02 -5.415737694E+02 -1.265015380E+02  7.397127104E+02  1.250000000E+02  0.00000E+00  9.000E+00
      21     1     1     2   511   502 -5.021511892E+02  8.555337381E+01  5.177032134E+02  7.262863166E+02  7.629394531E-06  0.00000E+00  9.000E+00
#rwgt            2          11   1.9526714904794878E-003           1       71934           0
</event>
<event>
      5   9999  3.19816E-02  1.90647E+01 -1.00000E+00  1.68104E-01
      21    -1     0     0   512   501  0.000000000E+00  0.000000000E+00  3.351870088E+02  3.351870088E+02  0.000000000E+00  0.00000E+00  9.000E+00
      21    -1     0     0   501   502  0.000000000E+00  0.000000000E+00 -4.700677454E+02  4.700677454E+02  0.000000000E+00  0.00000E+00  9.000E+00
      25     1     1     2     0     0  1.853393367E+02 -2.321132655E+02  9.100348559E+01  3.348639606E+02  1.250000000E+02  0.00000E+00  9.000E+00
      25     1     1     2     0     0 -1.738975462E+02  2.168637499E+02 -2.794667317E+02  4.135177103E+02  1.250000000E+02  0.00000E+00  9.000E+00
      21     1     1     2   512   502 -1.144179047E+01  1.524951556E+01  5.358250938E+01  5.687308331E+01  9.536743164E-07  0.00000E+00  9.000E+00
#rwgt            1           1   2.9750513969593408E-002           1       71954           0
</event>
<event>
      5   9999  3.19816E-02  1.38228E+01 -1.00000E+00  1.80794E-01
      21    -1     0     0   511   501  0.000000000E+00  0.000000000E+00  1.710049014E+02  1.710049014E+02  0.000000000E+00  0.00000E+00  9.000E+00
      21    -1     0     0   501   502  0.000000000E+00  0.000000000E+00 -5.280517010E+02  5.280517010E+02  0.000000000E+00  0.00000E+00  9.000E+00
      25     1     1     2     0     0 -1.004361125E+02 -5.560868024E+01 -4.546591554E+02  4.853037045E+02  1.250000000E+02  0.00000E+00  9.000E+00
      25     1     1     2     0     0  9.726990917E+01  6.906395817E+01  1.001259102E+02  1.997034387E+02  1.250000000E+02  0.00000E+00  9.000E+00
      21     1     1     2   511   502  3.166203287E+00 -1.345527793E+01 -2.513554511E+00  1.404945920E+01  1.976862425E-07  0.00000E+00  9.000E+00
#rwgt            1           1   3.0289693622540213E-002           1       72291           0
</event>
<event>
      5   9999  3.19816E-02  1.87677E+01 -1.00000E+00  1.68681E-01
      21    -1     0     0   512   501  0.000000000E+00  0.000000000E+00  1.493041320E+02  1.493041320E+02  0.000000000E+00  0.00000E+00  9.000E+00
      21    -1     0     0   501   502  0.000000000E+00  0.000000000E+00 -1.545969778E+03  1.545969778E+03  0.000000000E+00  0.00000E+00  9.000E+00
      25     1     1     2     0     0 -1.661826789E+02 -4.006685741E+02 -4.959090161E+02  6.705987931E+02  1.250000000E+02  0.00000E+00  9.000E+00
      25     1     1     2     0     0  1.677702600E+02  4.193689728E+02 -8.773014805E+02  9.946356534E+02  1.250000000E+02  0.00000E+00  9.000E+00
      21     1     1     2   512   502 -1.587581085E+00 -1.870039863E+01 -2.345514910E+01  3.003946307E+01  0.000000000E+00  0.00000E+00  9.000E+00
#rwgt            1           1   2.8172934396938649E-002           1       72477           0
</event>
<event>
      5   9999  3.19816E-02  1.06179E+02 -1.00000E+00  1.22668E-01
      21    -1     0     0   502   501  0.000000000E+00  0.000000000E+00  1.180282205E+03  1.180282205E+03  0.000000000E+00  0.00000E+00  9.000E+00
      21    -1     0     0   511   502  0.000000000E+00  0.000000000E+00 -2.529741678E+02  2.529741678E+02  0.000000000E+00  0.00000E+00  9.000E+00
      25     1     1     2     0     0  3.133996485E+02 -1.141081244E+02  8.079390949E+02  8.829669217E+02  1.250000000E+02  0.00000E+00  9.000E+00
      25     1     1     2     0     0 -3.080324250E+02  2.201512700E+02  1.690353219E+02  4.330686973E+02  1.250000000E+02  0.00000E+00  9.000E+00
      21     1     1     2   511   501 -5.367223539E+00 -1.060431456E+02 -4.966637981E+01  1.172207537E+02  1.168007728E-06  0.00000E+00  9.000E+00
#rwgt            1           1   2.9059234843226124E-002           1       72630           0
</event>
<event>
      5   9999  3.19816E-02  1.56586E+01 -1.00000E+00  1.75643E-01
      21    -1     0     0   502   501  0.000000000E+00  0.000000000E+00  2.649452430E+01  2.649452430E+01  0.000000000E+00  0.00000E+00  9.000E+00
      21    -1     0     0   501   512  0.000000000E+00  0.000000000E+00 -2.032525947E+03  2.032525947E+03  0.000000000E+00  0.00000E+00  9.000E+00
      25     1     1     2     0     0  8.090093683E+01 -1.503763797E+01 -4.892793887E+02  5.116545830E+02  1.250000000E+02  0.00000E+00  9.000E+00
      25     1     1     2     0     0 -8.856364962E+01  2.869324809E+01 -3.828988563E+02  4.134045920E+02  1.250000000E+02  0.00000E+00  9.000E+00
      21     1     1     2   502   512  7.662712786E+00 -1.365561013E+01 -1.133853177E+03  1.133961296E+03  2.157918644E-05  0.00000E+00  9.000E+00
#rwgt            1           1   8.1600867775133062E-002           1       72698           0
</event>
<event>
      5   9999  3.19816E-02  6.42984E+00 -1.00000E+00  2.20904E-01
      21    -1     0     0   502   501  0.000000000E+00  0.000000000E+00  4.657077188E+02  4.657077188E+02  0.000000000E+00  0.00000E+00  9.000E+00
      21    -1     0     0   501   511  0.000000000E+00  0.000000000E+00 -4.748727175E+01  4.748727175E+01  0.000000000E+00  0.00000E+00  9.000E+00
      25     1     1     2     0     0  5.759624790E+01 -7.228900688E+00  2.510627116E+02  2.864036835E+02  1.250000000E+02  0.00000E+00  9.000E+00
      25     1     1     2     0     0 -6.049001851E+01  1.297076167E+01  1.698887368E+02  2.198055183E+02  1.250000000E+02  0.00000E+00  9.000E+00
      21     1     1     2   502   511  2.893770611E+00 -5.741860983E+00 -2.731001324E+00  6.985788726E+00  2.511188320E-07  0.00000E+00  9.000E+00
#rwgt            1           1   2.4991510032615859E-002           1       72789           0
</event>
<event>
      5   9999  3.19816E-02  3.75267E+02 -1.00000E+00  1.02527E-01
      21    -1     0     0   502   501  0.000000000E+00  0.000000000E+00  7.565338009E+02  7.565338009E+02  0.000000000E+00  0.00000E+00  9.000E+00
      -4    -1     0     0     0   502  0.000000000E+00  0.000000000E+00 -1.614747371E+03  1.614747371E+03  0.000000000E+00  0.00000E+00  9.000E+00
      25     1     1     2     0     0  2.769051905E+02 -7.995250629E+02  1.538991460E+02  8.690378345E+02  1.250000000E+02  0.00000E+00  9.000E+00
      25     1     1     2     0     0 -4.364549766E+02  4.598648195E+02 -3.344989083E+02  7.276559067E+02  1.250000000E+02  0.00000E+00  9.000E+00
      -4     1     1     2     0   501  1.595497861E+02  3.396602434E+02 -6.776138078E+02  7.745874306E+02  0.000000000E+00  0.00000E+00  9.000E+00
#rwgt            1           1   3.6948100886186490E-002           1       72941           0
</event>
<event>
      5   9999  3.19816E-02  1.23157E+02 -1.00000E+00  1.19892E-01
      21    -1     0     0   502   511  0.000000000E+00  0.000000000E+00  2.436623451E+03  2.436623451E+03  0.000000000E+00  0.00000E+00  9.000E+00
      21    -1     0     0   501   502  0.000000000E+00  0.000000000E+00 -1.832104606E+02  1.832104606E+02  0.000000000E+00  0.00000E+00  9.000E+00
      25     1     1     2     0     0  2.415197476E+02 -1.131783795E+02 -2.108677413E+00  2.945684650E+02  1.250000000E+02  0.00000E+00  9.000E+00
      25     1     1     2     0     0 -1.356550342E+02  1.761096176E+02  4.636198115E+02  5.291362918E+02  1.250000000E+02  0.00000E+00  9.000E+00
      21     1     1     2   501   511 -1.058647134E+02 -6.293123811E+01  1.791901857E+03  1.796129155E+03  3.051757812E-05  0.00000E+00  9.000E+00
#rwgt            1           1   2.7917780368608619E-002           1       73128           0
</event>
<event>
      5   9999  3.19816E-02  2.03008E+01 -1.00000E+00  1.65836E-01
      21    -1     0     0   502   501  0.000000000E+00  0.000000000E+00  6.641233469E+02  6.641233469E+02  0.000000000E+00  0.00000E+00  9.000E+00
      21    -1     0     0   512   502  0.000000000E+00  0.000000000E+00 -1.151638244E+02  1.151638244E+02  0.000000000E+00  0.00000E+00  9.000E+00
      25     1     1     2     0     0  6.876460885E+01  1.640518333E+02  4.594923347E+02  5.083303857E+02  1.250000000E+02  0.00000E+00  9.000E+00
      25     1     1     2     0     0 -6.802767429E+01 -1.843392078E+02  9.220848974E+01  2.504717820E+02  1.250000000E+02  0.00000E+00  9.000E+00
      21     1     1     2   512   501 -7.369345528E-01  2.028737454E+01 -2.741301916E+00  2.048500365E+01  1.931411236E-07  0.00000E+00  9.000E+00
#rwgt            1           1   2.0447472950730308E-002           1       73188           0
</event>
<event>
      5   9999  3.19816E-02  5.38467E+01 -1.00000E+00  1.37263E-01
      21    -1     0     0   502   501  0.000000000E+00  0.000000000E+00  1.070789091E+03  1.070789091E+03  0.000000000E+00  0.00000E+00  9.000E+00
      -4    -1     0     0     0   502  0.000000000E+00  0.000000000E+00 -1.159213025E+02  1.159213025E+02  0.000000000E+00  0.00000E+00  9.000E+00
      25     1     1     2     0     0  1.505590842E+01 -1.869042496E+01  1.360091400E+02  1.862780141E+02  1.250000000E+02  0.00000E+00  9.000E+00
      25     1     1     2     0     0 -5.989053767E+01  4.851202610E+01  8.951148662E+02  9.070809869E+02  1.250000000E+02  0.00000E+00  9.000E+00
      -4     1     1     2     0   501  4.483462925E+01 -2.982160114E+01 -7.625621730E+01  9.335139288E+01  2.523185073E-06  0.00000E+00  9.000E+00
#rwgt            1           1   3.3321256043413593E-002           1       73390           0
</event>
<event>
      5   9999  3.19816E-02  1.66547E+02 -1.00000E+00  1.14621E-01
      21    -1     0     0   502   501  0.000000000E+00  0.000000000E+00  8.431651053E+02  8.431651053E+02  0.000000000E+00  0.00000E+00  9.000E+00
      21    -1     0     0   501   511  0.000000000E+00  0.000000000E+00 -9.904526433E+02  9.904526433E+02  0.000000000E+00  0.00000E+00  9.000E+00
      25     1     1     2     0     0 -1.478800846E+02  7.197153636E+02  1.680425495E+01  7.454972213E+02  1.250000000E+02  0.00000E+00  9.000E+00
      25     1     1     2     0     0  2.704430826E+02 -8.324816827E+02 -4.874767364E+01  8.855317886E+02  1.250000000E+02  0.00000E+00  9.000E+00
      21     1     1     2   502   511 -1.225629979E+02  1.127663191E+02 -1.153441193E+02  2.025887387E+02  3.303624740E-06  0.00000E+00  9.000E+00
#rwgt            1           1   1.8280829374945767E-002           1       73479           0
</event>
<event>
      5   9999  3.19816E-02  5.17360E+01 -1.00000E+00  1.38235E-01
      21    -1     0     0   512   501  0.000000000E+00  0.000000000E+00  1.141629190E+03  1.141629190E+03  0.000000000E+00  0.00000E+00  9.000E+00
      21    -1     0     0   501   502  0.000000000E+00  0.000000000E+00 -6.536350639E+02  6.536350639E+02  0.000000000E+00  0.00000E+00  9.000E+00
      25     1     1     2     0     0  1.228037943E+02 -6.715641576E+01  1.579583628E+02  2.452888103E+02  1.250000000E+02  0.00000E+00  9.000E+00
      25     1     1     2     0     0 -1.162788761E+02  1.184792884E+02 -5.915243506E+02  6.269642543E+02  1.250000000E+02  0.00000E+00  9.000E+00
      21     1     1     2   512   502 -6.524918218E+00 -5.132287259E+01  9.215601137E+02  9.230111890E+02  1.078959322E-05  0.00000E+00  9.000E+00
#rwgt            1           1   2.7773169410621901E-002           1       73521           0
</event>
<event>
      5   9999  3.19816E-02  4.22904E+01 -1.00000E+00  1.43356E-01
      21    -1     0     0   511   501  0.000000000E+00  0.000000000E+00  4.037684305E+02  4.037684305E+02  0.000000000E+00  0.00000E+00  9.000E+00
      21    -1     0     0   501   502  0.000000000E+00  0.000000000E+00 -3.560696820E+02  3.560696820E+02  0.000000000E+00  0.00000E+00  9.000E+00
      25     1     1     2     0     0 -4.796128246E+01 -6.897891941E+01 -3.077242995E+02  3.426041746E+02  1.250000000E+02  0.00000E+00  9.000E+00
      25     1     1     2     0     0  3.109173425E+01  1.077590577E+02  2.293892498E+02  2.842941054E+02  1.250000000E+02  0.00000E+00  9.000E+00
      21     1     1     2   511   502  1.686954821E+01 -3.878013828E+01  1.260337982E+02  1.329398325E+02  2.336015456E-06  0.00000E+00  9.000E+00
#rwgt            1           1   2.9167605772528984E-002           1       73614           0
</event>
<event>
      5   9999  3.19816E-02  2.00289E+02 -1.00000E+00  1.11625E-01
      21    -1     0     0   512   501  0.000000000E+00  0.000000000E+00  1.407192595E+03  1.407192595E+03  0.000000000E+00  0.00000E+00  9.000E+00
      21    -1     0     0   501   502  0.000000000E+00  0.000000000E+00 -4.007122752E+02  4.007122752E+02  0.000000000E+00  0.00000E+00  9.000E+00
      25     1     1     2     0     0  3.475950975E+02  3.723799839E+02  7.753929875E+02  9.361348670E+02  1.250000000E+02  0.00000E+00  9.000E+00
      25     1     1     2     0     0 -1.473749392E+02 -3.776178690E+02 -1.428259715E+02  4.475923210E+02  1.250000000E+02  0.00000E+00  9.000E+00
      21     1     1     2   512   502 -2.002201583E+02  5.237885127E+00  3.739133034E+02  4.241776817E+02  0.000000000E+00  0.00000E+00  9.000E+00
#rwgt            1           1   3.0964408763698603E-002           1       73697           0
</event>
<event>
      5   9999  3.19816E-02  1.62986E+01 -1.00000E+00  1.74053E-01
      21    -1     0     0   502   511  0.000000000E+00  0.000000000E+00  1.082422177E+03  1.082422177E+03  0.000000000E+00  0.00000E+00  9.000E+00
      21    -1     0     0   501   502  0.000000000E+00  0.000000000E+00 -7.096544957E+01  7.096544957E+01  0.000000000E+00  0.00000E+00  9.000E+00
      25     1     1     2     0     0  2.321008257E+02  3.447380004E+01  4.133255171E+02  4.914491014E+02  1.250000000E+02  0.00000E+00  9.000E+00
      25     1     1     2     0     0 -2.182102246E+02 -4.300001772E+01  4.885715677E+02  5.511731855E+02  1.250000000E+02  0.00000E+00  9.000E+00
      21     1     1     2   501   511 -1.389060106E+01  8.526217686E+00  1.095596429E+02  1.107653400E+02  1.348699152E-06  0.00000E+00  9.000E+00
#rwgt            1           1   2.8581683797429484E-002           1       73858           0
</event>
<event>
      5   9999  3.19816E-02  3.29789E+00 -1.00000E+00  2.84925E-01
      21    -1     0     0   502   501  0.000000000E+00  0.000000000E+00  3.147466105E+02  3.147466105E+02  0.000000000E+00  0.00000E+00  9.000E+00
      21    -1     0     0   501   512  0.000000000E+00  0.000000000E+00 -1.131993083E+02  1.131993083E+02  0.000000000E+00  0.00000E+00  9.000E+00
      25     1     1     2     0     0 -1.282451376E+00 -6.684837707E+01  1.879986789E+02  2.354545677E+02  1.250000000E+02  0.00000E+00  9.000E+00
      25     1     1     2     0     0 -1.149507462E+00  6.462089591E+01  5.486940146E+01  1.510391763E+02  1.250000000E+02  0.00000E+00  9.000E+00
      21     1     1     2   502   512  2.431958838E+00  2.227481158E+00 -4.132077805E+01  4.145217479E+01  8.259061849E-07  0.00000E+00  9.000E+00
#rwgt            1           1   3.9656320688031522E-002           1       74040           0
</event>
<event>
      5   9999  3.19816E-02  8.43018E+01 -1.00000E+00  1.27258E-01
      21    -1     0     0   502   511  0.000000000E+00  0.000000000E+00  4.148127093E+02  4.148127093E+02  0.000000000E+00  0.00000E+00  9.000E+00
      21    -1     0     0   501   502  0.000000000E+00  0.000000000E+00 -4.120353775E+02  4.120353775E+02  0.000000000E+00  0.00000E+00  9.000E+00
      25     1     1     2     0     0 -8.758986674E+01 -2.570310116E+02 -1.454810238E+02  3.324554917E+02  1.250000000E+02  0.00000E+00  9.000E+00
      25     1     1     2     0     0  8.143992129E+01  3.411081883E+02  6.892740202E+01  3.786333895E+02  1.250000000E+02  0.00000E+00  9.000E+00
      21     1     1     2   501   511  6.149945448E+00 -8.407717670E+01  7.933095355E+01  1.157592055E+02  1.348699152E-06  0.00000E+00  9.000E+00
#rwgt            1           1   2.8295604716179923E-002           1       74458           0
</event>
<event>
      5   9999  3.19816E-02  4.97943E+01 -1.00000E+00  1.39178E-01
      21    -1     0     0   512   501  0.000000000E+00  0.000000000E+00  5.451877711E+01  5.451877711E+01  0.000000000E+00  0.00000E+00  9.000E+00
      21    -1     0     0   501   502  0.000000000E+00  0.000000000E+00 -9.484290268E+02  9.484290268E+02  0.000000000E+00  0.00000E+00  9.000E+00
      25     1     1     2     0     0  8.531104342E+01 -9.799404688E+01 -5.864755824E+02  6.135628869E+02  1.250000000E+02  0.00000E+00  9.000E+00
      25     1     1     2     0     0 -1.033289247E+02  5.157391219E+01 -2.907060881E+02  3.368557031E+02  1.250000000E+02  0.00000E+00  9.000E+00
      21     1     1     2   512   502  1.801788132E+01  4.642013468E+01 -1.672857923E+01  5.252921391E+01  8.259061849E-07  0.00000E+00  9.000E+00
#rwgt            1           1   2.7377139012867834E-002           1       74500           0
</event>
<event>
      5   9999  3.19816E-02  2.82614E+01 -1.00000E+00  1.54863E-01
      21    -1     0     0   502   501  0.000000000E+00  0.000000000E+00  5.481553930E+02  5.481553930E+02  0.000000000E+00  0.00000E+00  9.000E+00
      21    -1     0     0   511   502  0.000000000E+00  0.000000000E+00 -4.362171550E+02  4.362171550E+02  0.000000000E+00  0.00000E+00  9.000E+00
      25     1     1     2     0     0 -2.830884117E+02 -7.849819028E+01  4.123041155E+02  5.214601599E+02  1.250000000E+02  0.00000E+00  9.000E+00
      25     1     1     2     0     0  2.708540980E+02  1.039742228E+02 -2.984409194E+02  4.345855081E+02  1.250000000E+02  0.00000E+00  9.000E+00
      21     1     1     2   511   501  1.223431373E+01 -2.547603255E+01 -1.924957992E+00  2.832687999E+01  2.484520078E-07  0.00000E+00  9.000E+00
#rwgt            1           1   3.0164134073276158E-002           1       74571           0
</event>
<event>
      5   9999  3.19816E-02  1.72180E+01 -1.00000E+00  1.71921E-01
      21    -1     0     0   512   501  0.000000000E+00  0.000000000E+00  6.265201947E+01  6.265201947E+01  0.000000000E+00  0.00000E+00  9.000E+00
      21    -1     0     0   501   502  0.000000000E+00  0.000000000E+00 -9.377560088E+02  9.377560088E+02  0.000000000E+00  0.00000E+00  9.000E+00
      25     1     1     2     0     0 -5.205596243E+01  1.657682534E+02 -6.516830630E+02  6.859334892E+02  1.250000000E+02  0.00000E+00  9.000E+00
      25     1     1     2     0     0  4.019721913E+01 -1.532850636E+02 -2.162987257E+02  2.958416230E+02  1.250000000E+02  0.00000E+00  9.000E+00
      21     1     1     2   512   502  1.185874330E+01 -1.248318977E+01 -7.122200658E+00  1.863291608E+01  5.127385418E-07  0.00000E+00  9.000E+00
#rwgt            1           1   2.7518730623323103E-002           1       74738           0
</event>
<event>
      5   9999  3.19816E-02  1.55938E+02 -1.00000E+00  1.15729E-01
       2    -1     0     0   502     0  0.000000000E+00  0.000000000E+00  3.055211605E+03  3.055211605E+03  0.000000000E+00  0.00000E+00  9.000E+00
      21    -1     0     0   501   502  0.000000000E+00  0.000000000E+00 -1.251967565E+02  1.251967565E+02  0.000000000E+00  0.00000E+00  9.000E+00
      25     1     1     2     0     0  3.303075751E+02  2.642383800E+01  5.085823364E+02  6.197437424E+02  1.250000000E+02  0.00000E+00  9.000E+00
      25     1     1     2     0     0 -3.602045477E+02 -1.794686619E+02  6.035560125E+02  7.361122041E+02  1.250000000E+02  0.00000E+00  9.000E+00
       2     1     1     2   501     0  2.989697263E+01  1.530448239E+02  1.817876499E+03  1.824552415E+03  3.051757812E-05  0.00000E+00  9.000E+00
#rwgt            1           1   3.4879160326864188E-002           1       74980           0
</event>
<event>
      5   9999  3.19816E-02  4.90071E+01 -1.00000E+00  1.39574E-01
      21    -1     0     0   502   511  0.000000000E+00  0.000000000E+00  3.741793438E+01  3.741793438E+01  0.000000000E+00  0.00000E+00  9.000E+00
      21    -1     0     0   501   502  0.000000000E+00  0.000000000E+00 -1.885885169E+03  1.885885169E+03  0.000000000E+00  0.00000E+00  9.000E+00
      25     1     1     2     0     0  1.591712285E+01 -1.750367845E+02 -5.086258296E+02  5.524639945E+02  1.250000000E+02  0.00000E+00  9.000E+00
      25     1     1     2     0     0 -6.441639292E+01  1.820734438E+02 -1.217547876E+03  1.239091619E+03  1.250000000E+02  0.00000E+00  9.000E+00
      21     1     1     2   501   511  4.849927007E+01 -7.036659325E+00 -1.222935294E+02  1.317474900E+02  0.000000000E+00  0.00000E+00  9.000E+00
#rwgt            1           1   2.7049604594500447E-002           1       75040           0
</event>
<event>
      5   9999  3.19816E-02  7.41223E+01 -1.00000E+00  1.29974E-01
      21    -1     0     0   502   512  0.000000000E+00  0.000000000E+00  1.847198843E+03  1.847198843E+03  0.000000000E+00  0.00000E+00  9.000E+00
      21    -1     0     0   501   502  0.000000000E+00  0.000000000E+00 -1.666443687E+02  1.666443687E+02  0.000000000E+00  0.00000E+00  9.000E+00
      25     1     1     2     0     0 -3.913133998E+02 -8.896335628E+01  9.634428704E+02  1.051136442E+03  1.250000000E+02  0.00000E+00  9.000E+00
      25     1     1     2     0     0  4.369583538E+02  1.473641073E+02  3.606410992E+02  5.986115481E+02  1.250000000E+02  0.00000E+00  9.000E+00
      21     1     1     2   501   512 -4.564495400E+01 -5.840075100E+01  3.564705047E+02  3.640952214E+02  7.629394531E-06  0.00000E+00  9.000E+00
#rwgt            1           1   3.1159635091218163E-002           1       75141           0
</event>
<event>
      5   9999  3.19816E-02  1.78825E+01 -1.00000E+00  1.70482E-01
      21    -1     0     0   502   511  0.000000000E+00  0.000000000E+00  4.465772655E+02  4.465772655E+02  0.000000000E+00  0.00000E+00  9.000E+00
      21    -1     0     0   501   502  0.000000000E+00  0.000000000E+00 -1.496614193E+03  1.496614193E+03  0.000000000E+00  0.00000E+00  9.000E+00
      25     1     1     2     0     0  2.473336298E+02 -3.780356008E+02  2.507412315E+02  5.315834884E+02  1.250000000E+02  0.00000E+00  9.000E+00
      25     1     1     2     0     0 -2.585433555E+02  3.919685338E+02 -1.305597123E+03  1.393087523E+03  1.250000000E+02  0.00000E+00  9.000E+00
      21     1     1     2   501   511  1.120972567E+01 -1.393293294E+01  4.818963741E+00  1.852044766E+01  3.998401125E-07  0.00000E+00  9.000E+00
#rwgt            1           1   2.9872591559453546E-002           1       75247           0
</event>
<event>
      5   9999  3.19816E-02  2.57082E+02 -1.00000E+00  1.07817E-01
      21    -1     0     0   512   501  0.000000000E+00  0.000000000E+00  7.385747666E+02  7.385747666E+02  0.000000000E+00  0.00000E+00  9.000E+00
      21    -1     0     0   501   502  0.000000000E+00  0.000000000E+00 -4.733792471E+02  4.733792471E+02  0.000000000E+00  0.00000E+00  9.000E+00
      25     1     1     2     0     0  3.860528614E+01  7.140556098E+01  3.515956992E+01  1.531349654E+02  1.250000000E+02  0.00000E+00  9.000E+00
      25     1     1     2     0     0  2.127207065E+02 -1.731095160E+01 -3.475667968E+02  4.265881459E+02  1.250000000E+02  0.00000E+00  9.000E+00
      21     1     1     2   512   502 -2.513259927E+02 -5.409460937E+01  5.776027464E+02  6.322309024E+02  0.000000000E+00  0.00000E+00  9.000E+00
#rwgt            2          11   6.1253898930436002E-003           1       75505           0
</event>
<event>
      5   9999  3.19816E-02  4.81441E+01 -1.00000E+00  1.40019E-01
      21    -1     0     0   502   501  0.000000000E+00  0.000000000E+00  3.337220084E+02  3.337220084E+02  0.000000000E+00  0.00000E+00  9.000E+00
      21    -1     0     0   511   502  0.000000000E+00  0.000000000E+00 -2.750918591E+02  2.750918591E+02  0.000000000E+00  0.00000E+00  9.000E+00
      25     1     1     2     0     0  1.060241943E+02 -3.895792466E+00 -1.487382159E+02  2.213692930E+02  1.250000000E+02  0.00000E+00  9.000E+00
      25     1     1     2     0     0 -5.797248680E+01  9.153122918E-01  2.731441503E+02  3.059319759E+02  1.250000000E+02  0.00000E+00  9.000E+00
      21     1     1     2   511   501 -4.805170753E+01  2.980480174E+00 -6.577578501E+01  8.151259873E+01  9.536743164E-07  0.00000E+00  9.000E+00
#rwgt            1           1   3.1805915264043812E-002           1       75540           0
</event>
<event>
      5   9999  3.19816E-02  3.48557E+01 -1.00000E+00  1.48648E-01
      21    -1     0     0   502   512  0.000000000E+00  0.000000000E+00  9.028101211E+02  9.028101211E+02  0.000000000E+00  0.00000E+00  9.000E+00
      21    -1     0     0   501   502  0.000000000E+00  0.000000000E+00 -4.511515616E+02  4.511515616E+02  0.000000000E+00  0.00000E+00  9.000E+00
      25     1     1     2     0     0  2.857491832E+02 -2.183890982E+02 -2.264755617E+02  4.430153202E+02  1.250000000E+02  0.00000E+00  9.000E+00
      25     1     1     2     0     0 -2.630835604E+02  1.919090946E+02  1.467515119E+02  3.784218104E+02  1.250000000E+02  0.00000E+00  9.000E+00
      21     1     1     2   501   512 -2.266562279E+01  2.648000363E+01  5.313826093E+02  5.325245520E+02  7.629394531E-06  0.00000E+00  9.000E+00
#rwgt            1           1   3.1309177997139163E-002           1       75606           0
</event>
<event>
      5   9999  3.19816E-02  4.12866E+01 -1.00000E+00  1.43993E-01
      21    -1     0     0   502   511  0.000000000E+00  0.000000000E+00  1.024980159E+02  1.024980159E+02  0.000000000E+00  0.00000E+00  9.000E+00
      21    -1     0     0   501   502  0.000000000E+00  0.000000000E+00 -3.997613341E+02  3.997613341E+02  0.000000000E+00  0.00000E+00  9.000E+00
      25     1     1     2     0     0  8.076871392E+00  8.504764355E+01 -1.702205910E+02  2.278121751E+02  1.250000000E+02  0.00000E+00  9.000E+00
      25     1     1     2     0     0 -4.354028126E+01 -1.061883776E+02 -1.506233216E+02  2.269011077E+02  1.250000000E+02  0.00000E+00  9.000E+00
      21     1     1     2   501   511  3.546340986E+01  2.114073407E+01  2.358059447E+01  4.754606726E+01  8.259061849E-07  0.00000E+00  9.000E+00
#rwgt            1           1   2.1885098498941120E-002           1       75737           0
</event>
<event>
      5   9999  3.19816E-02  3.46197E+01 -1.00000E+00  1.48841E-01
      21    -1     0     0   512   501  0.000000000E+00  0.000000000E+00  3.700061122E+02  3.700061122E+02  0.000000000E+00  0.00000E+00  9.000E+00
      21    -1     0     0   501   502  0.000000000E+00  0.000000000E+00 -2.786289283E+02  2.786289283E+02  0.000000000E+00  0.00000E+00  9.000E+00
      25     1     1     2     0     0 -1.952307502E+00 -1.487754482E+02  1.241064383E+02  2.305761339E+02  1.250000000E+02  0.00000E+00  9.000E+00
      25     1     1     2     0     0 -1.868938092E+01  1.765683038E+02 -1.704519309E+02  2.760516612E+02  1.250000000E+02  0.00000E+00  9.000E+00
      21     1     1     2   512   502  2.064168842E+01 -2.779285569E+01  1.377226765E+02  1.420072454E+02  0.000000000E+00  0.00000E+00  9.000E+00
#rwgt            1           1   2.7298384272110125E-002           1       75819           0
</event>
<event>
      5   9999  3.19816E-02  4.32463E+01 -1.00000E+00  1.42769E-01
      21    -1     0     0   502   501  0.000000000E+00  0.000000000E+00  3.615283279E+02  3.615283279E+02  0.000000000E+00  0.00000E+00  9.000E+00
       2    -1     0     0   501     0  0.000000000E+00  0.000000000E+00 -1.428478977E+03  1.428478977E+03  0.000000000E+00  0.00000E+00  9.000E+00
      25     1     1     2     0     0 -5.121015156E+01  2.335846182E+02 -7.621679204E+02  8.085228459E+02  1.250000000E+02  0.00000E+00  9.000E+00
      25     1     1     2     0     0  6.809182729E+01 -1.937693806E+02  2.947603573E+02  3.803836721E+02  1.250000000E+02  0.00000E+00  9.000E+00
       2     1     1     2   502     0 -1.688167573E+01 -3.981523762E+01 -5.995430857E+02  6.011007866E+02  7.629394531E-06  0.00000E+00  9.000E+00
#rwgt            1           1   3.3063970194987559E-002           1       75916           0
</event>
<event>
      5   9999  3.19816E-02  3.68281E+01 -1.00000E+00  1.47101E-01
      21    -1     0     0   502   511  0.000000000E+00  0.000000000E+00  7.059059038E+01  7.059059038E+01  0.000000000E+00  0.00000E+00  9.000E+00
      21    -1     0     0   501   502  0.000000000E+00  0.000000000E+00 -3.476917957E+03  3.476917957E+03  0.000000000E+00  0.00000E+00  9.000E+00
      25     1     1     2     0     0 -2.828106231E+02 -7.151013575E+01 -3.733083426E+02  4.899792513E+02  1.250000000E+02  0.00000E+00  9.000E+00
      25     1     1     2     0     0  2.571435029E+02  9.792051195E+01 -2.963387148E+03  2.978758063E+03  1.250000000E+02  0.00000E+00  9.000E+00
      21     1     1     2   501   511  2.566712017E+01 -2.641037620E+01 -6.963187577E+01  7.877123302E+01  9.536743164E-07  0.00000E+00  9.000E+00
#rwgt            1           1   3.2828376163679368E-002           1       76053           0
</event>
<event>
      5   9999  3.19816E-02  1.73243E+01 -1.00000E+00  1.71685E-01
      21    -1     0     0   502   501  0.000000000E+00  0.000000000E+00  3.947751982E+02  3.947751982E+02  0.000000000E+00  0.00000E+00  9.000E+00
      21    -1     0     0   512   502  0.000000000E+00  0.000000000E+00 -6.320556858E+02  6.320556858E+02  0.000000000E+00  0.00000E+00  9.000E+00
      25     1     1     2     0     0 -3.506232537E+00  2.035336645E+02  2.522173312E+02  3.473857055E+02  1.250000000E+02  0.00000E+00  9.000E+00
      25     1     1     2     0     0  2.071403704E+01 -2.055392992E+02 -5.894734501E+01  2.485463022E+02  1.250000000E+02  0.00000E+00  9.000E+00
      21     1     1     2   512   501 -1.720780450E+01  2.005634744E+00 -4.305504737E+02  4.308988762E+02  7.629394531E-06  0.00000E+00  9.000E+00
#rwgt            1           1   2.6192045309700027E-002           1       76139           0
</event>
<event>
      5   9999  3.19816E-02  3.00648E+01 -1.00000E+00  1.52975E-01
      21    -1     0     0   502   511  0.000000000E+00  0.000000000E+00  1.184011784E+02  1.184011784E+02  0.000000000E+00  0.00000E+00  9.000E+00
      21    -1     0     0   501   502  0.000000000E+00  0.000000000E+00 -5.141088882E+02  5.141088882E+02  0.000000000E+00  0.00000E+00  9.000E+00
      25     1     1     2     0     0 -1.113013183E+02 -5.697940906E+01 -1.072276522E+01  1.771288068E+02  1.250000000E+02  0.00000E+00  9.000E+00
      25     1     1     2     0     0  1.068716110E+02  2.724274581E+01 -3.907013158E+02  4.247778556E+02  1.250000000E+02  0.00000E+00  9.000E+00
      21     1     1     2   501   511  4.429707290E+00  2.973666325E+01  5.716371173E+00  3.060340418E+01  7.202056631E-07  0.00000E+00  9.000E+00
#rwgt            1           1   3.1250727389093173E-002           1       76324           0
</event>
<event>
      5   9999  3.19816E-02  2.82638E+01 -1.00000E+00  1.54860E-01
      21    -1     0     0   502   501  0.000000000E+00  0.000000000E+00  4.340023448E+01  4.340023448E+01  0.000000000E+00  0.00000E+00  9.000E+00
      21    -1     0     0   512   502  0.000000000E+00  0.000000000E+00 -5.686234553E+02  5.686234553E+02  0.000000000E+00  0.00000E+00  9.000E+00
      25     1     1     2     0     0  3.101945259E+01  5.949024367E+01 -2.037374541E+02  2.482644673E+02  1.250000000E+02  0.00000E+00  9.000E+00
      25     1     1     2     0     0 -2.993661068E+00 -5.583036874E+01 -2.266770024E+02  2.648272182E+02  1.250000000E+02  0.00000E+00  9.000E+00
      21     1     1     2   512   501 -2.802579152E+01 -3.659874930E+00 -9.480876431E+01  9.893200425E+01  2.336015456E-06  0.00000E+00  9.000E+00
#rwgt            1           1   1.8584023556130383E-002           1       76464           0
</event>
<event>
      5   9999  3.19816E-02  2.01147E+01 -1.00000E+00  1.66164E-01
      21    -1     0     0   502   511  0.000000000E+00  0.000000000E+00  7.819551088E+02  7.819551088E+02  0.000000000E+00  0.00000E+00  9.000E+00
      21    -1     0     0   501   502  0.000000000E+00  0.000000000E+00 -2.493783386E+02  2.493783386E+02  0.000000000E+00  0.00000E+00  9.000E+00
      25     1     1     2     0     0 -6.100156425E-01 -2.380973239E+02  3.068758923E+02  4.080300492E+02  1.250000000E+02  0.00000E+00  9.000E+00
      25     1     1     2     0     0 -1.634957082E+01  2.489126816E+02 -1.004395237E+02  2.965433011E+02  1.250000000E+02  0.00000E+00  9.000E+00
      21     1     1     2   501   511  1.695958647E+01 -1.081535769E+01  3.261404016E+02  3.267600971E+02  0.000000000E+00  0.00000E+00  9.000E+00
#rwgt            1           1   2.9022452980664928E-002           1       76572           0
</event>
<event>
      5   9999  3.19816E-02  1.58003E+02 -1.00000E+00  1.15506E-01
      21    -1     0     0   502   512  0.000000000E+00  0.000000000E+00  4.326777423E+02  4.326777423E+02  0.000000000E+00  0.00000E+00  9.000E+00
      21    -1     0     0   501   502  0.000000000E+00  0.000000000E+00 -5.113681907E+02  5.113681907E+02  0.000000000E+00  0.00000E+00  9.000E+00
      25     1     1     2     0     0 -1.022938931E+02 -3.458059331E+02 -1.964587330E+02  4.292631101E+02  1.250000000E+02  0.00000E+00  9.000E+00
      25     1     1     2     0     0  2.068924042E+02  2.273819047E+02  1.297530082E+02  3.563254701E+02  1.250000000E+02  0.00000E+00  9.000E+00
      21     1     1     2   501   512 -1.045985112E+02  1.184240284E+02 -1.198472355E+01  1.584573527E+02  1.168007728E-06  0.00000E+00  9.000E+00
#rwgt            2          11   4.3467726037671088E-003           1       76764           0
</event>
<event>
      5   9999  3.19816E-02  2.95083E+01 -1.00000E+00  1.53540E-01
      21    -1     0     0   511   501  0.000000000E+00  0.000000000E+00  1.442929046E+03  1.442929046E+03  0.000000000E+00  0.00000E+00  9.000E+00
      21    -1     0     0   501   502  0.000000000E+00  0.000000000E+00 -2.717655790E+02  2.717655790E+02  0.000000000E+00  0.00000E+00  9.000E+00
      25     1     1     2     0     0 -1.614887857E+02 -3.684260573E+02  3.756456316E+02  5.644032496E+02  1.250000000E+02  0.00000E+00  9.000E+00
      25     1     1     2     0     0  1.476014159E+02  3.944621894E+02  9.542231573E+01  4.495742599E+02  1.250000000E+02  0.00000E+00  9.000E+00
      21     1     1     2   511   502  1.388736986E+01 -2.603613211E+01  7.000955196E+02  7.007171153E+02  7.629394531E-06  0.00000E+00  9.000E+00
#rwgt            1           1   3.0397937568858637E-002           1       76799           0
</event>
<event>
      5   9999  3.19816E-02  5.13893E+01 -1.00000E+00  1.38400E-01
      21    -1     0     0   502   512  0.000000000E+00  0.000000000E+00  1.776282061E+02  1.776282061E+02  0.000000000E+00  0.00000E+00  9.000E+00
      21    -1     0     0   501   502  0.000000000E+00  0.000000000E+00 -6.472908987E+02  6.472908987E+02  0.000000000E+00  0.00000E+00  9.000E+00
      25     1     1     2     0     0 -1.461742862E+02 -1.779577452E+02 -4.710827727E+02  5.390545981E+02  1.250000000E+02  0.00000E+00  9.000E+00
      25     1     1     2     0     0  9.493801578E+01  1.739950530E+02  4.570555752E+00  2.343787433E+02  1.250000000E+02  0.00000E+00  9.000E+00
      21     1     1     2   501   512  5.123627045E+01  3.962692151E+00 -3.150475594E+00  5.148576342E+01  1.063738364E-06  0.00000E+00  9.000E+00
#rwgt            1           1   2.5397347020422067E-002           1       76982           0
</event>
<event>
      5   9999  3.19816E-02  1.80374E+02 -1.00000E+00  1.13306E-01
      21    -1     0     0   502   511  0.000000000E+00  0.000000000E+00  8.842863982E+02  8.842863982E+02  0.000000000E+00  0.00000E+00  9.000E+00
      21    -1     0     0   501   502  0.000000000E+00  0.000000000E+00 -3.554919133E+02  3.554919133E+02  0.000000000E+00  0.00000E+00  9.000E+00
      25     1     1     2     0     0  1.653819357E+02  3.986731528E+02  2.743478100E+01  4.501878882E+02  1.250000000E+02  0.00000E+00  9.000E+00
      25     1     1     2     0     0 -1.363450429E+00 -3.236209087E+02  1.189073779E+02  3.667373939E+02  1.250000000E+02  0.00000E+00  9.000E+00
      21     1     1     2   501   511 -1.640184853E+02 -7.505224409E+01  3.824523260E+02  4.228530295E+02  5.394796609E-06  0.00000E+00  9.000E+00
#rwgt            1           1   2.9386124129421050E-002           1       77110           0
</event>
<event>
      5   9999  3.19816E-02  8.92078E+01 -1.00000E+00  1.26101E-01
      21    -1     0     0   502   512  0.000000000E+00  0.000000000E+00  4.373053346E+02  4.373053346E+02  0.000000000E+00  0.00000E+00  9.000E+00
      21    -1     0     0   501   502  0.000000000E+00  0.000000000E+00 -2.181951453E+02  2.181951453E+02  0.000000000E+00  0.00000E+00  9.000E+00
      25     1     1     2     0     0 -1.468797105E+02 -1.037942770E+02  2.131533105E+02  3.056243365E+02  1.250000000E+02  0.00000E+00  9.000E+00
      25     1     1     2     0     0  1.312620923E+02  1.596415661E+01 -1.029751017E+02  2.090776476E+02  1.250000000E+02  0.00000E+00  9.000E+00
      21     1     1     2   501   512  1.561761825E+01  8.783012036E+01  1.089319804E+02  1.407984957E+02  3.015782986E-06  0.00000E+00  9.000E+00
#rwgt            2          11   2.3459991646435376E-003           1       77237           0
</event>
<event>
      5   9999  3.19816E-02  1.17339E+02 -1.00000E+00  1.20783E-01
      21    -1     0     0   511   501  0.000000000E+00  0.000000000E+00  8.118607359E+01  8.118607359E+01  0.000000000E+00  0.00000E+00  9.000E+00
      21    -1     0     0   501   502  0.000000000E+00  0.000000000E+00 -3.213232600E+03  3.213232600E+03  0.000000000E+00  0.00000E+00  9.000E+00
      25     1     1     2     0     0  2.994804059E+02  1.780763008E+01 -2.102668379E+03  2.127638348E+03  1.250000000E+02  0.00000E+00  9.000E+00
      25     1     1     2     0     0 -2.955855851E+02 -1.350822098E+02 -9.790093846E+02  1.039087300E+03  1.250000000E+02  0.00000E+00  9.000E+00
      21     1     1     2   511   502 -3.894820817E+00  1.172745797E+02 -5.036876254E+01  1.276930261E+02  1.348699152E-06  0.00000E+00  9.000E+00
#rwgt            1           1   2.8230780943291938E-002           1       77257           0
</event>
<event>
      5   9999  3.19816E-02  1.33366E+01 -1.00000E+00  1.82332E-01
      21    -1     0     0   502   501  0.000000000E+00  0.000000000E+00  1.031051264E+02  1.031051264E+02  0.000000000E+00  0.00000E+00  9.000E+00
      21    -1     0     0   512   502  0.000000000E+00  0.000000000E+00 -6.699662097E+02  6.699662097E+02  0.000000000E+00  0.00000E+00  9.000E+00
      25     1     1     2     0     0 -1.640374486E+02  8.722029504E+01 -3.033636817E+02  3.770546218E+02  1.250000000E+02  0.00000E+00  9.000E+00
      25     1     1     2     0     0  1.625953557E+02 -7.396188458E+01 -1.141878644E+02  2.461127352E+02  1.250000000E+02  0.00000E+00  9.000E+00
      21     1     1     2   512   501  1.442092877E+00 -1.325841046E+01 -1.493095371E+02  1.499039791E+02  1.907348633E-06  0.00000E+00  9.000E+00
#rwgt            1           1   2.2978866132736857E-002           1       77323           0
</event>
<event>
      5   9999  3.19816E-02  6.25690E+01 -1.00000E+00  1.33738E-01
      21    -1     0     0   502   511  0.000000000E+00  0.000000000E+00  4.957173500E+02  4.957173500E+02  0.000000000E+00  0.00000E+00  9.000E+00
      21    -1     0     0   501   502  0.000000000E+00  0.000000000E+00 -6.425858175E+02  6.425858175E+02  0.000000000E+00  0.00000E+00  9.000E+00
      25     1     1     2     0     0  1.682104366E+02  4.856319081E+02 -3.422184980E+01  5.300275806E+02  1.250000000E+02  0.00000E+00  9.000E+00
      25     1     1     2     0     0 -1.725456500E+02 -4.232132289E+02 -1.885057424E+02  5.099420098E+02  1.250000000E+02  0.00000E+00  9.000E+00
      21     1     1     2   501   511  4.335213395E+00 -6.241867921E+01  7.585912473E+01  9.833357714E+01  0.000000000E+00  0.00000E+00  9.000E+00
#rwgt            2          11   3.5196583056463769E-003           1       77596           0
</event>
<event>
      5   9999  3.19816E-02  1.90181E+01 -1.00000E+00  1.68193E-01
      21    -1     0     0   502   501  0.000000000E+00  0.000000000E+00  3.526577341E+02  3.526577341E+02  0.000000000E+00  0.00000E+00  9.000E+00
      21    -1     0     0   512   502  0.000000000E+00  0.000000000E+00 -1.316804637E+02  1.316804637E+02  0.000000000E+00  0.00000E+00  9.000E+00
      25     1     1     2     0     0  5.286079412E+01 -3.448659407E+01  2.541453776E+02  2.901697118E+02  1.250000000E+02  0.00000E+00  9.000E+00
      25     1     1     2     0     0 -6.967816951E+01  4.336706159E+01  7.028199916E+00  1.497001835E+02  1.250000000E+02  0.00000E+00  9.000E+00
      21     1     1     2   512   501  1.681737539E+01 -8.880467524E+00 -4.019630715E+01  4.446830249E+01  0.000000000E+00  0.00000E+00  9.000E+00
#rwgt            1           1   2.8716457223521979E-002           1       77616           0
</event>
<event>
      5   9999  3.19816E-02  5.89380E+01 -1.00000E+00  1.35119E-01
      21    -1     0     0   502   501  0.000000000E+00  0.000000000E+00  1.192711111E+02  1.192711111E+02  0.000000000E+00  0.00000E+00  9.000E+00
      -2    -1     0     0     0   502  0.000000000E+00  0.000000000E+00 -9.802140929E+02  9.802140929E+02  0.000000000E+00  0.00000E+00  9.000E+00
      25     1     1     2     0     0  2.009697837E+02 -8.427146028E+01 -2.020435033E+02  3.223927887E+02  1.250000000E+02  0.00000E+00  9.000E+00
      25     1     1     2     0     0 -2.113275545E+02  1.422921701E+02 -2.983495118E+02  4.117570013E+02  1.250000000E+02  0.00000E+00  9.000E+00
      -2     1     1     2     0   501  1.035777076E+01 -5.802070979E+01 -3.605499667E+02  3.653354139E+02  3.814697266E-06  0.00000E+00  9.000E+00
#rwgt            1           1   2.7707957247800175E-002           1       77751           0
</event>
<event>
      5   9999  3.28589E-02  7.97603E+01 -1.00000E+00  1.28413E-01
      21    -1     0     0   502   501  0.000000000E+00  0.000000000E+00  9.413712662E+01  9.413712662E+01  0.000000000E+00  0.00000E+00  9.000E+00
      21    -1     0     0   511   502  0.000000000E+00  0.000000000E+00 -2.955877555E+03  2.955877555E+03  0.000000000E+00  0.00000E+00  9.000E+00
      25     1     1     2     0     0 -1.255378023E+02  3.048273831E+02 -3.740056057E+02  5.139889750E+02  1.250000000E+02  0.00000E+00  9.000E+00
      25     1     1     2     0     0  8.922034724E+01 -3.758396471E+02 -1.899339412E+03  1.942248932E+03  1.250000000E+02  0.00000E+00  9.000E+00
      21     1     1     2   511   501  3.631745509E+01  7.101226396E+01 -5.883954103E+02  5.937767746E+02  7.629394531E-06  0.00000E+00  9.000E+00
#rwgt            1           1   9.4809191054090886E-002           1       77834           0
</event>
<event>
      5   9999  3.19816E-02  1.80234E+01 -1.00000E+00  1.70186E-01
      21    -1     0     0   502   501  0.000000000E+00  0.000000000E+00  1.142944463E+03  1.142944463E+03  0.000000000E+00  0.00000E+00  9.000E+00
      21    -1     0     0   512   502  0.000000000E+00  0.000000000E+00 -5.013975745E+01  5.013975745E+01  0.000000000E+00  0.00000E+00  9.000E+00
      25     1     1     2     0     0  1.590515018E+02  9.657674530E+01  4.714317368E+02  5.220127684E+02  1.250000000E+02  0.00000E+00  9.000E+00
      25     1     1     2     0     0 -1.568221868E+02 -1.144617251E+02  6.012016472E+02  6.440210442E+02  1.250000000E+02  0.00000E+00  9.000E+00
      21     1     1     2   512   501 -2.229315037E+00  1.788497982E+01  2.017132155E+01  2.705040779E+01  2.384185791E-07  0.00000E+00  9.000E+00
#rwgt            1           1   2.8285084957824922E-002           1       77958           0
</event>
<event>
      5   9999  3.19816E-02  7.46361E+01 -1.00000E+00  1.29826E-01
      21    -1     0     0   502   501  0.000000000E+00  0.000000000E+00  1.498933131E+03  1.498933131E+03  0.000000000E+00  0.00000E+00  9.000E+00
      21    -1     0     0   511   502  0.000000000E+00  0.000000000E+00 -7.380060718E+02  7.380060718E+02  0.000000000E+00  0.00000E+00  9.000E+00
      25     1     1     2     0     0  1.943816904E+02  5.794707622E+02  1.195943436E+03  1.348879649E+03  1.250000000E+02  0.00000E+00  9.000E+00
      25     1     1     2     0     0 -1.922758043E+02 -6.540771401E+02 -3.553753292E+02  7.789117503E+02  1.250000000E+02  0.00000E+00  9.000E+00
      21     1     1     2   511   501 -2.105886045E+00  7.460637798E+01 -7.964104788E+01  1.091478030E+02  9.536743164E-07  0.00000E+00  9.000E+00
#rwgt            2          11   6.4311577261798323E-003           1       78140           0
</event>
<event>
      5   9999  3.19816E-02  3.21355E+02 -1.00000E+00  1.04631E-01
      21    -1     0     0   502   501  0.000000000E+00  0.000000000E+00  3.691891874E+02  3.691891874E+02  0.000000000E+00  0.00000E+00  9.000E+00
       2    -1     0     0   501     0  0.000000000E+00  0.000000000E+00 -1.231673554E+03  1.231673554E+03  0.000000000E+00  0.00000E+00  9.000E+00
      25     1     1     2     0     0 -3.444113547E+02  3.111618771E+02 -3.543523769E+02  5.971863210E+02  1.250000000E+02  0.00000E+00  9.000E+00
      25     1     1     2     0     0  2.512428940E+02 -3.609198886E+00  1.144232852E+02  3.030737638E+02  1.250000000E+02  0.00000E+00  9.000E+00
       2     1     1     2   502     0  9.316846066E+01 -3.075526782E+02 -6.225552750E+02  7.006026566E+02  7.629394531E-06  0.00000E+00  9.000E+00
#rwgt            2          13   1.1538817514255655E-003           1       78205           0
</event>
<event>
      5   9999  3.19816E-02  2.03909E+01 -1.00000E+00  1.65678E-01
      21    -1     0     0   502   511  0.000000000E+00  0.000000000E+00  1.252785321E+03  1.252785321E+03  0.000000000E+00  0.00000E+00  9.000E+00
      21    -1     0     0   501   502  0.000000000E+00  0.000000000E+00 -1.541558852E+02  1.541558852E+02  0.000000000E+00  0.00000E+00  9.000E+00
      25     1     1     2     0     0  2.149824109E+02 -6.505658933E+01 -1.953356906E+01  2.577913054E+02  1.250000000E+02  0.00000E+00  9.000E+00
      25     1     1     2     0     0 -2.048595547E+02  4.735586782E+01  1.038302364E+03  1.066727150E+03  1.250000000E+02  0.00000E+00  9.000E+00
      21     1     1     2   501   511 -1.012285622E+01  1.770072151E+01  7.986064161E+01  8.242275073E+01  0.000000000E+00  0.00000E+00  9.000E+00
#rwgt            1           1   3.3058750573958191E-002           1       78239           0
</event>
<event>
      5   9999  3.19816E-02  7.54889E+01 -1.00000E+00  1.29582E-01
       2    -1     0     0   502     0  0.000000000E+00  0.000000000E+00  9.550906980E+02  9.550906980E+02  0.000000000E+00  0.00000E+00  9.000E+00
      21    -1     0     0   501   502  0.000000000E+00  0.000000000E+00 -2.686965394E+02  2.686965394E+02  0.000000000E+00  0.00000E+00  9.000E+00
      25     1     1     2     0     0  1.986339038E+02  1.928144261E+02  7.119792870E+02  7.740622299E+02  1.250000000E+02  0.00000E+00  9.000E+00
      25     1     1     2     0     0 -2.717413986E+02 -2.116258859E+02 -5.129116188E+01  3.699793056E+02  1.250000000E+02  0.00000E+00  9.000E+00
       2     1     1     2   501     0  7.310749481E+01  1.881145975E+01  2.570603338E+01  7.974570187E+01  1.617033478E-06  0.00000E+00  9.000E+00
#rwgt            1           1   2.6573706668187043E-002           1       78411           0
</event>
<event>
      5   9999  3.19816E-02  6.68393E+02 -1.00000E+00  9.53980E-02
       2    -1     0     0   502     0  0.000000000E+00  0.000000000E+00  2.900976925E+03  2.900976925E+03  0.000000000E+00  0.00000E+00  9.000E+00
      21    -1     0     0   501   502  0.000000000E+00  0.000000000E+00 -9.246723206E+02  9.246723206E+02  0.000000000E+00  0.00000E+00  9.000E+00
      25     1     1     2     0     0  2.987560383E+02 -1.006104862E+01 -3.240054696E+02  4.582149490E+02  1.250000000E+02  0.00000E+00  9.000E+00
      25     1     1     2     0     0 -8.311294123E+02 -3.940773501E+02 -4.437931454E+01  9.293371731E+02  1.250000000E+02  0.00000E+00  9.000E+00
       2     1     1     2   501     0  5.323733740E+02  4.041383987E+02  2.344689389E+03  2.438097124E+03  3.051757812E-05  0.00000E+00  9.000E+00
#rwgt            2          18   1.7320574905162005E-003           1       78518           0
</event>
<event>
      5   9999  3.19816E-02  1.24523E+02 -1.00000E+00  1.19690E-01
      21    -1     0     0   502   501  0.000000000E+00  0.000000000E+00  6.031971778E+02  6.031971778E+02  0.000000000E+00  0.00000E+00  9.000E+00
      21    -1     0     0   511   502  0.000000000E+00  0.000000000E+00 -6.299455803E+02  6.299455803E+02  0.000000000E+00  0.00000E+00  9.000E+00
      25     1     1     2     0     0 -9.846817841E+01 -3.300239801E+02 -4.354101274E+02  5.690507787E+02  1.250000000E+02  0.00000E+00  9.000E+00
      25     1     1     2     0     0  1.380092073E+02  2.119451809E+02  4.515092294E+02  5.324029350E+02  1.250000000E+02  0.00000E+00  9.000E+00
      21     1     1     2   511   501 -3.954102884E+01  1.180787992E+02 -4.284750441E+01  1.316890444E+02  1.651812370E-06  0.00000E+00  9.000E+00
#rwgt            1           1   2.5897012259652494E-002           1       78537           0
</event>
<event>
      5   9999  3.19816E-02  2.51176E+01 -1.00000E+00  1.58598E-01
      21    -1     0     0   502   501  0.000000000E+00  0.000000000E+00  1.336187192E+03  1.336187192E+03  0.000000000E+00  0.00000E+00  9.000E+00
      21    -1     0     0   512   502  0.000000000E+00  0.000000000E+00 -1.732682870E+02  1.732682870E+02  0.000000000E+00  0.00000E+00  9.000E+00
      25     1     1     2     0     0  1.508348260E+02  3.145833582E+01 -9.926714525E+01  2.218552180E+02  1.250000000E+02  0.00000E+00  9.000E+00
      25     1     1     2     0     0 -1.270301975E+02 -2.344374348E+01  1.243164639E+03  1.256092990E+03  1.250000000E+02  0.00000E+00  9.000E+00
      21     1     1     2   512   501 -2.380462853E+01 -8.014592345E+00  1.902141108E+01  3.150727074E+01  4.129530925E-07  0.00000E+00  9.000E+00
#rwgt            1           1   2.9650957379359844E-002           1       78632           0
</event>
<event>
      5   9999  3.19816E-02  2.49891E+01 -1.00000E+00  1.58765E-01
      21    -1     0     0   502   501  0.000000000E+00  0.000000000E+00  6.815486584E+02  6.815486584E+02  0.000000000E+00  0.00000E+00  9.000E+00
      -3    -1     0     0     0   502  0.000000000E+00  0.000000000E+00 -6.289906592E+02  6.289906592E+02  0.000000000E+00  0.00000E+00  9.000E+00
      25     1     1     2     0     0 -1.116299284E+02 -9.686868780E+01  3.841227839E+02  4.301396247E+02  1.250000000E+02  0.00000E+00  9.000E+00
      25     1     1     2     0     0  1.256610911E+02  1.175467552E+02  2.328913053E+02  3.153907253E+02  1.250000000E+02  0.00000E+00  9.000E+00
      -3     1     1     2     0   501 -1.403116267E+01 -2.067806741E+01 -5.644560900E+02  5.650089677E+02  7.629394531E-06  0.00000E+00  9.000E+00
#rwgt            1           1   3.0569541207044016E-002           1       78813           0
</event>
<event>
      5   9999  3.19816E-02  5.56897E+01 -1.00000E+00  1.36457E-01
      21    -1     0     0   511   501  0.000000000E+00  0.000000000E+00  7.785773082E+02  7.785773082E+02  0.000000000E+00  0.00000E+00  9.000E+00
      21    -1     0     0   501   502  0.000000000E+00  0.000000000E+00 -5.706731743E+02  5.706731743E+02  0.000000000E+00  0.00000E+00  9.000E+00
      25     1     1     2     0     0 -3.869774038E+02  1.028447366E+02 -3.572008365E+02  5.509500781E+02  1.250000000E+02  0.00000E+00  9.000E+00
      25     1     1     2     0     0  3.952535811E+02 -1.579160644E+02  3.200825954E+02  5.470290163E+02  1.250000000E+02  0.00000E+00  9.000E+00
      21     1     1     2   511   502 -8.276177264E+00  5.507132772E+01  2.450223750E+02  2.512713882E+02  3.814697266E-06  0.00000E+00  9.000E+00
#rwgt            1           1   3.0202294224393678E-002           1       78908           0
</event>
<event>
      5   9999  3.19816E-02  8.30144E+02 -1.00000E+00  9.29749E-02
      21    -1     0     0   502   501  0.000000000E+00  0.000000000E+00  7.534385796E+02  7.534385796E+02  0.000000000E+00  0.00000E+00  9.000E+00
      -1    -1     0     0     0   502  0.000000000E+00  0.000000000E+00 -1.852542380E+03  1.852542380E+03  0.000000000E+00  0.00000E+00  9.000E+00
      25     1     1     2     0     0 -5.994218128E+02  2.303595576E+02 -1.337465704E+03  1.488896082E+03  1.250000000E+02  0.00000E+00  9.000E+00
      25     1     1     2     0     0 -1.701688410E+02  8.087809565E+01  1.723834396E+02  2.843233213E+02  1.250000000E+02  0.00000E+00  9.000E+00
      -1     1     1     2     0   501  7.695906539E+02 -3.112376533E+02  6.597846383E+01  8.327615559E+02  8.635888231E-06  0.00000E+00  9.000E+00
#rwgt            2          10   1.5706576959233666E-005           1       79122           0
</event>
<event>
      5   9999  3.19816E-02  1.20130E+02 -1.00000E+00  1.20348E-01
      21    -1     0     0   511   501  0.000000000E+00  0.000000000E+00  2.683180991E+02  2.683180991E+02  0.000000000E+00  0.00000E+00  9.000E+00
      21    -1     0     0   501   502  0.000000000E+00  0.000000000E+00 -3.954281922E+02  3.954281922E+02  0.000000000E+00  0.00000E+00  9.000E+00
      25     1     1     2     0     0  5.347922672E+01  6.106881698E+01  5.511680118E+01  1.589096909E+02  1.250000000E+02  0.00000E+00  9.000E+00
      25     1     1     2     0     0 -1.256464136E+02  3.496830594E+01 -2.911739304E+02  3.426617303E+02  1.250000000E+02  0.00000E+00  9.000E+00
      21     1     1     2   511   502  7.216718689E+01 -9.603712292E+01  1.089470360E+02  1.621748701E+02  1.907348633E-06  0.00000E+00  9.000E+00
#rwgt            1           1   2.5841836749527107E-002           1       79186           0
</event>
<event>
      5   9999  3.19816E-02  1.42586E+02 -1.00000E+00  1.17273E-01
      21    -1     0     0   502   512  0.000000000E+00  0.000000000E+00  5.136048716E+02  5.136048716E+02  0.000000000E+00  0.00000E+00  9.000E+00
      21    -1     0     0   501   502  0.000000000E+00  0.000000000E+00 -2.466516972E+02  2.466516972E+02  0.000000000E+00  0.00000E+00  9.000E+00
      25     1     1     2     0     0 -1.575291265E+02  2.007484324E+02  5.111676114E+01  2.887096848E+02  1.250000000E+02  0.00000E+00  9.000E+00
      25     1     1     2     0     0  1.592942482E+02 -5.817298179E+01 -2.601531268E+00  2.106905818E+02  1.250000000E+02  0.00000E+00  9.000E+00
      21     1     1     2   501   512 -1.765121676E+00 -1.425754507E+02  2.184379445E+02  2.608563022E+02  2.697398305E-06  0.00000E+00  9.000E+00
#rwgt            1           1   2.6116214268846152E-002           1       79218           0
</event>
<event>
      5   9999  3.19816E-02  1.07879E+02 -1.00000E+00  1.22364E-01
      21    -1     0     0   502   511  0.000000000E+00  0.000000000E+00  1.358796803E+03  1.358796803E+03  0.000000000E+00  0.00000E+00  9.000E+00
      21    -1     0     0   501   502  0.000000000E+00  0.000000000E+00 -3.610757979E+02  3.610757979E+02  0.000000000E+00  0.00000E+00  9.000E+00
      25     1     1     2     0     0 -3.925846336E+02 -4.694303509E+01  3.278258432E+02  5.286029953E+02  1.250000000E+02  0.00000E+00  9.000E+00
      25     1     1     2     0     0  3.545840839E+02 -5.402193443E+01 -1.166648018E+02  3.973460934E+02  1.250000000E+02  0.00000E+00  9.000E+00
      21     1     1     2   501   511  3.800054977E+01  1.009649695E+02  7.865599633E+02  7.939235119E+02  0.000000000E+00  0.00000E+00  9.000E+00
#rwgt            1           1   2.7295256147302591E-002           1       79287           0
</event>
<event>
      5   9999  3.19816E-02  2.83640E+01 -1.00000E+00  1.54751E-01
      21    -1     0     0   512   501  0.000000000E+00  0.000000000E+00  2.418466138E+02  2.418466138E+02  0.000000000E+00  0.00000E+00  9.000E+00
      21    -1     0     0   501   502  0.000000000E+00  0.000000000E+00 -1.351200216E+03  1.351200216E+03  0.000000000E+00  0.00000E+00  9.000E+00
      25     1     1     2     0     0  1.863384190E+01  2.875546204E+02 -9.518874964E+02  1.002372030E+03  1.250000000E+02  0.00000E+00  9.000E+00
      25     1     1     2     0     0 -2.318927759E+01 -3.155503753E+02 -2.949743171E+02  4.502717287E+02  1.250000000E+02  0.00000E+00  9.000E+00
      21     1     1     2   512   502  4.555435684E+00  2.799575492E+01  1.375082113E+02  1.404030714E+02  3.814697266E-06  0.00000E+00  9.000E+00
#rwgt            1           1   2.9605731297298286E-002           1       79380           0
</event>
<event>
      5   9999  3.19816E-02  1.53072E+02 -1.00000E+00  1.16046E-01
      21    -1     0     0   502   501  0.000000000E+00  0.000000000E+00  4.806920533E+02  4.806920533E+02  0.000000000E+00  0.00000E+00  9.000E+00
       2    -1     0     0   501     0  0.000000000E+00  0.000000000E+00 -1.143584359E+03  1.143584359E+03  0.000000000E+00  0.00000E+00  9.000E+00
      25     1     1     2     0     0  2.037857955E+02  3.282124532E+02  1.193959159E+01  4.062260685E+02  1.250000000E+02  0.00000E+00  9.000E+00
      25     1     1     2     0     0 -8.301307951E+01 -2.341640180E+02  1.919051533E+02  3.379002021E+02  1.250000000E+02  0.00000E+00  9.000E+00
       2     1     1     2   502     0 -1.207727160E+02 -9.404843523E+01 -8.667370508E+02  8.801501419E+02  1.078959322E-05  0.00000E+00  9.000E+00
#rwgt            1           1   2.7740211659811900E-002           1       79537           0
</event>
<event>
      5   9999  3.20840E-02  2.12400E+01 -1.00000E+00  1.64242E-01
      21    -1     0     0   502   501  0.000000000E+00  0.000000000E+00  5.116557387E+02  5.116557387E+02  0.000000000E+00  0.00000E+00  9.000E+00
      21    -1     0     0   511   502  0.000000000E+00  0.000000000E+00 -4.023901559E+02  4.023901559E+02  0.000000000E+00  0.00000E+00  9.000E+00
      25     1     1     2     0     0  2.383653607E+02 -2.705905048E+02 -1.296658924E+02  4.030825103E+02  1.250000000E+02  0.00000E+00  9.000E+00
      25     1     1     2     0     0 -2.596012502E+02  2.710098062E+02  2.659108989E+02  4.766264054E+02  1.250000000E+02  0.00000E+00  9.000E+00
      21     1     1     2   511   501  2.123588949E+01 -4.193014371E-01 -2.697942370E+01  3.433697889E+01  4.768371582E-07  0.00000E+00  9.000E+00
#rwgt            1           1   3.1690298102438473E-002           1       79636           0
</event>
<event>
      5   9999  3.19816E-02  7.05087E+01 -1.00000E+00  1.31062E-01
       3    -1     0     0   502     0  0.000000000E+00  0.000000000E+00  2.375088761E+03  2.375088761E+03  0.000000000E+00  0.00000E+00  9.000E+00
      21    -1     0     0   501   502  0.000000000E+00  0.000000000E+00 -3.097728833E+02  3.097728833E+02  0.000000000E+00  0.00000E+00  9.000E+00
      25     1     1     2     0     0 -2.283382058E+02 -1.409840704E+02 -3.879916447E+01  2.985719670E+02  1.250000000E+02  0.00000E+00  9.000E+00
      25     1     1     2     0     0  2.301053043E+02  7.049748269E+01 -9.638966590E+00  2.713600114E+02  1.250000000E+02  0.00000E+00  9.000E+00
       3     1     1     2   501     0 -1.767098500E+00  7.048658771E+01  2.113754009E+03  2.114929666E+03  4.315837288E-05  0.00000E+00  9.000E+00
#rwgt            1           1   2.9496038309142984E-002           1       79835           0
</event>
<event>
      5   9999  3.19816E-02  4.41961E+01 -1.00000E+00  1.42204E-01
      21    -1     0     0   502   501  0.000000000E+00  0.000000000E+00  4.896948844E+01  4.896948844E+01  0.000000000E+00  0.00000E+00  9.000E+00
      21    -1     0     0   511   502  0.000000000E+00  0.000000000E+00 -3.376082623E+03  3.376082623E+03  0.000000000E+00  0.00000E+00  9.000E+00
      25     1     1     2     0     0 -2.098285667E+02  1.409659395E+02 -2.125269022E+03  2.143896649E+03  1.250000000E+02  0.00000E+00  9.000E+00
      25     1     1     2     0     0  2.217144506E+02 -1.835337477E+02 -5.947440833E+02  6.724488521E+02  1.250000000E+02  0.00000E+00  9.000E+00
      21     1     1     2   511   501 -1.188588390E+01  4.256780813E+01 -6.071000291E+02  6.087066107E+02  0.000000000E+00  0.00000E+00  9.000E+00
#rwgt            1           1   4.9758679921342253E-002           1       79876           0
</event>
<event>
      5   9999  3.19816E-02  2.10857E+02 -1.00000E+00  1.10819E-01
      21    -1     0     0   512   501  0.000000000E+00  0.000000000E+00  6.944042395E+02  6.944042395E+02  0.000000000E+00  0.00000E+00  9.000E+00
      21    -1     0     0   501   502  0.000000000E+00  0.000000000E+00 -1.327951270E+03  1.327951270E+03  0.000000000E+00  0.00000E+00  9.000E+00
      25     1     1     2     0     0  6.978065486E+02  2.131968576E+02 -9.004421750E+02  1.165679197E+03  1.250000000E+02  0.00000E+00  9.000E+00
      25     1     1     2     0     0 -5.705468556E+02 -4.507302013E+01  1.154894317E+02  5.970913669E+02  1.250000000E+02  0.00000E+00  9.000E+00
      21     1     1     2   512   502 -1.272596930E+02 -1.681238374E+02  1.514057129E+02  2.595849458E+02  5.394796609E-06  0.00000E+00  9.000E+00
#rwgt            1           1   3.9048336789842028E-002           1       79994           0
</event>
<event>
      5   9999  3.19816E-02  5.82328E+01 -1.00000E+00  1.35401E-01
      21    -1     0     0   502   501  0.000000000E+00  0.000000000E+00  1.509151387E+03  1.509151387E+03  0.000000000E+00  0.00000E+00  9.000E+00
      21    -1     0     0   501   511  0.000000000E+00  0.000000000E+00 -9.001146972E+02  9.001146972E+02  0.000000000E+00  0.00000E+00  9.000E+00
      25     1     1     2     0     0 -4.108974882E+02 -1.687262763E+00  1.213018337E+03  1.286809263E+03  1.250000000E+02  0.00000E+00  9.000E+00
      25     1     1     2     0     0  3.527004751E+02 -3.535979504E-01  1.224295004E+02  3.937152941E+02  1.250000000E+02  0.00000E+00  9.000E+00
      21     1     1     2   502   511  5.819701307E+01  2.040860713E+00 -7.264111480E+02  7.287415271E+02  1.078959322E-05  0.00000E+00  9.000E+00
#rwgt            1           1   3.3705222063983686E-002           1       80066           0
</event>
<event>
      5   9999  3.19816E-02  1.94336E+01 -1.00000E+00  1.67405E-01
      21    -1     0     0   512   501  0.000000000E+00  0.000000000E+00  5.128786646E+02  5.128786646E+02  0.000000000E+00  0.00000E+00  9.000E+00
      21    -1     0     0   501   502  0.000000000E+00  0.000000000E+00 -1.320476546E+02  1.320476546E+02  0.000000000E+00  0.00000E+00  9.000E+00
      25     1     1     2     0     0 -2.231804058E+01  6.462409808E+01  4.250125799E+02  4.482578076E+02  1.250000000E+02  0.00000E+00  9.000E+00
      25     1     1     2     0     0  1.133011783E+01 -4.859502221E+01 -7.952831685E+01  1.563317016E+02  1.250000000E+02  0.00000E+00  9.000E+00
      21     1     1     2   512   502  1.098792275E+01 -1.602907587E+01  3.534674699E+01  4.033681002E+01  4.768371582E-07  0.00000E+00  9.000E+00
#rwgt            1           1   2.6670608392910310E-002           1       80150           0
</event>
<event>
      5   9999  3.19816E-02  6.85142E+01 -1.00000E+00  1.31694E-01
      21    -1     0     0   502   501  0.000000000E+00  0.000000000E+00  3.681342600E+02  3.681342600E+02  0.000000000E+00  0.00000E+00  9.000E+00
      21    -1     0     0   501   511  0.000000000E+00  0.000000000E+00 -1.222346403E+02  1.222346403E+02  0.000000000E+00  0.00000E+00  9.000E+00
      25     1     1     2     0     0  1.306076821E+02  3.543353711E+01  1.065652806E+02  2.128263640E+02  1.250000000E+02  0.00000E+00  9.000E+00
      25     1     1     2     0     0 -8.147820400E+01 -8.318797793E+01  1.087609865E+02  2.025163933E+02  1.250000000E+02  0.00000E+00  9.000E+00
      21     1     1     2   502   511 -4.912947811E+01  4.775444082E+01  3.057335262E+01  7.502614297E+01  4.768371582E-07  0.00000E+00  9.000E+00
#rwgt            1           1   2.7664307123093292E-002           1       80350           0
</event>
<event>
      5   9999  3.19816E-02  5.43114E+01 -1.00000E+00  1.37057E-01
      21    -1     0     0   512   501  0.000000000E+00  0.000000000E+00  2.196204272E+03  2.196204272E+03  0.000000000E+00  0.00000E+00  9.000E+00
      21    -1     0     0   501   502  0.000000000E+00  0.000000000E+00 -2.838136445E+02  2.838136445E+02  0.000000000E+00  0.00000E+00  9.000E+00
      25     1     1     2     0     0  5.654741199E+02  2.188963661E+02  4.173583630E+02  7.466522635E+02  1.250000000E+02  0.00000E+00  9.000E+00
      25     1     1     2     0     0 -5.203635791E+02 -1.886512153E+02  5.616359010E+02  7.983905189E+02  1.250000000E+02  0.00000E+00  9.000E+00
      21     1     1     2   512   502 -4.511054077E+01 -3.024515086E+01  9.333963630E+02  9.349751336E+02  1.525878906E-05  0.00000E+00  9.000E+00
#rwgt            1           1   3.4732737373177100E-002           1       80431           0
</event>
<event>
      5   9999  3.19816E-02  9.16206E+01 -1.00000E+00  1.25562E-01
      21    -1     0     0   502   501  0.000000000E+00  0.000000000E+00  1.273485088E+03  1.273485088E+03  0.000000000E+00  0.00000E+00  9.000E+00
      21    -1     0     0   501   511  0.000000000E+00  0.000000000E+00 -8.954939371E+02  8.954939371E+02  0.000000000E+00  0.00000E+00  9.000E+00
      25     1     1     2     0     0 -7.656780218E+02  2.854643952E+02 -1.902530452E+02  8.482770627E+02  1.250000000E+02  0.00000E+00  9.000E+00
      25     1     1     2     0     0  7.290099222E+02 -3.694273510E+02  7.505688086E+02  1.116651499E+03  1.250000000E+02  0.00000E+00  9.000E+00
      21     1     1     2   502   511  3.666809954E+01  8.396295584E+01 -1.823246120E+02  2.040504634E+02  0.000000000E+00  0.00000E+00  9.000E+00
#rwgt            1           1   2.7653594865679081E-002           1       80534           0
</event>
<event>
      5   9999  3.19816E-02  4.49738E+01 -1.00000E+00  1.41753E-01
      21    -1     0     0   502   501  0.000000000E+00  0.000000000E+00  5.327527224E+02  5.327527224E+02  0.000000000E+00  0.00000E+00  9.000E+00
      21    -1     0     0   512   502  0.000000000E+00  0.000000000E+00 -2.173169448E+02  2.173169448E+02  0.000000000E+00  0.00000E+00  9.000E+00
      25     1     1     2     0     0 -9.579000724E+01 -2.426507566E+02 -2.519722495E+01  2.903704794E+02  1.250000000E+02  0.00000E+00  9.000E+00
      25     1     1     2     0     0  9.112253925E+01  1.979198367E+02  3.277019748E+02  4.129033340E+02  1.250000000E+02  0.00000E+00  9.000E+00
      21     1     1     2   512   501  4.667467987E+00  4.473091988E+01  1.293102777E+01  4.679585377E+01  5.840038640E-07  0.00000E+00  9.000E+00
#rwgt            1           1   3.2348654156944406E-002           1       80666           0
</event>
<event>
      5   9999  3.19816E-02  2.87923E+01 -1.00000E+00  1.54290E-01
      21    -1     0     0   502   501  0.000000000E+00  0.000000000E+00  1.411106088E+03  1.411106088E+03  0.000000000E+00  0.00000E+00  9.000E+00
      21    -1     0     0   511   502  0.000000000E+00  0.000000000E+00 -1.756028860E+02  1.756028860E+02  0.000000000E+00  0.00000E+00  9.000E+00
      25     1     1     2     0     0  2.652949115E+02 -3.014903826E+01  9.635705075E+02  1.007662383E+03  1.250000000E+02  0.00000E+00  9.000E+00
      25     1     1     2     0     0 -2.381942486E+02  2.042525021E+01  3.806650056E+02  4.665667556E+02  1.250000000E+02  0.00000E+00  9.000E+00
      21     1     1     2   511   501 -2.710066286E+01  9.723788054E+00 -1.087323110E+02  1.124798357E+02  3.303624740E-06  0.00000E+00  9.000E+00
#rwgt            1           1   3.0517348036010378E-002           1       80772           0
</event>
<event>
      5   9999  3.19816E-02  3.35107E+02 -1.00000E+00  1.04054E-01
      -2    -1     0     0     0   501  0.000000000E+00  0.000000000E+00  3.855233264E+02  3.855233264E+02  0.000000000E+00  0.00000E+00  9.000E+00
      21    -1     0     0   501   502  0.000000000E+00  0.000000000E+00 -8.931855151E+02  8.931855151E+02  0.000000000E+00  0.00000E+00  9.000E+00
      25     1     1     2     0     0  4.168426101E+02  4.937427121E+01 -1.430519109E+02  4.607433444E+02  1.250000000E+02  0.00000E+00  9.000E+00
      25     1     1     2     0     0 -2.056832810E+02 -3.095825954E+02 -1.490187879E+02  4.194980269E+02  1.250000000E+02  0.00000E+00  9.000E+00
      -2     1     1     2     0   502 -2.111593291E+02  2.602083242E+02 -2.155914899E+02  3.984674701E+02  3.814697266E-06  0.00000E+00  9.000E+00
#rwgt            2           4   3.1449970257436830E-005           1       80884           0
</event>
<event>
      5   9999  3.19816E-02  9.03658E+01 -1.00000E+00  1.25840E-01
       1    -1     0     0   502     0  0.000000000E+00  0.000000000E+00  2.726381576E+03  2.726381576E+03  0.000000000E+00  0.00000E+00  9.000E+00
      21    -1     0     0   501   502  0.000000000E+00  0.000000000E+00 -7.628944084E+02  7.628944084E+02  0.000000000E+00  0.00000E+00  9.000E+00
      25     1     1     2     0     0  6.081021795E+02 -5.613586892E+02  1.267811174E+02  8.465283755E+02  1.250000000E+02  0.00000E+00  9.000E+00
      25     1     1     2     0     0 -6.065945683E+02  6.517119161E+02  1.010286294E+02  9.047193907E+02  1.250000000E+02  0.00000E+00  9.000E+00
       1     1     1     2   501     0 -1.507611199E+00 -9.035322686E+01  1.735677421E+03  1.738028218E+03  0.000000000E+00  0.00000E+00  9.000E+00
#rwgt            1           1   2.8544953047112978E-002           1       80903           0
</event>
<event>
      5   9999  3.19816E-02  3.13545E+01 -1.00000E+00  1.51720E-01
      21    -1     0     0   502   501  0.000000000E+00  0.000000000E+00  4.085789732E+02  4.085789732E+02  0.000000000E+00  0.00000E+00  9.000E+00
      -3    -1     0     0     0   502  0.000000000E+00  0.000000000E+00 -3.877078718E+02  3.877078718E+02  0.000000000E+00  0.00000E+00  9.000E+00
      25     1     1     2     0     0  9.283395241E+01 -2.343170244E+02  2.123853872E+02  3.524984586E+02  1.250000000E+02  0.00000E+00  9.000E+00
      25     1     1     2     0     0 -8.710373763E+01  2.034906323E+02 -4.584211046E+00  2.542469538E+02  1.250000000E+02  0.00000E+00  9.000E+00
      -3     1     1     2     0   501 -5.730214781E+00  3.082639216E+01 -1.869300748E+02  1.895414326E+02  0.000000000E+00  0.00000E+00  9.000E+00
#rwgt            1           1   2.9780461593961378E-002           1       81001           0
</event>
<event>
      5   9999  3.19816E-02  6.02256E+01 -1.00000E+00  1.34616E-01
      21    -1     0     0   502   511  0.000000000E+00  0.000000000E+00  4.619038114E+02  4.619038114E+02  0.000000000E+00  0.00000E+00  9.000E+00
      21    -1     0     0   501   502  0.000000000E+00  0.000000000E+00 -4.383467597E+02  4.383467597E+02  0.000000000E+00  0.00000E+00  9.000E+00
      25     1     1     2     0     0  2.490411183E+02 -3.043799126E+02 -1.145396384E+02  4.282673681E+02  1.250000000E+02  0.00000E+00  9.000E+00
      25     1     1     2     0     0 -2.183347233E+02  2.525702671E+02  4.252697027E+01  3.590199638E+02  1.250000000E+02  0.00000E+00  9.000E+00
      21     1     1     2   501   511 -3.070639501E+01  5.180964546E+01  9.556971981E+01  1.129632392E+02  2.336015456E-06  0.00000E+00  9.000E+00
#rwgt            1           1   2.8655400686846820E-002           1       81151           0
</event>
<event>
      5   9999  3.19816E-02  1.68922E+02 -1.00000E+00  1.14385E-01
       3    -1     0     0   502     0  0.000000000E+00  0.000000000E+00  9.404672145E+02  9.404672145E+02  0.000000000E+00  0.00000E+00  9.000E+00
      21    -1     0     0   501   502  0.000000000E+00  0.000000000E+00 -4.287056141E+03  4.287056141E+03  0.000000000E+00  0.00000E+00  9.000E+00
      25     1     1     2     0     0  6.659641564E+01 -1.207850052E+02 -4.051571874E+03  4.055845627E+03  1.250000000E+02  0.00000E+00  9.000E+00
      25     1     1     2     0     0 -2.320821575E+02  8.688429543E+01 -1.393791072E+02  3.105841982E+02  1.250000000E+02  0.00000E+00  9.000E+00
       3     1     1     2   501     0  1.654857419E+02  3.390070978E+01  8.443620546E+02  8.610935304E+02  2.157918644E-05  0.00000E+00  9.000E+00
#rwgt            1           1   9.2696835948647277E-003           1       81241           0
</event>
<event>
      5   9999  3.19816E-02  1.84518E+02 -1.00000E+00  1.12937E-01
      21    -1     0     0   502   501  0.000000000E+00  0.000000000E+00  3.741460885E+02  3.741460885E+02  0.000000000E+00  0.00000E+00  9.000E+00
      21    -1     0     0   511   502  0.000000000E+00  0.000000000E+00 -9.661988994E+02  9.661988994E+02  0.000000000E+00  0.00000E+00  9.000E+00
      25     1     1     2     0     0 -1.833931343E+01  1.590682098E+02 -6.328965416E+02  6.646969671E+02  1.250000000E+02  0.00000E+00  9.000E+00
      25     1     1     2     0     0 -2.483737512E+01  2.032737755E+01  3.177146183E+02  3.429251757E+02  1.250000000E+02  0.00000E+00  9.000E+00
      21     1     1     2   511   501  4.317668855E+01 -1.793955873E+02 -2.768708876E+02  3.327228450E+02  3.814697266E-06  0.00000E+00  9.000E+00
#rwgt            1           1   2.9979327219417141E-002           1       81309           0
</event>
<event>
      5   9999  3.19816E-02  2.28974E+01 -1.00000E+00  1.61663E-01
      21    -1     0     0   502   501  0.000000000E+00  0.000000000E+00  6.552423527E+02  6.552423527E+02  0.000000000E+00  0.00000E+00  9.000E+00
      21    -1     0     0   512   502  0.000000000E+00  0.000000000E+00 -1.368102418E+02  1.368102418E+02  0.000000000E+00  0.00000E+00  9.000E+00
      25     1     1     2     0     0 -1.668778642E+02  1.766978496E+02  1.600075879E+02  3.166982472E+02  1.250000000E+02  0.00000E+00  9.000E+00
      25     1     1     2     0     0  1.610910393E+02 -1.988519327E+02  3.493215541E+02  4.507138363E+02  1.250000000E+02  0.00000E+00  9.000E+00
      21     1     1     2   512   501  5.786824908E+00  2.215408312E+01  9.102968835E+00  2.464051102E+01  6.419616708E-07  0.00000E+00  9.000E+00
#rwgt            1           1   2.8013520178948436E-002           1       81373           0
</event>
<event>
      5   9999  3.19816E-02  1.34865E+02 -1.00000E+00  1.18254E-01
      21    -1     0     0   502   501  0.000000000E+00  0.000000000E+00  8.180220774E+02  8.180220774E+02  0.000000000E+00  0.00000E+00  9.000E+00
      21    -1     0     0   511   502  0.000000000E+00  0.000000000E+00 -2.085330287E+02  2.085330287E+02  0.000000000E+00  0.00000E+00  9.000E+00
      25     1     1     2     0     0 -2.320396240E+02 -5.998765509E+01  6.437587728E+02  6.982057458E+02  1.250000000E+02  0.00000E+00  9.000E+00
      25     1     1     2     0     0  1.363407128E+02 -3.504033463E+01 -4.332559402E+01  1.931805428E+02  1.250000000E+02  0.00000E+00  9.000E+00
      21     1     1     2   511   501  9.569891119E+01  9.502798972E+01  9.055869907E+00  1.351688175E+02  2.431401974E-06  0.00000E+00  9.000E+00
#rwgt            1           1   2.8108469204796968E-002           1       81474           0
</event>
<event>
      5   9999  3.19816E-02  4.38956E+01 -1.00000E+00  1.42381E-01
      21    -1     0     0   502   512  0.000000000E+00  0.000000000E+00  1.130252176E+03  1.130252176E+03  0.000000000E+00  0.00000E+00  9.000E+00
      21    -1     0     0   501   502  0.000000000E+00  0.000000000E+00 -1.273830332E+02  1.273830332E+02  0.000000000E+00  0.00000E+00  9.000E+00
      25     1     1     2     0     0 -2.682185260E+02  7.225733087E+01  7.556810912E+02  8.147645127E+02  1.250000000E+02  0.00000E+00  9.000E+00
      25     1     1     2     0     0  2.413355421E+02 -3.755672584E+01  1.045210344E+02  2.936034710E+02  1.250000000E+02  0.00000E+00  9.000E+00
      21     1     1     2   501   512  2.688298385E+01 -3.470060503E+01  1.426670168E+02  1.492672251E+02  1.907348633E-06  0.00000E+00  9.000E+00
#rwgt            1           1   3.0877454173225575E-002           1       81538           0
</event>
<event>
      5   9999  3.19816E-02  4.35673E+01 -1.00000E+00  1.42576E-01
      21    -1     0     0   511   501  0.000000000E+00  0.000000000E+00  2.343078055E+02  2.343078055E+02  0.000000000E+00  0.00000E+00  9.000E+00
      21    -1     0     0   501   502  0.000000000E+00  0.000000000E+00 -9.405955260E+02  9.405955260E+02  0.000000000E+00  0.00000E+00  9.000E+00
      25     1     1     2     0     0  4.114859587E+02  9.686718789E+01 -4.438214249E+02  6.255448853E+02  1.250000000E+02  0.00000E+00  9.000E+00
      25     1     1     2     0     0 -4.174208221E+02 -5.370602045E+01 -2.381470039E+02  4.994631867E+02  1.250000000E+02  0.00000E+00  9.000E+00
      21     1     1     2   511   502  5.934863431E+00 -4.316116744E+01 -2.431929162E+01  4.989525953E+01  1.118282261E-06  0.00000E+00  9.000E+00
#rwgt            1           1   2.4516091615879115E-002           1       81702           0
</event>
<event>
      5   9999  3.19816E-02  8.41148E+00 -1.00000E+00  2.04863E-01
      21    -1     0     0   512   501  0.000000000E+00  0.000000000E+00  5.338696381E+01  5.338696381E+01  0.000000000E+00  0.00000E+00  9.000E+00
      21    -1     0     0   501   502  0.000000000E+00  0.000000000E+00 -1.975328640E+03  1.975328640E+03  0.000000000E+00  0.00000E+00  9.000E+00
      25     1     1     2     0     0 -1.888809921E+02 -2.120055933E+02 -1.015653746E+03  1.061979252E+03  1.250000000E+02  0.00000E+00  9.000E+00
      25     1     1     2     0     0  1.972375330E+02  2.110457998E+02 -9.050691968E+02  9.582370401E+02  1.250000000E+02  0.00000E+00  9.000E+00
      21     1     1     2   512   502 -8.356540952E+00  9.597935010E-01 -1.218733296E+00  8.499311213E+00  2.475566823E-07  0.00000E+00  9.000E+00
#rwgt            1           1   2.0542423998151833E-002           1       81829           0
</event>
<event>
      5   9999  3.19816E-02  1.98638E+02 -1.00000E+00  1.11756E-01
      21    -1     0     0   502   511  0.000000000E+00  0.000000000E+00  1.670292841E+03  1.670292841E+03  0.000000000E+00  0.00000E+00  9.000E+00
      21    -1     0     0   501   502  0.000000000E+00  0.000000000E+00 -1.148406758E+02  1.148406758E+02  0.000000000E+00  0.00000E+00  9.000E+00
      25     1     1     2     0     0 -1.044688234E+02 -6.201999784E+01  4.893903805E+01  1.810531542E+02  1.250000000E+02  0.00000E+00  9.000E+00
      25     1     1     2     0     0  5.063818177E+01  2.532253021E+02  4.855890447E+02  5.640115242E+02  1.250000000E+02  0.00000E+00  9.000E+00
      21     1     1     2   501   511  5.383064163E+01 -1.912053043E+02  1.020924083E+03  1.040068839E+03  1.078959322E-05  0.00000E+00  9.000E+00
#rwgt            1           1   2.6689277209153532E-002           1       82040           0
</event>
<event>
      5   9999  3.19816E-02  5.57185E+01 -1.00000E+00  1.36444E-01
      21    -1     0     0   502   501  0.000000000E+00  0.000000000E+00  1.139475781E+02  1.139475781E+02  0.000000000E+00  0.00000E+00  9.000E+00
      21    -1     0     0   501   512  0.000000000E+00  0.000000000E+00 -4.001072843E+02  4.001072843E+02  0.000000000E+00  0.00000E+00  9.000E+00
      25     1     1     2     0     0 -1.074483636E+02 -1.962019835E+01 -1.789583417E+02  2.440925871E+02  1.250000000E+02  0.00000E+00  9.000E+00
      25     1     1     2     0     0  7.223665478E+01 -2.356180425E+01  3.179017039E+00  1.463160930E+02  1.250000000E+02  0.00000E+00  9.000E+00
      21     1     1     2   502   512  3.521170880E+01  4.318200260E+01 -1.103803815E+02  1.236461823E+02  1.907348633E-06  0.00000E+00  9.000E+00
#rwgt            1           1   2.4098687384856137E-002           1       82072           0
</event>
<event>
      5   9999  3.19816E-02  2.19442E+01 -1.00000E+00  1.63112E-01
      21    -1     0     0   502   501  0.000000000E+00  0.000000000E+00  1.624311187E+02  1.624311187E+02  0.000000000E+00  0.00000E+00  9.000E+00
      21    -1     0     0   511   502  0.000000000E+00  0.000000000E+00 -1.614040586E+03  1.614040586E+03  0.000000000E+00  0.00000E+00  9.000E+00
      25     1     1     2     0     0 -3.647503171E+02  2.595673970E+02 -3.863392477E+02  6.044013913E+02  1.250000000E+02  0.00000E+00  9.000E+00
      25     1     1     2     0     0  3.677778232E+02 -2.378330907E+02 -9.358206226E+02  1.040773916E+03  1.250000000E+02  0.00000E+00  9.000E+00
      21     1     1     2   511   501 -3.027506082E+00 -2.173430623E+01 -1.294495969E+02  1.312963975E+02  3.303624740E-06  0.00000E+00  9.000E+00
#rwgt            1           1   3.0109761797500890E-002           1       82155           0
</event>
<event>
      5   9999  3.19816E-02  1.80214E+01 -1.00000E+00  1.70191E-01
      21    -1     0     0   502   512  0.000000000E+00  0.000000000E+00  3.350001785E+02  3.350001785E+02  0.000000000E+00  0.00000E+00  9.000E+00
      21    -1     0     0   501   502  0.000000000E+00  0.000000000E+00 -5.203174645E+02  5.203174645E+02  0.000000000E+00  0.00000E+00  9.000E+00
      25     1     1     2     0     0 -2.349018374E+01  1.469846235E+02 -4.254765569E+02  4.677729885E+02  1.250000000E+02  0.00000E+00  9.000E+00
      25     1     1     2     0     0  8.738145955E+00 -1.573358073E+02  6.488049935E+01  2.113418810E+02  1.250000000E+02  0.00000E+00  9.000E+00
      21     1     1     2   501   512  1.475203778E+01  1.035118376E+01  1.752787715E+02  1.762027735E+02  2.697398305E-06  0.00000E+00  9.000E+00
#rwgt            1           1   2.7521177747151342E-002           1       82253           0
</event>
<event>
      5   9999  3.19816E-02  1.66291E+01 -1.00000E+00  1.73266E-01
      21    -1     0     0   502   501  0.000000000E+00  0.000000000E+00  1.354421094E+02  1.354421094E+02  0.000000000E+00  0.00000E+00  9.000E+00
      21    -1     0     0   501   511  0.000000000E+00  0.000000000E+00 -8.345949582E+02  8.345949582E+02  0.000000000E+00  0.00000E+00  9.000E+00
      25     1     1     2     0     0  1.370417989E+02  1.874234326E+02 -1.144343847E+02  2.874512587E+02  1.250000000E+02  0.00000E+00  9.000E+00
      25     1     1     2     0     0 -1.535674915E+02 -1.855715081E+02 -3.296785332E+02  4.270043259E+02  1.250000000E+02  0.00000E+00  9.000E+00
      21     1     1     2   502   511  1.652569262E+01 -1.851924564E+00 -2.550399309E+02  2.555814830E+02  2.697398305E-06  0.00000E+00  9.000E+00
#rwgt            1           1   3.0273452539396999E-002           1       82409           0
</event>
<event>
      5   9999  3.19816E-02  1.14538E+02 -1.00000E+00  1.21233E-01
      21    -1     0     0   502   501  0.000000000E+00  0.000000000E+00  3.485154665E+02  3.485154665E+02  0.000000000E+00  0.00000E+00  9.000E+00
       2    -1     0     0   501     0  0.000000000E+00  0.000000000E+00 -5.877494258E+02  5.877494258E+02  0.000000000E+00  0.00000E+00  9.000E+00
      25     1     1     2     0     0  1.602038262E+02  1.803576546E+02  1.657889213E+02  3.182846461E+02  1.250000000E+02  0.00000E+00  9.000E+00
      25     1     1     2     0     0 -1.477930424E+02 -2.942217834E+02 -3.084786268E+02  4.681808458E+02  1.250000000E+02  0.00000E+00  9.000E+00
       2     1     1     2   502     0 -1.241078379E+01  1.138641289E+02 -9.654425395E+01  1.497994004E+02  0.000000000E+00  0.00000E+00  9.000E+00
#rwgt            1           1   2.8644858126313941E-002           1       82599           0
</event>
<event>
      5   9999  3.19816E-02  1.53854E+03 -1.00000E+00  8.67140E-02
      21    -1     0     0   502   501  0.000000000E+00  0.000000000E+00  1.019920309E+03  1.019920309E+03  0.000000000E+00  0.00000E+00  9.000E+00
       1    -1     0     0   501     0  0.000000000E+00  0.000000000E+00 -2.814990650E+03  2.814990650E+03  0.000000000E+00  0.00000E+00  9.000E+00
      25     1     1     2     0     0  7.177447066E+01 -3.247328989E+01  4.979086435E+01  1.559173479E+02  1.250000000E+02  0.00000E+00  9.000E+00
      25     1     1     2     0     0 -1.530586716E+03  5.213148234E+02 -7.271257938E+02  1.777301821E+03  1.250000000E+02  0.00000E+00  9.000E+00
       1     1     1     2   502     0  1.458812246E+03 -4.888415335E+02 -1.117735412E+03  1.901691790E+03  4.037096117E-05  0.00000E+00  9.000E+00
#rwgt            2          12   1.7639807101690628E-004           1       82749           0
</event>
<event>
      5   9999  3.19816E-02  4.69085E+01 -1.00000E+00  1.40676E-01
      21    -1     0     0   502   511  0.000000000E+00  0.000000000E+00  1.505569797E+03  1.505569797E+03  0.000000000E+00  0.00000E+00  9.000E+00
      21    -1     0     0   501   502  0.000000000E+00  0.000000000E+00 -2.536425411E+02  2.536425411E+02  0.000000000E+00  0.00000E+00  9.000E+00
      25     1     1     2     0     0 -4.595634711E+02  1.701073271E+02  9.187448990E+02  1.048738421E+03  1.250000000E+02  0.00000E+00  9.000E+00
      25     1     1     2     0     0  4.900254795E+02 -1.344355392E+02  1.849620946E+02  5.550079830E+02  1.250000000E+02  0.00000E+00  9.000E+00
      21     1     1     2   501   511 -3.046200844E+01 -3.567178789E+01  1.482202620E+02  1.554659335E+02  0.000000000E+00  0.00000E+00  9.000E+00
#rwgt            2          11   4.0822801679186527E-003           1       82903           0
</event>
<event>
      5   9999  3.19816E-02  8.19463E+01 -1.00000E+00  1.27846E-01
      21    -1     0     0   502   501  0.000000000E+00  0.000000000E+00  5.390103157E+02  5.390103157E+02  0.000000000E+00  0.00000E+00  9.000E+00
       1    -1     0     0   501     0  0.000000000E+00  0.000000000E+00 -4.014486681E+03  4.014486681E+03  0.000000000E+00  0.00000E+00  9.000E+00
      25     1     1     2     0     0  1.980584007E+02 -2.971600517E+02  1.165559056E+02  3.959059302E+02  1.250000000E+02  0.00000E+00  9.000E+00
      25     1     1     2     0     0 -2.073602975E+02  3.785766841E+02  1.035033639E+02  4.611469886E+02  1.250000000E+02  0.00000E+00  9.000E+00
       1     1     1     2   502     0  9.301896772E+00 -8.141663245E+01 -3.695535635E+03  3.696444078E+03  6.103515625E-05  0.00000E+00  9.000E+00
#rwgt            1           1   2.9691509165351071E-002           1       82923           0
</event>
<event>
      5   9999  3.19816E-02  1.56662E+02 -1.00000E+00  1.15650E-01
      21    -1     0     0   502   501  0.000000000E+00  0.000000000E+00  1.653715826E+03  1.653715826E+03  0.000000000E+00  0.00000E+00  9.000E+00
      21    -1     0     0   501   511  0.000000000E+00  0.000000000E+00 -1.052354124E+03  1.052354124E+03  0.000000000E+00  0.00000E+00  9.000E+00
      25     1     1     2     0     0  6.323057476E+02 -4.663777710E+02  1.200379781E+03  1.440088679E+03  1.250000000E+02  0.00000E+00  9.000E+00
      25     1     1     2     0     0 -7.144917148E+02  5.997516082E+02 -5.861710140E+02  1.108792974E+03  1.250000000E+02  0.00000E+00  9.000E+00
      21     1     1     2   502   511  8.218596713E+01 -1.333738372E+02 -1.284706508E+01  1.571882970E+02  4.049608171E-06  0.00000E+00  9.000E+00
#rwgt            1           1   7.2767562670627770E-002           1       83080           0
</event>
<event>
      5   9999  3.19816E-02  3.99720E+01 -1.00000E+00  1.44859E-01
      21    -1     0     0   512   501  0.000000000E+00  0.000000000E+00  1.084749781E+03  1.084749781E+03  0.000000000E+00  0.00000E+00  9.000E+00
      21    -1     0     0   501   502  0.000000000E+00  0.000000000E+00 -3.008114658E+02  3.008114658E+02  0.000000000E+00  0.00000E+00  9.000E+00
      25     1     1     2     0     0  3.241143138E+02  2.050828647E+02  3.446521322E+00  4.034178334E+02  1.250000000E+02  0.00000E+00  9.000E+00
      25     1     1     2     0     0 -3.197924253E+02 -1.653451809E+02  2.628218858E+02  4.629325737E+02  1.250000000E+02  0.00000E+00  9.000E+00
      21     1     1     2   512   502 -4.321888502E+00 -3.973768385E+01  5.176699081E+02  5.192108396E+02  0.000000000E+00  0.00000E+00  9.000E+00
#rwgt            1           1   2.8522443495845439E-002           1       83173           0
</event>
<event>
      5   9999  3.19816E-02  3.54426E+02 -1.00000E+00  1.03292E-01
      21    -1     0     0   511   501  0.000000000E+00  0.000000000E+00  2.947886666E+02  2.947886666E+02  0.000000000E+00  0.00000E+00  9.000E+00
      21    -1     0     0   501   502  0.000000000E+00  0.000000000E+00 -1.608858657E+03  1.608858657E+03  0.000000000E+00  0.00000E+00  9.000E+00
      25     1     1     2     0     0  9.354267398E+01  5.923339728E+02 -1.019605530E+03  1.189466352E+03  1.250000000E+02  0.00000E+00  9.000E+00
      25     1     1     2     0     0 -1.105691023E+02 -2.383170877E+02 -1.781854655E+02  3.411680243E+02  1.250000000E+02  0.00000E+00  9.000E+00
      21     1     1     2   511   502  1.702642828E+01 -3.540168851E+02 -1.162789957E+02  3.730129475E+02  5.394796609E-06  0.00000E+00  9.000E+00
#rwgt            1           1   2.9903852985666120E-002           1       83335           0
</event>
<event>
      5   9999  3.19816E-02  1.45277E+02 -1.00000E+00  1.16947E-01
      21    -1     0     0   502   501  0.000000000E+00  0.000000000E+00  9.287708650E+02  9.287708650E+02  0.000000000E+00  0.00000E+00  9.000E+00
      21    -1     0     0   501   512  0.000000000E+00  0.000000000E+00 -1.587322890E+03  1.587322890E+03  0.000000000E+00  0.00000E+00  9.000E+00
      25     1     1     2     0     0  3.496517291E+02 -2.085929234E+02  7.980712438E+02  9.046049135E+02  1.250000000E+02  0.00000E+00  9.000E+00
      25     1     1     2     0     0 -3.250230059E+02  6.541832523E+01 -3.594043452E+02  5.046939617E+02  1.250000000E+02  0.00000E+00  9.000E+00
      21     1     1     2   502   512 -2.462872317E+01  1.431745982E+02 -1.097218924E+03  1.106794880E+03  0.000000000E+00  0.00000E+00  9.000E+00
#rwgt            1           1   2.7951565455062468E-002           1       83400           0
</event>
<event>
      5   9999  3.19816E-02  7.03057E+01 -1.00000E+00  1.31125E-01
      21    -1     0     0   502   511  0.000000000E+00  0.000000000E+00  4.012646564E+02  4.012646564E+02  0.000000000E+00  0.00000E+00  9.000E+00
      21    -1     0     0   501   502  0.000000000E+00  0.000000000E+00 -2.736343774E+02  2.736343774E+02  0.000000000E+00  0.00000E+00  9.000E+00
      25     1     1     2     0     0  1.900527703E+02  7.667146378E+01  8.229545138E+01  2.537638867E+02  1.250000000E+02  0.00000E+00  9.000E+00
      25     1     1     2     0     0 -1.219813905E+02 -9.425474641E+01 -1.265831736E+02  2.353969343E+02  1.250000000E+02  0.00000E+00  9.000E+00
      21     1     1     2   501   511 -6.807137983E+01  1.758328263E+01  1.719180012E+02  1.857382128E+02  4.264961200E-06  0.00000E+00  9.000E+00
#rwgt            1           1   2.4443956351548876E-002           1       83475           0
</event>
<event>
      5   9999  3.19816E-02  8.71026E+01 -1.00000E+00  1.26587E-01
      21    -1     0     0   502   501  0.000000000E+00  0.000000000E+00  5.214986858E+02  5.214986858E+02  0.000000000E+00  0.00000E+00  9.000E+00
      21    -1     0     0   501   512  0.000000000E+00  0.000000000E+00 -7.343339995E+02  7.343339995E+02  0.000000000E+00  0.00000E+00  9.000E+00
      25     1     1     2     0     0 -3.174236283E+02  3.056455902E+02 -4.848766827E+02  6.670137810E+02  1.250000000E+02  0.00000E+00  9.000E+00
      25     1     1     2     0     0  2.885657778E+02 -2.234623280E+02  3.089219531E+02  4.942301015E+02  1.250000000E+02  0.00000E+00  9.000E+00
      21     1     1     2   502   512  2.885785052E+01 -8.218326214E+01 -3.688058403E+01  9.458880268E+01  1.651812370E-06  0.00000E+00  9.000E+00
#rwgt            2          11   5.8916068554606517E-003           1       83542           0
</event>
<event>
      5   9999  3.19816E-02  1.32236E+02 -1.00000E+00  1.18605E-01
      21    -1     0     0   502   501  0.000000000E+00  0.000000000E+00  9.011806734E+02  9.011806734E+02  0.000000000E+00  0.00000E+00  9.000E+00
      21    -1     0     0   511   502  0.000000000E+00  0.000000000E+00 -3.228444142E+02  3.228444142E+02  0.000000000E+00  0.00000E+00  9.000E+00
      25     1     1     2     0     0  3.436909969E+02  1.235867384E+02  4.120462186E+02  5.646275494E+02  1.250000000E+02  0.00000E+00  9.000E+00
      25     1     1     2     0     0 -3.233326401E+02  7.072990602E+00  3.092894401E+02  4.646277877E+02  1.250000000E+02  0.00000E+00  9.000E+00
      21     1     1     2   511   501 -2.035835685E+01 -1.306597290E+02 -1.429993995E+02  1.947697505E+02  3.303624740E-06  0.00000E+00  9.000E+00
#rwgt            1           1   2.8524059662316765E-002           1       83562           0
</event>
<event>
      5   9999  3.19816E-02  9.79046E+01 -1.00000E+00  1.24243E-01
      21    -1     0     0   512   501  0.000000000E+00  0.000000000E+00  3.123957083E+02  3.123957083E+02  0.000000000E+00  0.00000E+00  9.000E+00
      21    -1     0     0   501   502  0.000000000E+00  0.000000000E+00 -3.199013889E+02  3.199013889E+02  0.000000000E+00  0.00000E+00  9.000E+00
      25     1     1     2     0     0  1.109383769E+02  1.452282205E+02 -3.442625386E+01  2.240730382E+02  1.250000000E+02  0.00000E+00  9.000E+00
      25     1     1     2     0     0 -1.848824952E+02 -2.093966103E+02 -2.349921580E+00  3.060375787E+02  1.250000000E+02  0.00000E+00  9.000E+00
      21     1     1     2   512   502  7.394411824E+01  6.416838989E+01  2.927049488E+01  1.021864803E+02  1.545128989E-06  0.00000E+00  9.000E+00
#rwgt            1           1   2.7149420986021855E-002           1       83651           0
</event>
<event>
      5   9999  3.19816E-02  6.29531E+02 -1.00000E+00  9.60905E-02
       2    -1     0     0   502     0  0.000000000E+00  0.000000000E+00  3.016067861E+03  3.016067861E+03  0.000000000E+00  0.00000E+00  9.000E+00
      21    -1     0     0   501   502  0.000000000E+00  0.000000000E+00 -2.351302897E+02  2.351302897E+02  0.000000000E+00  0.00000E+00  9.000E+00
      25     1     1     2     0     0 -3.278178057E+02  4.692884219E+01  5.257158132E+02  6.337735765E+02  1.250000000E+02  0.00000E+00  9.000E+00
      25     1     1     2     0     0  1.539259057E+02 -6.519667546E+02  1.382695264E+03  1.541500901E+03  1.250000000E+02  0.00000E+00  9.000E+00
       2     1     1     2   501     0  1.738919000E+02  6.050379124E+02  8.725264938E+02  1.075923673E+03  2.157918644E-05  0.00000E+00  9.000E+00
#rwgt            2          18   1.0412864340576073E-003           1       83912           0
</event>
<event>
      5   9999  3.19816E-02  1.16302E+01 -1.00000E+00  1.88469E-01
      21    -1     0     0   502   501  0.000000000E+00  0.000000000E+00  2.206385226E+02  2.206385226E+02  0.000000000E+00  0.00000E+00  9.000E+00
      21    -1     0     0   511   502  0.000000000E+00  0.000000000E+00 -1.864613414E+02  1.864613414E+02  0.000000000E+00  0.00000E+00  9.000E+00
      25     1     1     2     0     0  1.022842868E+02  1.041098371E+02 -4.231426024E+01  1.967649108E+02  1.250000000E+02  0.00000E+00  9.000E+00
      25     1     1     2     0     0 -9.289164702E+01 -9.725121244E+01  7.593873650E+01  1.986915904E+02  1.250000000E+02  0.00000E+00  9.000E+00
      21     1     1     2   511   501 -9.392639825E+00 -6.858624632E+00  5.527049175E-01  1.164336281E+01  9.125060375E-08  0.00000E+00  9.000E+00
#rwgt            1           1   2.4254332738683580E-002           1       83946           0
</event>
<event>
      5   9999  3.19816E-02  2.90167E+01 -1.00000E+00  1.54052E-01
      21    -1     0     0   502   501  0.000000000E+00  0.000000000E+00  2.675284458E+03  2.675284458E+03  0.000000000E+00  0.00000E+00  9.000E+00
      21    -1     0     0   512   502  0.000000000E+00  0.000000000E+00 -2.061560650E+02  2.061560650E+02  0.000000000E+00  0.00000E+00  9.000E+00
      25     1     1     2     0     0  1.646792791E+02  4.722714585E+01  1.665338122E+03  1.678786982E+03  1.250000000E+02  0.00000E+00  9.000E+00
      25     1     1     2     0     0 -1.511239913E+02 -2.157127747E+01  9.924007358E+02  1.011824096E+03  1.250000000E+02  0.00000E+00  9.000E+00
      21     1     1     2   512   501 -1.355528775E+01 -2.565586838E+01 -1.886104654E+02  1.908294450E+02  1.112165812E-05  0.00000E+00  9.000E+00
#rwgt            1           1   4.4744947250576490E-002           1       84138           0
</event>
<event>
      5   9999  3.19816E-02  1.82716E+02 -1.00000E+00  1.13096E-01
      21    -1     0     0   502   501  0.000000000E+00  0.000000000E+00  9.210558658E+01  9.210558658E+01  0.000000000E+00  0.00000E+00  9.000E+00
      -1    -1     0     0     0   502  0.000000000E+00  0.000000000E+00 -1.446522015E+03  1.446522015E+03  0.000000000E+00  0.00000E+00  9.000E+00
      25     1     1     2     0     0  7.224048318E+01 -4.139128491E+01 -8.663610319E+02  8.792828689E+02  1.250000000E+02  0.00000E+00  9.000E+00
      25     1     1     2     0     0 -4.994719668E+01  2.227422433E+02 -2.737422391E+02  3.777150286E+02  1.250000000E+02  0.00000E+00  9.000E+00
      -1     1     1     2     0   501 -2.229328650E+01 -1.813509584E+02 -2.143131574E+02  2.816297040E+02  0.000000000E+00  0.00000E+00  9.000E+00
#rwgt            1           1   2.8163583959828927E-002           1       84235           0
</event>
<event>
      5   9999  3.19816E-02  8.76886E+01 -1.00000E+00  1.26450E-01
      21    -1     0     0   502   511  0.000000000E+00  0.000000000E+00  7.964828755E+02  7.964828755E+02  0.000000000E+00  0.00000E+00  9.000E+00
      21    -1     0     0   501   502  0.000000000E+00  0.000000000E+00 -7.498009760E+02  7.498009760E+02  0.000000000E+00  0.00000E+00  9.000E+00
      25     1     1     2     0     0 -3.761711445E+01  6.323348386E+02 -8.610215815E+01  6.513838938E+02  1.250000000E+02  0.00000E+00  9.000E+00
      25     1     1     2     0     0  8.121123009E+01 -5.562503402E+02 -1.530907228E+02  5.958787413E+02  1.250000000E+02  0.00000E+00  9.000E+00
      21     1     1     2   501   511 -4.359411564E+01 -7.608449839E+01  2.858747804E+02  2.990212164E+02  6.607249480E-06  0.00000E+00  9.000E+00
#rwgt            2          11   2.7152533886996640E-003           1       84417           0
</event>
<event>
      5   9999  3.19816E-02  1.57821E+02 -1.00000E+00  1.15526E-01
      21    -1     0     0   512   501  0.000000000E+00  0.000000000E+00  1.402748350E+02  1.402748350E+02  0.000000000E+00  0.00000E+00  9.000E+00
      21    -1     0     0   501   502  0.000000000E+00  0.000000000E+00 -1.499227682E+03  1.499227682E+03  0.000000000E+00  0.00000E+00  9.000E+00
      25     1     1     2     0     0 -4.951506732E+01  1.684486592E+02 -5.432479396E+01  2.222675773E+02  1.250000000E+02  0.00000E+00  9.000E+00
      25     1     1     2     0     0  4.363375483E+01 -3.261596562E+02 -1.121700472E+03  1.175636413E+03  1.250000000E+02  0.00000E+00  9.000E+00
      21     1     1     2   512   502  5.881312491E+00  1.577109970E+02 -1.829275813E+02  2.415985273E+02  0.000000000E+00  0.00000E+00  9.000E+00
#rwgt            1           1   2.6149166850966743E-002           1       84437           0
</event>
<event>
      5   9999  3.19816E-02  3.96310E+01 -1.00000E+00  1.45090E-01
      21    -1     0     0   502   511  0.000000000E+00  0.000000000E+00  3.375484144E+02  3.375484144E+02  0.000000000E+00  0.00000E+00  9.000E+00
      21    -1     0     0   501   502  0.000000000E+00  0.000000000E+00 -1.336305527E+03  1.336305527E+03  0.000000000E+00  0.00000E+00  9.000E+00
      25     1     1     2     0     0  4.200601349E+02  2.958885811E+02 -9.435689809E+02  1.081641341E+03  1.250000000E+02  0.00000E+00  9.000E+00
      25     1     1     2     0     0 -3.826617929E+02 -3.090026840E+02 -1.151079410E+02  5.203725055E+02  1.250000000E+02  0.00000E+00  9.000E+00
      21     1     1     2   501   511 -3.739834197E+01  1.311410288E+01  5.991980923E+01  7.184009475E+01  9.536743164E-07  0.00000E+00  9.000E+00
#rwgt            1           1   2.9577008478102768E-002           1       84472           0
</event>
<event>
      5   9999  3.19816E-02  2.79759E+01 -1.00000E+00  1.55177E-01
      21    -1     0     0   512   501  0.000000000E+00  0.000000000E+00  8.548674284E+02  8.548674284E+02  0.000000000E+00  0.00000E+00  9.000E+00
      21    -1     0     0   501   502  0.000000000E+00  0.000000000E+00 -7.360226299E+02  7.360226299E+02  0.000000000E+00  0.00000E+00  9.000E+00
      25     1     1     2     0     0  2.041521330E+02  4.388637627E+02  6.316783418E+02  8.055569646E+02  1.250000000E+02  0.00000E+00  9.000E+00
      25     1     1     2     0     0 -2.045388009E+02 -4.108905052E+02 -5.573499877E+02  7.327558510E+02  1.250000000E+02  0.00000E+00  9.000E+00
      21     1     1     2   512   502  3.866679264E-01 -2.797325752E+01  4.451644436E+01  5.257724286E+01  0.000000000E+00  0.00000E+00  9.000E+00
#rwgt            1           1   2.9077097903283611E-002           1       84640           0
</event>
<event>
      5   9999  3.19816E-02  5.74068E+01 -1.00000E+00  1.35737E-01
      21    -1     0     0   502   501  0.000000000E+00  0.000000000E+00  1.739279438E+02  1.739279438E+02  0.000000000E+00  0.00000E+00  9.000E+00
      21    -1     0     0   511   502  0.000000000E+00  0.000000000E+00 -2.600696770E+02  2.600696770E+02  0.000000000E+00  0.00000E+00  9.000E+00
      25     1     1     2     0     0 -7.412463409E+01 -4.737482085E+01  4.674023576E+01  1.598389335E+02  1.250000000E+02  0.00000E+00  9.000E+00
      25     1     1     2     0     0  1.261139873E+02  2.303049934E+01 -8.002010414E+01  1.961207760E+02  1.250000000E+02  0.00000E+00  9.000E+00
      21     1     1     2   511   501 -5.198935323E+01  2.434432150E+01 -5.286186486E+01  7.803791126E+01  6.743495762E-07  0.00000E+00  9.000E+00
#rwgt            1           1   2.5557965173737290E-002           1       84776           0
</event>
<event>
      5   9999  3.19816E-02  1.85908E+02 -1.00000E+00  1.12816E-01
      21    -1     0     0   502   512  0.000000000E+00  0.000000000E+00  1.187300323E+03  1.187300323E+03  0.000000000E+00  0.00000E+00  9.000E+00
      21    -1     0     0   501   502  0.000000000E+00  0.000000000E+00 -4.575903392E+02  4.575903392E+02  0.000000000E+00  0.00000E+00  9.000E+00
      25     1     1     2     0     0  1.775091870E+02  1.369708328E+02  7.203187902E+02  7.646925395E+02  1.250000000E+02  0.00000E+00  9.000E+00
      25     1     1     2     0     0 -1.436354268E+01 -2.261077203E+02 -3.736065961E+02  4.544644114E+02  1.250000000E+02  0.00000E+00  9.000E+00
      21     1     1     2   501   512 -1.631456443E+02  8.913688751E+01  3.829977896E+02  4.257337112E+02  7.629394531E-06  0.00000E+00  9.000E+00
#rwgt            2          11   3.2095787610208009E-003           1       84909           0
</event>
<event>
      5   9999  3.19816E-02  4.20165E+01 -1.00000E+00  1.43528E-01
      21    -1     0     0   502   501  0.000000000E+00  0.000000000E+00  5.761474542E+01  5.761474542E+01  0.000000000E+00  0.00000E+00  9.000E+00
      21    -1     0     0   501   511  0.000000000E+00  0.000000000E+00 -1.773117533E+03  1.773117533E+03  0.000000000E+00  0.00000E+00  9.000E+00
      25     1     1     2     0     0  2.263066558E+01  9.130820403E+01 -6.823886598E+01  1.706777021E+02  1.250000000E+02  0.00000E+00  9.000E+00
      25     1     1     2     0     0 -4.964317036E+01 -5.912580252E+01 -9.273921879E+02  9.389577068E+02  1.250000000E+02  0.00000E+00  9.000E+00
      21     1     1     2   502   511  2.701250479E+01 -3.218240151E+01 -7.198717340E+02  7.210968699E+02  0.000000000E+00  0.00000E+00  9.000E+00
#rwgt            1           1   2.8213367561791349E-002           1       84929           0
</event>
<event>
      5   9999  3.19816E-02  1.68857E+02 -1.00000E+00  1.14391E-01
      21    -1     0     0   512   501  0.000000000E+00  0.000000000E+00  1.168083502E+03  1.168083502E+03  0.000000000E+00  0.00000E+00  9.000E+00
      21    -1     0     0   501   502  0.000000000E+00  0.000000000E+00 -4.022430190E+02  4.022430190E+02  0.000000000E+00  0.00000E+00  9.000E+00
      25     1     1     2     0     0 -4.783696244E+02 -1.128575748E+01 -6.586267659E+01  4.989266059E+02  1.250000000E+02  0.00000E+00  9.000E+00
      25     1     1     2     0     0  4.151912571E+02  1.678781315E+02  4.206175160E+02  6.269855994E+02  1.250000000E+02  0.00000E+00  9.000E+00
      21     1     1     2   512   502  6.317836730E+01 -1.565923740E+02  4.110856437E+02  4.444143159E+02  7.629394531E-06  0.00000E+00  9.000E+00
#rwgt            1           1   3.0593761871675479E-002           1       85079           0
</event>
<event>
      5   9999  3.50175E-02  3.42476E+01 -1.00000E+00  1.49150E-01
      21    -1     0     0   502   511  0.000000000E+00  0.000000000E+00  3.023127352E+02  3.023127352E+02  0.000000000E+00  0.00000E+00  9.000E+00
      21    -1     0     0   501   502  0.000000000E+00  0.000000000E+00 -7.685453170E+02  7.685453170E+02  0.000000000E+00  0.00000E+00  9.000E+00
      25     1     1     2     0     0  2.229211218E+02 -2.349117799E+02 -3.327487084E+02  4.808576441E+02  1.250000000E+02  0.00000E+00  9.000E+00
      25     1     1     2     0     0 -2.448403667E+02  2.612261192E+02 -2.594356512E+02  4.594755137E+02  1.250000000E+02  0.00000E+00  9.000E+00
      21     1     1     2   501   511  2.191924488E+01 -2.631433934E+01  1.259517778E+02  1.305248945E+02  1.348699152E-06  0.00000E+00  9.000E+00
#rwgt            1           1   3.4374874604286794E-002           1       85167           0
</event>
<event>
      5   9999  3.19816E-02  3.30081E+01 -1.00000E+00  1.50212E-01
      21    -1     0     0   502   501  0.000000000E+00  0.000000000E+00  1.375441261E+02  1.375441261E+02  0.000000000E+00  0.00000E+00  9.000E+00
      21    -1     0     0   501   512  0.000000000E+00  0.000000000E+00 -3.061853060E+02  3.061853060E+02  0.000000000E+00  0.00000E+00  9.000E+00
      25     1     1     2     0     0  6.170819232E+01 -1.589496105E+01 -1.595043791E+02  2.124316308E+02  1.250000000E+02  0.00000E+00  9.000E+00
      25     1     1     2     0     0 -5.121076403E+01  4.718931539E+01  5.963221009E+01  1.550173355E+02  1.250000000E+02  0.00000E+00  9.000E+00
      21     1     1     2   502   512 -1.049742830E+01 -3.129435434E+01 -6.876901085E+01  7.628046583E+01  9.536743164E-07  0.00000E+00  9.000E+00
#rwgt            1           1   3.1431947391719797E-002           1       85324           0
</event>
<event>
      5   9999  3.19816E-02  9.37056E+01 -1.00000E+00  1.25111E-01
      21    -1     0     0   502   501  0.000000000E+00  0.000000000E+00  6.857642714E+02  6.857642714E+02  0.000000000E+00  0.00000E+00  9.000E+00
      21    -1     0     0   511   502  0.000000000E+00  0.000000000E+00 -8.920205736E+02  8.920205736E+02  0.000000000E+00  0.00000E+00  9.000E+00
      25     1     1     2     0     0  3.648899511E+02  3.340732313E+02 -5.015916758E+02  7.155199574E+02  1.250000000E+02  0.00000E+00  9.000E+00
      25     1     1     2     0     0 -4.523285298E+02 -3.677664778E+02  4.029155900E+02  7.195965909E+02  1.250000000E+02  0.00000E+00  9.000E+00
      21     1     1     2   511   501  8.743857874E+01  3.369324646E+01 -1.075802164E+02  1.426682966E+02  0.000000000E+00  0.00000E+00  9.000E+00
#rwgt            1           1   3.0911975211187673E-002           1       85397           0
</event>
<event>
      5   9999  3.19816E-02  1.57395E+02 -1.00000E+00  1.15571E-01
      21    -1     0     0   502   512  0.000000000E+00  0.000000000E+00  8.464997678E+01  8.464997678E+01  0.000000000E+00  0.00000E+00  9.000E+00
      21    -1     0     0   501   502  0.000000000E+00  0.000000000E+00 -1.611193542E+03  1.611193542E+03  0.000000000E+00  0.00000E+00  9.000E+00
      25     1     1     2     0     0 -1.800808497E+02 -1.198945295E+02 -6.068480259E+02  6.562723041E+02  1.250000000E+02  0.00000E+00  9.000E+00
      25     1     1     2     0     0  1.153668119E+02  2.633706099E+02 -7.200215929E+02  7.853213824E+02  1.250000000E+02  0.00000E+00  9.000E+00
      21     1     1     2   501   512  6.471403781E+01 -1.434760804E+02 -1.996739469E+02  2.542498327E+02  3.814697266E-06  0.00000E+00  9.000E+00
#rwgt            1           1   3.0740787006030845E-002           1       85467           0
</event>
<event>
      5   9999  3.19816E-02  1.79396E+01 -1.00000E+00  1.70362E-01
      21    -1     0     0   511   501  0.000000000E+00  0.000000000E+00  2.762541269E+02  2.762541269E+02  0.000000000E+00  0.00000E+00  9.000E+00
      21    -1     0     0   501   502  0.000000000E+00  0.000000000E+00 -5.634155878E+02  5.634155878E+02  0.000000000E+00  0.00000E+00  9.000E+00
      25     1     1     2     0     0 -2.049233634E+02 -1.236227572E+02 -4.204218159E+02  4.996555555E+02  1.250000000E+02  0.00000E+00  9.000E+00
      25     1     1     2     0     0  1.874600102E+02  1.277287028E+02  6.171103383E+01  2.662501242E+02  1.250000000E+02  0.00000E+00  9.000E+00
      21     1     1     2   511   502  1.746335314E+01 -4.105945680E+00  7.154932112E+01  7.376403491E+01  9.536743164E-07  0.00000E+00  9.000E+00
#rwgt            1           1   2.1616207408084929E-002           1       85517           0
</event>
<event>
      5   9999  3.19816E-02  2.47957E+02 -1.00000E+00  1.08352E-01
      21    -1     0     0   512   501  0.000000000E+00  0.000000000E+00  7.357128787E+02  7.357128787E+02  0.000000000E+00  0.00000E+00  9.000E+00
      21    -1     0     0   501   502  0.000000000E+00  0.000000000E+00 -3.898141224E+02  3.898141224E+02  0.000000000E+00  0.00000E+00  9.000E+00
      25     1     1     2     0     0  2.540260289E+02  1.979727485E+02 -1.193905081E+02  3.655154250E+02  1.250000000E+02  0.00000E+00  9.000E+00
      25     1     1     2     0     0 -3.335035670E+01 -3.110421318E+02  1.797228861E+02  3.818177181E+02  1.250000000E+02  0.00000E+00  9.000E+00
      21     1     1     2   512   502 -2.206756722E+02  1.130693833E+02  2.855663783E+02  3.781938579E+02  0.000000000E+00  0.00000E+00  9.000E+00
#rwgt            2          11   3.1762362653921777E-003           1       85745           0
</event>
<event>
      5   9999  3.19816E-02  4.41373E+01 -1.00000E+00  1.42238E-01
       2    -1     0     0   502     0  0.000000000E+00  0.000000000E+00  2.611245901E+02  2.611245901E+02  0.000000000E+00  0.00000E+00  9.000E+00
      21    -1     0     0   501   502  0.000000000E+00  0.000000000E+00 -7.895249286E+02  7.895249286E+02  0.000000000E+00  0.00000E+00  9.000E+00
      25     1     1     2     0     0 -1.341347491E+01  3.426632797E+02  2.224039021E+01  3.656742807E+02  1.250000000E+02  0.00000E+00  9.000E+00
      25     1     1     2     0     0  9.178363351E+00 -2.987296045E+02 -5.528591141E+02  6.407821931E+02  1.250000000E+02  0.00000E+00  9.000E+00
       2     1     1     2   501     0  4.235111555E+00 -4.393367524E+01  2.218385444E+00  4.419304497E+01  4.097141947E-07  0.00000E+00  9.000E+00
#rwgt            1           1   2.7635147055085473E-002           1       85780           0
</event>
<event>
      5   9999  3.19816E-02  9.32383E+01 -1.00000E+00  1.25211E-01
      21    -1     0     0   502   501  0.000000000E+00  0.000000000E+00  2.312282660E+02  2.312282660E+02  0.000000000E+00  0.00000E+00  9.000E+00
      -1    -1     0     0     0   502  0.000000000E+00  0.000000000E+00 -2.337532731E+02  2.337532731E+02  0.000000000E+00  0.00000E+00  9.000E+00
      25     1     1     2     0     0  4.710235699E+01 -2.941133408E+01  1.007470882E+02  1.698782929E+02  1.250000000E+02  0.00000E+00  9.000E+00
      25     1     1     2     0     0 -3.785594936E+01 -6.336738647E+01 -1.333652232E+02  1.971288445E+02  1.250000000E+02  0.00000E+00  9.000E+00
      -1     1     1     2     0   501 -9.246407628E+00  9.277872055E+01  3.009312790E+01  9.797440170E+01  8.259061849E-07  0.00000E+00  9.000E+00
#rwgt            1           1   3.0900762222510470E-002           1       85899           0
</event>
<event>
      5   9999  3.19816E-02  1.11812E+01 -1.00000E+00  1.90314E-01
      21    -1     0     0   502   501  0.000000000E+00  0.000000000E+00  1.082518616E+03  1.082518616E+03  0.000000000E+00  0.00000E+00  9.000E+00
      21    -1     0     0   511   502  0.000000000E+00  0.000000000E+00 -5.094335467E+02  5.094335467E+02  0.000000000E+00  0.00000E+00  9.000E+00
      25     1     1     2     0     0  1.671649207E+02 -5.951682913E+01 -1.282063417E+02  2.520877421E+02  1.250000000E+02  0.00000E+00  9.000E+00
      25     1     1     2     0     0 -1.782006415E+02  6.131451790E+01  1.007947577E+03  1.033004480E+03  1.250000000E+02  0.00000E+00  9.000E+00
      21     1     1     2   511   501  1.103572084E+01 -1.797688775E+00 -3.066561659E+02  3.068599402E+02  3.814697266E-06  0.00000E+00  9.000E+00
#rwgt            1           1   3.0117560831032991E-002           1       85936           0
</event>
<event>
      5   9999  3.19816E-02  4.37617E+01 -1.00000E+00  1.42460E-01
      21    -1     0     0   502   501  0.000000000E+00  0.000000000E+00  1.285363922E+03  1.285363922E+03  0.000000000E+00  0.00000E+00  9.000E+00
       2    -1     0     0   501     0  0.000000000E+00  0.000000000E+00 -1.858062063E+03  1.858062063E+03  0.000000000E+00  0.00000E+00  9.000E+00
      25     1     1     2     0     0  1.742423667E+02  1.837088293E+02  3.539200294E+02  4.527623257E+02  1.250000000E+02  0.00000E+00  9.000E+00
      25     1     1     2     0     0 -1.304807331E+02 -1.836262514E+02  8.629380015E+02  9.005724937E+02  1.250000000E+02  0.00000E+00  9.000E+00
       2     1     1     2   502     0 -4.376163355E+01 -8.257796768E-02 -1.789556172E+03  1.790091165E+03  2.157918644E-05  0.00000E+00  9.000E+00
#rwgt            1           1   2.9628152191335889E-002           1       86146           0
</event>
<event>
      5   9999  3.19816E-02  1.40437E+02 -1.00000E+00  1.17539E-01
      21    -1     0     0   502   511  0.000000000E+00  0.000000000E+00  5.440548954E+02  5.440548954E+02  0.000000000E+00  0.00000E+00  9.000E+00
      21    -1     0     0   501   502  0.000000000E+00  0.000000000E+00 -5.576761082E+02  5.576761082E+02  0.000000000E+00  0.00000E+00  9.000E+00
      25     1     1     2     0     0  3.232493119E+02  2.174070326E+02  2.180774909E+02  4.636148482E+02  1.250000000E+02  0.00000E+00  9.000E+00
      25     1     1     2     0     0 -1.906281815E+02 -2.636033288E+02 -3.192517177E+02  4.726229764E+02  1.250000000E+02  0.00000E+00  9.000E+00
      21     1     1     2   501   511 -1.326211304E+02  4.619629628E+01  8.755301412E+01  1.654931790E+02  3.438521648E-06  0.00000E+00  9.000E+00
#rwgt            1           1   2.8716474956738753E-002           1       86230           0
</event>
<event>
      5   9999  3.19816E-02  9.11832E+01 -1.00000E+00  1.25658E-01
      21    -1     0     0   502   501  0.000000000E+00  0.000000000E+00  6.096047260E+02  6.096047260E+02  0.000000000E+00  0.00000E+00  9.000E+00
       1    -1     0     0   501     0  0.000000000E+00  0.000000000E+00 -8.542549025E+02  8.542549025E+02  0.000000000E+00  0.00000E+00  9.000E+00
      25     1     1     2     0     0 -8.736325285E+01  4.136082790E+02 -8.984763768E+01  4.498908138E+02  1.250000000E+02  0.00000E+00  9.000E+00
      25     1     1     2     0     0 -3.556850351E+00 -4.066869236E+02  3.188035040E+02  5.316649125E+02  1.250000000E+02  0.00000E+00  9.000E+00
       1     1     1     2   502     0  9.092010320E+01 -6.921355340E+00 -4.736060427E+02  4.823039022E+02  0.000000000E+00  0.00000E+00  9.000E+00
#rwgt            1           1   2.6399145656369055E-002           1       86321           0
</event>
<event>
      5   9999  3.19816E-02  1.56201E+02 -1.00000E+00  1.15701E-01
      21    -1     0     0   511   501  0.000000000E+00  0.000000000E+00  7.934404330E+02  7.934404330E+02  0.000000000E+00  0.00000E+00  9.000E+00
      21    -1     0     0   501   502  0.000000000E+00  0.000000000E+00 -2.441476094E+02  2.441476094E+02  0.000000000E+00  0.00000E+00  9.000E+00
      25     1     1     2     0     0 -3.919597355E+01 -2.232331229E+02 -7.608802529E+01  2.697846161E+02  1.250000000E+02  0.00000E+00  9.000E+00
      25     1     1     2     0     0  1.703003176E+02  1.383188800E+02  2.256610567E+02  3.386476388E+02  1.250000000E+02  0.00000E+00  9.000E+00
      21     1     1     2   511   502 -1.311043441E+02  8.491424287E+01  3.997197921E+02  4.291557874E+02  0.000000000E+00  0.00000E+00  9.000E+00
#rwgt            1           1   2.7481597527572347E-002           1       86472           0
</event>
<event>
      5   9999  3.19816E-02  2.42443E+01 -1.00000E+00  1.59756E-01
      21    -1     0     0   502   501  0.000000000E+00  0.000000000E+00  4.177268605E+02  4.177268605E+02  0.000000000E+00  0.00000E+00  9.000E+00
      21    -1     0     0   512   502  0.000000000E+00  0.000000000E+00 -3.968173127E+02  3.968173127E+02  0.000000000E+00  0.00000E+00  9.000E+00
      25     1     1     2     0     0 -3.765525639E+01 -3.340789658E+02  1.850535276E+02  4.036043630E+02  1.250000000E+02  0.00000E+00  9.000E+00
      25     1     1     2     0     0  5.872397221E+01  3.220833927E+02 -1.420532115E+02  3.781406241E+02  1.250000000E+02  0.00000E+00  9.000E+00
      21     1     1     2   512   501 -2.106871582E+01  1.199557318E+01 -2.209076829E+01  3.279918605E+01  3.371747881E-07  0.00000E+00  9.000E+00
#rwgt            1           1   2.8087437647944375E-002           1       86549           0
</event>
<event>
      5   9999  3.19816E-02  2.05249E+01 -1.00000E+00  1.65446E-01
      21    -1     0     0   502   511  0.000000000E+00  0.000000000E+00  4.544917599E+02  4.544917599E+02  0.000000000E+00  0.00000E+00  9.000E+00
      21    -1     0     0   501   502  0.000000000E+00  0.000000000E+00 -1.018328197E+02  1.018328197E+02  0.000000000E+00  0.00000E+00  9.000E+00
      25     1     1     2     0     0 -2.622826228E+01 -1.057966617E+00 -2.807000525E+01  1.307744862E+02  1.250000000E+02  0.00000E+00  9.000E+00
      25     1     1     2     0     0  4.671490663E+01  2.311020347E+00  1.816150312E+02  2.253811059E+02  1.250000000E+02  0.00000E+00  9.000E+00
      21     1     1     2   501   511 -2.048664436E+01 -1.253053730E+00  1.991139143E+02  2.001689876E+02  3.814697266E-06  0.00000E+00  9.000E+00
#rwgt            1           1   2.2418542825180916E-002           1       86706           0
</event>
<event>
      5   9999  3.19816E-02  4.72206E+00 -1.00000E+00  2.47569E-01
      21    -1     0     0   502   501  0.000000000E+00  0.000000000E+00  8.072559829E+01  8.072559829E+01  0.000000000E+00  0.00000E+00  9.000E+00
      21    -1     0     0   512   502  0.000000000E+00  0.000000000E+00 -3.329146796E+02  3.329146796E+02  0.000000000E+00  0.00000E+00  9.000E+00
      25     1     1     2     0     0  9.436616587E+01 -1.100365720E+01 -8.313059256E+01  1.776562669E+02  1.250000000E+02  0.00000E+00  9.000E+00
      25     1     1     2     0     0 -9.639438731E+01  1.526795201E+01 -1.575487730E+02  2.235432937E+02  1.250000000E+02  0.00000E+00  9.000E+00
      21     1     1     2   512   501  2.028221440E+00 -4.264294810E+00 -1.150971571E+01  1.244071735E+01  0.000000000E+00  0.00000E+00  9.000E+00
#rwgt            1           1   2.0983045008782238E-002           1       86848           0
</event>
<event>
      5   9999  3.19816E-02  1.60701E+02 -1.00000E+00  1.15220E-01
       1    -1     0     0   502     0  0.000000000E+00  0.000000000E+00  2.663177540E+03  2.663177540E+03  0.000000000E+00  0.00000E+00  9.000E+00
      21    -1     0     0   501   502  0.000000000E+00  0.000000000E+00 -1.422660584E+03  1.422660584E+03  0.000000000E+00  0.00000E+00  9.000E+00
      25     1     1     2     0     0 -3.849907054E+02 -5.391644214E+01 -1.587850846E+02  4.381352863E+02  1.250000000E+02  0.00000E+00  9.000E+00
      25     1     1     2     0     0  4.993994846E+02  1.667683968E+02 -1.056300456E+03  1.186847588E+03  1.250000000E+02  0.00000E+00  9.000E+00
       1     1     1     2   501     0 -1.144087791E+02 -1.128519546E+02  2.455602497E+03  2.460855249E+03  0.000000000E+00  0.00000E+00  9.000E+00
#rwgt            1           1   2.2131376515312075E-002           1       87142           0
</event>
<event>
      5   9999  3.19816E-02  4.88345E+01 -1.00000E+00  1.39663E-01
      21    -1     0     0   502   501  0.000000000E+00  0.000000000E+00  2.564099367E+02  2.564099367E+02  0.000000000E+00  0.00000E+00  9.000E+00
      21    -1     0     0   511   502  0.000000000E+00  0.000000000E+00 -2.802655509E+02  2.802655509E+02  0.000000000E+00  0.00000E+00  9.000E+00
      25     1     1     2     0     0 -4.219214273E+01  2.245824688E+02 -4.968084671E+01  2.651615522E+02  1.250000000E+02  0.00000E+00  9.000E+00
      25     1     1     2     0     0  2.735978318E+01 -1.780549961E+02  3.435512948E+01  2.219401142E+02  1.250000000E+02  0.00000E+00  9.000E+00
      21     1     1     2   511   501  1.483235955E+01 -4.652747277E+01 -8.529896907E+00  4.957382125E+01  5.960464478E-07  0.00000E+00  9.000E+00
#rwgt            1           1   2.4315375601875640E-002           1       87256           0
</event>
<event>
      5   9999  3.19816E-02  8.56617E+01 -1.00000E+00  1.26928E-01
      21    -1     0     0   502   501  0.000000000E+00  0.000000000E+00  1.149409591E+02  1.149409591E+02  0.000000000E+00  0.00000E+00  9.000E+00
      21    -1     0     0   512   502  0.000000000E+00  0.000000000E+00 -5.713761570E+02  5.713761570E+02  0.000000000E+00  0.00000E+00  9.000E+00
      25     1     1     2     0     0 -1.267317540E+02 -1.327734107E+02 -1.600887219E+02  2.737574016E+02  1.250000000E+02  0.00000E+00  9.000E+00
      25     1     1     2     0     0  1.190414438E+02  4.745759974E+01 -1.171589962E+02  2.139493386E+02  1.250000000E+02  0.00000E+00  9.000E+00
      21     1     1     2   512   501  7.690310264E+00  8.531581101E+01 -1.791874798E+02  1.986103758E+02  2.697398305E-06  0.00000E+00  9.000E+00
#rwgt            1           1   3.2567895927725098E-002           1       87344           0
</event>
<event>
      5   9999  3.19816E-02  1.23954E+02 -1.00000E+00  1.19774E-01
      21    -1     0     0   502   501  0.000000000E+00  0.000000000E+00  1.247470547E+02  1.247470547E+02  0.000000000E+00  0.00000E+00  9.000E+00
       2    -1     0     0   501     0  0.000000000E+00  0.000000000E+00 -4.296246669E+03  4.296246669E+03  0.000000000E+00  0.00000E+00  9.000E+00
      25     1     1     2     0     0 -6.459759101E+01 -2.665735987E+01  7.422939385E+01  1.613024070E+02  1.250000000E+02  0.00000E+00  9.000E+00
      25     1     1     2     0     0  1.805693944E+02 -1.710568968E+01 -2.620166229E+03  2.629409435E+03  1.250000000E+02  0.00000E+00  9.000E+00
       2     1     1     2   502     0 -1.159718033E+02  4.376304954E+01 -1.625562780E+03  1.630281882E+03  3.051757812E-05  0.00000E+00  9.000E+00
#rwgt            1           1   4.5868979920703365E-002           1       87404           0
</event>
<event>
      5   9999  3.19816E-02  7.78293E+01 -1.00000E+00  1.28930E-01
      21    -1     0     0   502   501  0.000000000E+00  0.000000000E+00  1.503782440E+02  1.503782440E+02  0.000000000E+00  0.00000E+00  9.000E+00
      21    -1     0     0   501   511  0.000000000E+00  0.000000000E+00 -7.631357761E+02  7.631357761E+02  0.000000000E+00  0.00000E+00  9.000E+00
      25     1     1     2     0     0 -1.767436176E+02  2.431367400E+02 -3.370100346E+02  4.685664778E+02  1.250000000E+02  0.00000E+00  9.000E+00
      25     1     1     2     0     0  1.624318832E+02 -1.666345841E+02 -1.718530880E+02  3.151343922E+02  1.250000000E+02  0.00000E+00  9.000E+00
      21     1     1     2   502   511  1.431173440E+01 -7.650215593E+01 -1.038944095E+02  1.298131501E+02  1.907348633E-06  0.00000E+00  9.000E+00
#rwgt            1           1   3.1910709816984448E-002           1       87439           0
</event>
<event>
      5   9999  3.19816E-02  7.70518E+01 -1.00000E+00  1.29144E-01
      21    -1     0     0   502   501  0.000000000E+00  0.000000000E+00  3.050830911E+02  3.050830911E+02  0.000000000E+00  0.00000E+00  9.000E+00
      21    -1     0     0   512   502  0.000000000E+00  0.000000000E+00 -4.184553600E+02  4.184553600E+02  0.000000000E+00  0.00000E+00  9.000E+00
      25     1     1     2     0     0  1.543843861E+01  1.354097052E+02  1.812729074E+02  2.589575267E+02  1.250000000E+02  0.00000E+00  9.000E+00
      25     1     1     2     0     0  2.555507803E+01 -7.016779871E+01  1.417269215E+01  1.462957525E+02  1.250000000E+02  0.00000E+00  9.000E+00
      21     1     1     2   512   501 -4.099351664E+01 -6.524190649E+01 -3.088178686E+02  3.182851720E+02  5.394796609E-06  0.00000E+00  9.000E+00
#rwgt            1           1   2.5479734344034423E-002           1       87508           0
</event>
<event>
      5   9999  3.19816E-02  5.88767E+01 -1.00000E+00  1.35143E-01
      21    -1     0     0   502   511  0.000000000E+00  0.000000000E+00  5.019710021E+02  5.019710021E+02  0.000000000E+00  0.00000E+00  9.000E+00
      21    -1     0     0   501   502  0.000000000E+00  0.000000000E+00 -3.183356274E+02  3.183356274E+02  0.000000000E+00  0.00000E+00  9.000E+00
      25     1     1     2     0     0  7.865617622E+00 -2.907376290E+02 -7.145502454E+01  3.245320591E+02  1.250000000E+02  0.00000E+00  9.000E+00
      25     1     1     2     0     0  1.771935437E+01  3.437647044E+02  2.180071293E+02  4.261927450E+02  1.250000000E+02  0.00000E+00  9.000E+00
      21     1     1     2   501   511 -2.558497199E+01 -5.302707543E+01  3.708326995E+01  6.958182543E+01  6.743495762E-07  0.00000E+00  9.000E+00
#rwgt            1           1   2.8890729725357143E-002           1       87550           0
</event>
<event>
      5   9999  3.19816E-02  2.96764E+01 -1.00000E+00  1.53368E-01
      21    -1     0     0   502   512  0.000000000E+00  0.000000000E+00  3.348021449E+02  3.348021449E+02  0.000000000E+00  0.00000E+00  9.000E+00
      21    -1     0     0   501   502  0.000000000E+00  0.000000000E+00 -2.377209743E+02  2.377209743E+02  0.000000000E+00  0.00000E+00  9.000E+00
      25     1     1     2     0     0 -1.529239118E+02 -3.807710133E+00 -1.342674885E+02  2.388576562E+02  1.250000000E+02  0.00000E+00  9.000E+00
      25     1     1     2     0     0  1.635358016E+02 -2.390651095E+01  1.805967374E+02  2.748739006E+02  1.250000000E+02  0.00000E+00  9.000E+00
      21     1     1     2   501   512 -1.061188982E+01  2.771422109E+01  5.075192174E+01  5.879156246E+01  6.743495762E-07  0.00000E+00  9.000E+00
#rwgt            2          11   1.3965181126587925E-003           1       87673           0
</event>
<event>
      5   9999  3.19816E-02  3.87884E+01 -1.00000E+00  1.45673E-01
      21    -1     0     0   502   501  0.000000000E+00  0.000000000E+00  1.813369449E+03  1.813369449E+03  0.000000000E+00  0.00000E+00  9.000E+00
      21    -1     0     0   501   511  0.000000000E+00  0.000000000E+00 -9.488714660E+02  9.488714660E+02  0.000000000E+00  0.00000E+00  9.000E+00
      25     1     1     2     0     0 -7.908094396E+02 -3.445171362E+02  1.218799525E+03  1.498388771E+03  1.250000000E+02  0.00000E+00  9.000E+00
      25     1     1     2     0     0  7.776691149E+02  3.810119669E+02  3.205602610E+01  8.755523743E+02  1.250000000E+02  0.00000E+00  9.000E+00
      21     1     1     2   502   511  1.314032469E+01 -3.649483071E+01 -3.863575681E+02  3.882997698E+02  5.394796609E-06  0.00000E+00  9.000E+00
#rwgt            1           1   3.4298002295852302E-002           1       87693           0
</event>
<event>
      5   9999  3.19816E-02  3.34067E+01 -1.00000E+00  1.49865E-01
      21    -1     0     0   502   501  0.000000000E+00  0.000000000E+00  1.876998531E+02  1.876998531E+02  0.000000000E+00  0.00000E+00  9.000E+00
      21    -1     0     0   501   512  0.000000000E+00  0.000000000E+00 -2.400916295E+03  2.400916295E+03  0.000000000E+00  0.00000E+00  9.000E+00
      25     1     1     2     0     0  1.853054354E+02  3.385939403E+02 -1.008227404E+02  4.180600266E+02  1.250000000E+02  0.00000E+00  9.000E+00
      25     1     1     2     0     0 -2.187050021E+02 -3.392865367E+02 -1.532310628E+03  1.589511903E+03  1.250000000E+02  0.00000E+00  9.000E+00
      21     1     1     2   502   512  3.339956665E+01  6.925963980E-01 -5.800830741E+02  5.810442183E+02  7.629394531E-06  0.00000E+00  9.000E+00
#rwgt            1           1   3.0214146198347353E-002           1       87971           0
</event>
<event>
      5   9999  3.19816E-02  2.27480E+01 -1.00000E+00  1.61884E-01
      21    -1     0     0   502   501  0.000000000E+00  0.000000000E+00  1.334438067E+03  1.334438067E+03  0.000000000E+00  0.00000E+00  9.000E+00
      21    -1     0     0   511   502  0.000000000E+00  0.000000000E+00 -6.471267209E+01  6.471267209E+01  0.000000000E+00  0.00000E+00  9.000E+00
      25     1     1     2     0     0  1.681093548E+02 -1.311997145E+02  3.258765721E+02  4.090166996E+02  1.250000000E+02  0.00000E+00  9.000E+00
      25     1     1     2     0     0 -1.830235992E+02  1.483763973E+02  9.167081610E+02  9.547209255E+02  1.250000000E+02  0.00000E+00  9.000E+00
      21     1     1     2   511   501  1.491424432E+01 -1.717668283E+01  2.714066147E+01  3.541311370E+01  6.743495762E-07  0.00000E+00  9.000E+00
#rwgt            1           1   3.0823036687417409E-002           1       88113           0
</event>
<event>
      5   9999  3.19816E-02  6.46300E+01 -1.00000E+00  1.33001E-01
      21    -1     0     0   512   501  0.000000000E+00  0.000000000E+00  1.195812335E+03  1.195812335E+03  0.000000000E+00  0.00000E+00  9.000E+00
      21    -1     0     0   501   502  0.000000000E+00  0.000000000E+00 -8.203175340E+02  8.203175340E+02  0.000000000E+00  0.00000E+00  9.000E+00
      25     1     1     2     0     0  5.526763872E+02  5.209432211E+02 -3.661000711E+02  8.523422379E+02  1.250000000E+02  0.00000E+00  9.000E+00
      25     1     1     2     0     0 -5.116100937E+02 -5.708491316E+02  5.243011896E+02  9.370860988E+02  1.250000000E+02  0.00000E+00  9.000E+00
      21     1     1     2   512   502 -4.106629346E+01  4.990591051E+01  2.172936823E+02  2.267015323E+02  3.814697266E-06  0.00000E+00  9.000E+00
#rwgt            1           1   3.1263138855440374E-002           1       88263           0
</event>
<event>
      5   9999  3.19816E-02  1.28743E+01 -1.00000E+00  1.83873E-01
      21    -1     0     0   502   511  0.000000000E+00  0.000000000E+00  2.382336551E+03  2.382336551E+03  0.000000000E+00  0.00000E+00  9.000E+00
      21    -1     0     0   501   502  0.000000000E+00  0.000000000E+00 -2.643434519E+02  2.643434519E+02  0.000000000E+00  0.00000E+00  9.000E+00
      25     1     1     2     0     0 -5.029965407E+02  5.663483173E+02  1.068486342E+03  1.315691453E+03  1.250000000E+02  0.00000E+00  9.000E+00
      25     1     1     2     0     0  5.006663804E+02 -5.790100273E+02  9.307875599E+02  1.211573323E+03  1.250000000E+02  0.00000E+00  9.000E+00
      21     1     1     2   501   511  2.330160266E+00  1.266170992E+01  1.187191972E+02  1.194152265E+02  1.907348633E-06  0.00000E+00  9.000E+00
#rwgt            1           1   4.0041105853983530E-002           1       88399           0
</event>
<event>
      5   9999  3.19816E-02  7.97363E+01 -1.00000E+00  1.28419E-01
      21    -1     0     0   512   501  0.000000000E+00  0.000000000E+00  4.675631668E+02  4.675631668E+02  0.000000000E+00  0.00000E+00  9.000E+00
      21    -1     0     0   501   502  0.000000000E+00  0.000000000E+00 -4.086136870E+02  4.086136870E+02  0.000000000E+00  0.00000E+00  9.000E+00
      25     1     1     2     0     0 -5.969839690E+01  2.769091193E+02 -6.296441036E+01  3.159621432E+02  1.250000000E+02  0.00000E+00  9.000E+00
      25     1     1     2     0     0  1.056616708E+02 -2.117535209E+02 -1.288799375E+02  2.970504680E+02  1.250000000E+02  0.00000E+00  9.000E+00
      21     1     1     2   512   502 -4.596327388E+01 -6.515559848E+01  2.507938277E+02  2.631642425E+02  5.394796609E-06  0.00000E+00  9.000E+00
#rwgt            1           1   2.7819472392102966E-002           1       88736           0
</event>
<event>
      5   9999  3.19816E-02  1.95597E+01 -1.00000E+00  1.67171E-01
      21    -1     0     0   502   501  0.000000000E+00  0.000000000E+00  2.813852863E+02  2.813852863E+02  0.000000000E+00  0.00000E+00  9.000E+00
      21    -1     0     0   511   502  0.000000000E+00  0.000000000E+00 -1.788312222E+03  1.788312222E+03  0.000000000E+00  0.00000E+00  9.000E+00
      25     1     1     2     0     0  1.491330749E+02 -3.659162748E+02 -9.688239827E+02  1.053745844E+03  1.250000000E+02  0.00000E+00  9.000E+00
      25     1     1     2     0     0 -1.612987012E+02  3.506002450E+02  6.646080458E+01  4.110715769E+02  1.250000000E+02  0.00000E+00  9.000E+00
      21     1     1     2   511   501  1.216562637E+01  1.531602978E+01 -6.045637571E+02  6.048800870E+02  0.000000000E+00  0.00000E+00  9.000E+00
#rwgt            1           1   2.9675941889744515E-002           1       88825           0
</event>
<event>
      5   9999  3.19816E-02  1.39532E+01 -1.00000E+00  1.80395E-01
      21    -1     0     0   512   501  0.000000000E+00  0.000000000E+00  2.068516855E+03  2.068516855E+03  0.000000000E+00  0.00000E+00  9.000E+00
      21    -1     0     0   501   502  0.000000000E+00  0.000000000E+00 -4.286088471E+01  4.286088471E+01  0.000000000E+00  0.00000E+00  9.000E+00
      25     1     1     2     0     0 -1.060011670E+02  1.248373413E+02  2.624169499E+02  3.336289328E+02  1.250000000E+02  0.00000E+00  9.000E+00
      25     1     1     2     0     0  1.198889736E+02 -1.234882600E+02  1.655978329E+03  1.669584362E+03  1.250000000E+02  0.00000E+00  9.000E+00
      21     1     1     2   512   502 -1.388780657E+01 -1.349081295E+00  1.072606915E+02  1.081644448E+02  0.000000000E+00  0.00000E+00  9.000E+00
#rwgt            1           1   2.5369491821485467E-002           1       89108           0
</event>
<event>
      5   9999  3.19816E-02  9.29160E+01 -1.00000E+00  1.25280E-01
      21    -1     0     0   511   501  0.000000000E+00  0.000000000E+00  1.072357075E+03  1.072357075E+03  0.000000000E+00  0.00000E+00  9.000E+00
      21    -1     0     0   501   502  0.000000000E+00  0.000000000E+00 -1.363926241E+02  1.363926241E+02  0.000000000E+00  0.00000E+00  9.000E+00
      25     1     1     2     0     0  7.880049829E+01 -7.846540822E+01 -6.702668738E+01  1.802329483E+02  1.250000000E+02  0.00000E+00  9.000E+00
      25     1     1     2     0     0 -1.927247542E+01  7.122645609E+00  4.385573244E+02  4.564862398E+02  1.250000000E+02  0.00000E+00  9.000E+00
      21     1     1     2   511   502 -5.952802286E+01  7.134276262E+01  5.644338134E+02  5.720305105E+02  7.629394531E-06  0.00000E+00  9.000E+00
#rwgt            2          11   1.5407923429300253E-003           1       89417           0
</event>
<event>
      5   9999  3.19816E-02  7.90211E+01 -1.00000E+00  1.28609E-01
      21    -1     0     0   512   501  0.000000000E+00  0.000000000E+00  8.616133729E+02  8.616133729E+02  0.000000000E+00  0.00000E+00  9.000E+00
      21    -1     0     0   501   502  0.000000000E+00  0.000000000E+00 -1.604728820E+02  1.604728820E+02  0.000000000E+00  0.00000E+00  9.000E+00
      25     1     1     2     0     0 -5.400841869E+01 -1.929720089E+02  5.054165699E+02  5.578763435E+02  1.250000000E+02  0.00000E+00  9.000E+00
      25     1     1     2     0     0 -1.255348792E+01  1.503828074E+02 -5.319836405E+01  2.030459178E+02  1.250000000E+02  0.00000E+00  9.000E+00
      21     1     1     2   512   502  6.656190661E+01  4.258920152E+01  2.489222852E+02  2.611639936E+02  3.814697266E-06  0.00000E+00  9.000E+00
#rwgt            1           1   2.5456581619151306E-002           1       89452           0
</event>
<event>
      5   9999  3.19816E-02  9.27385E+01 -1.00000E+00  1.25319E-01
      21    -1     0     0   502   511  0.000000000E+00  0.000000000E+00  2.051732329E+02  2.051732329E+02  0.000000000E+00  0.00000E+00  9.000E+00
      21    -1     0     0   501   502  0.000000000E+00  0.000000000E+00 -4.482610041E+02  4.482610041E+02  0.000000000E+00  0.00000E+00  9.000E+00
      25     1     1     2     0     0 -4.039842394E+01  5.412262358E+01 -3.472065883E+02  3.751515774E+02  1.250000000E+02  0.00000E+00  9.000E+00
      25     1     1     2     0     0  1.049085631E+02  1.250224936E+01  5.110510103E+01  1.714609116E+02  1.250000000E+02  0.00000E+00  9.000E+00
      21     1     1     2   501   511 -6.451013920E+01 -6.662487294E+01  5.301371606E+01  1.068217480E+02  9.536743164E-07  0.00000E+00  9.000E+00
#rwgt            1           1   1.7916619642570301E-002           1       89550           0
</event>
<event>
      5   9999  3.19816E-02  2.93835E+01 -1.00000E+00  1.53669E-01
      21    -1     0     0   502   501  0.000000000E+00  0.000000000E+00  7.690404944E+02  7.690404944E+02  0.000000000E+00  0.00000E+00  9.000E+00
      21    -1     0     0   501   512  0.000000000E+00  0.000000000E+00 -3.051723747E+02  3.051723747E+02  0.000000000E+00  0.00000E+00  9.000E+00
      25     1     1     2     0     0  1.393561022E+02 -1.984777663E+02  5.896126697E+02  6.496781104E+02  1.250000000E+02  0.00000E+00  9.000E+00
      25     1     1     2     0     0 -1.494325188E+02  2.260794920E+02 -3.139124720E+00  2.984574818E+02  1.250000000E+02  0.00000E+00  9.000E+00
      21     1     1     2   502   512  1.007641657E+01 -2.760172564E+01 -1.226054253E+02  1.260772769E+02  1.907348633E-06  0.00000E+00  9.000E+00
#rwgt            1           1   3.2428421466659738E-002           1       89597           0
</event>
<event>
      5   9999  3.19816E-02  4.23847E+02 -1.00000E+00  1.00934E-01
      21    -1     0     0   511   501  0.000000000E+00  0.000000000E+00  8.856922360E+02  8.856922360E+02  0.000000000E+00  0.00000E+00  9.000E+00
      21    -1     0     0   501   502  0.000000000E+00  0.000000000E+00 -1.110207725E+03  1.110207725E+03  0.000000000E+00  0.00000E+00  9.000E+00
      25     1     1     2     0     0  1.659011060E+02 -1.354563260E+02 -2.568330112E+02  3.570151102E+02  1.250000000E+02  0.00000E+00  9.000E+00
      25     1     1     2     0     0 -5.853413431E+02  7.449651098E+01 -6.174111156E+02  8.631313363E+02  1.250000000E+02  0.00000E+00  9.000E+00
      21     1     1     2   511   502  4.194402370E+02  6.095981499E+01  6.497286382E+02  7.757535142E+02  1.321449896E-05  0.00000E+00  9.000E+00
#rwgt            1           1   2.9507002846239538E-002           1       89709           0
</event>
<event>
      5   9999  3.19816E-02  5.32982E+01 -1.00000E+00  1.37511E-01
       2    -1     0     0   502     0  0.000000000E+00  0.000000000E+00  7.629502979E+01  7.629502979E+01  0.000000000E+00  0.00000E+00  9.000E+00
      21    -1     0     0   501   502  0.000000000E+00  0.000000000E+00 -6.891382870E+02  6.891382870E+02  0.000000000E+00  0.00000E+00  9.000E+00
      25     1     1     2     0     0 -8.877682507E+01  1.081027569E+02 -2.840693383E+02  3.404231480E+02  1.250000000E+02  0.00000E+00  9.000E+00
      25     1     1     2     0     0  7.134840387E+01 -5.773466801E+01 -3.371055445E+02  3.710647312E+02  1.250000000E+02  0.00000E+00  9.000E+00
       2     1     1     2   501     0  1.742842120E+01 -5.036808892E+01  8.331625622E+00  5.394543755E+01  7.907449699E-07  0.00000E+00  9.000E+00
#rwgt            1           1   2.2965364972764437E-002           1       89747           0
</event>
<event>
      5   9999  3.19816E-02  1.38800E+02 -1.00000E+00  1.17745E-01
      21    -1     0     0   502   501  0.000000000E+00  0.000000000E+00  2.894336309E+02  2.894336309E+02  0.000000000E+00  0.00000E+00  9.000E+00
      21    -1     0     0   511   502  0.000000000E+00  0.000000000E+00 -8.191129629E+02  8.191129629E+02  0.000000000E+00  0.00000E+00  9.000E+00
      25     1     1     2     0     0 -8.419427389E+01 -3.244097258E+02 -1.845941960E+02  4.025299531E+02  1.250000000E+02  0.00000E+00  9.000E+00
      25     1     1     2     0     0  2.170451492E+01  4.483473927E+02 -2.057898614E+02  5.093730829E+02  1.250000000E+02  0.00000E+00  9.000E+00
      21     1     1     2   511   501  6.248975897E+01 -1.239376670E+02 -1.392952746E+02  1.966435577E+02  3.303624740E-06  0.00000E+00  9.000E+00
#rwgt            1           1   2.7398095752115652E-002           1       89847           0
</event>
<event>
      5   9999  3.19816E-02  3.62761E+01 -1.00000E+00  1.47522E-01
      21    -1     0     0   502   501  0.000000000E+00  0.000000000E+00  7.828877146E+02  7.828877146E+02  0.000000000E+00  0.00000E+00  9.000E+00
      21    -1     0     0   512   502  0.000000000E+00  0.000000000E+00 -1.317419631E+02  1.317419631E+02  0.000000000E+00  0.00000E+00  9.000E+00
      25     1     1     2     0     0  2.096299145E+02 -1.850365045E+02  3.548017957E+02  4.687136901E+02  1.250000000E+02  0.00000E+00  9.000E+00
      25     1     1     2     0     0 -2.181070527E+02  1.497648145E+02  2.835149605E+02  4.074382394E+02  1.250000000E+02  0.00000E+00  9.000E+00
      21     1     1     2   512   501  8.477138167E+00  3.527169003E+01  1.282899526E+01  3.847774823E+01  6.951036328E-07  0.00000E+00  9.000E+00
#rwgt            1           1   2.5287898755600356E-002           1       89951           0
</event>
<event>
      5   9999  3.19816E-02  3.36054E+01 -1.00000E+00  1.49694E-01
      21    -1     0     0   502   511  0.000000000E+00  0.000000000E+00  8.294824158E+02  8.294824158E+02  0.000000000E+00  0.00000E+00  9.000E+00
      21    -1     0     0   501   502  0.000000000E+00  0.000000000E+00 -5.549798537E+01  5.549798537E+01  0.000000000E+00  0.00000E+00  9.000E+00
      25     1     1     2     0     0  1.478263589E+02 -3.736893054E+01  3.501687786E+02  4.018609745E+02  1.250000000E+02  0.00000E+00  9.000E+00
      25     1     1     2     0     0 -1.478615583E+02  3.763561029E+00  3.203647437E+02  3.743471301E+02  1.250000000E+02  0.00000E+00  9.000E+00
      21     1     1     2   501   511  3.519940262E-02  3.360536951E+01  1.034509082E+02  1.087722966E+02  0.000000000E+00  0.00000E+00  9.000E+00
#rwgt            1           1   2.5099577056460744E-002           1       90071           0
</event>
<event>
      5   9999  3.19816E-02  2.00604E+02 -1.00000E+00  1.11600E-01
      21    -1     0     0   502   501  0.000000000E+00  0.000000000E+00  4.679156286E+02  4.679156286E+02  0.000000000E+00  0.00000E+00  9.000E+00
       1    -1     0     0   501     0  0.000000000E+00  0.000000000E+00 -6.744737222E+02  6.744737222E+02  0.000000000E+00  0.00000E+00  9.000E+00
      25     1     1     2     0     0 -1.383427150E+02  3.545373662E+01 -2.486832391E+02  3.128322676E+02  1.250000000E+02  0.00000E+00  9.000E+00
      25     1     1     2     0     0 -5.256495595E+01  2.616094303E+01  3.978661734E+02  4.211531330E+02  1.250000000E+02  0.00000E+00  9.000E+00
       1     1     1     2   502     0  1.909076709E+02 -6.161467965E+01 -3.557410280E+02  4.084039502E+02  3.814697266E-06  0.00000E+00  9.000E+00
#rwgt            1           1   3.1375583436057099E-002           1       90180           0
</event>
<event>
      5   9999  3.19816E-02  1.28203E+02 -1.00000E+00  1.19162E-01
      21    -1     0     0   502   501  0.000000000E+00  0.000000000E+00  1.293295645E+03  1.293295645E+03  0.000000000E+00  0.00000E+00  9.000E+00
       2    -1     0     0   501     0  0.000000000E+00  0.000000000E+00 -6.828956525E+02  6.828956525E+02  0.000000000E+00  0.00000E+00  9.000E+00
      25     1     1     2     0     0 -1.992697508E+01 -1.142440341E+02 -2.232481867E+01  1.719656396E+02  1.250000000E+02  0.00000E+00  9.000E+00
      25     1     1     2     0     0  1.472623696E+02  9.935127923E+01  1.201604147E+03  1.221079198E+03  1.250000000E+02  0.00000E+00  9.000E+00
       2     1     1     2   502     0 -1.273353945E+02  1.489275485E+01 -5.688793349E+02  5.831464607E+02  1.078959322E-05  0.00000E+00  9.000E+00
#rwgt            1           1   2.7144610446341116E-002           1       90259           0
</event>
<event>
      5   9999  3.19816E-02  5.85397E+01 -1.00000E+00  1.35278E-01
      21    -1     0     0   502   501  0.000000000E+00  0.000000000E+00  6.647392118E+02  6.647392118E+02  0.000000000E+00  0.00000E+00  9.000E+00
      21    -1     0     0   501   511  0.000000000E+00  0.000000000E+00 -1.990885180E+02  1.990885180E+02  0.000000000E+00  0.00000E+00  9.000E+00
      25     1     1     2     0     0 -7.897918203E+00  2.801527184E+02  4.210403159E+02  5.210065934E+02  1.250000000E+02  0.00000E+00  9.000E+00
      25     1     1     2     0     0 -1.755499921E+01 -2.274360627E+02  8.274039868E+01  2.729584478E+02  1.250000000E+02  0.00000E+00  9.000E+00
      21     1     1     2   502   511  2.545291741E+01 -5.271665570E+01 -3.813002076E+01  6.986268873E+01  1.507891493E-06  0.00000E+00  9.000E+00
#rwgt            1           1   2.8038984611107938E-002           1       90326           0
</event>
<event>
      5   9999  3.19816E-02  8.14474E+00 -1.00000E+00  2.06658E-01
      21    -1     0     0   502   512  0.000000000E+00  0.000000000E+00  4.037964585E+02  4.037964585E+02  0.000000000E+00  0.00000E+00  9.000E+00
      21    -1     0     0   501   502  0.000000000E+00  0.000000000E+00 -7.517970736E+02  7.517970736E+02  0.000000000E+00  0.00000E+00  9.000E+00
      25     1     1     2     0     0 -1.617353574E+02  3.877265996E+02 -4.718662468E+02  6.440287235E+02  1.250000000E+02  0.00000E+00  9.000E+00
      25     1     1     2     0     0  1.695418631E+02 -3.854038382E+02  5.548515904E+01  4.427009879E+02  1.250000000E+02  0.00000E+00  9.000E+00
      21     1     1     2   501   512 -7.806505764E+00 -2.322761413E+00  6.838047265E+01  6.886382064E+01  1.651812370E-06  0.00000E+00  9.000E+00
#rwgt            1           1   3.0965715417627049E-002           1       90400           0
</event>
<event>
      5   9999  3.19816E-02  7.03360E+01 -1.00000E+00  1.31115E-01
      21    -1     0     0   502   501  0.000000000E+00  0.000000000E+00  4.237990003E+01  4.237990003E+01  0.000000000E+00  0.00000E+00  9.000E+00
       2    -1     0     0   501     0  0.000000000E+00  0.000000000E+00 -2.584775304E+03  2.584775304E+03  0.000000000E+00  0.00000E+00  9.000E+00
      25     1     1     2     0     0  1.338441569E+02  5.871309335E+01 -2.470017481E+02  3.130436859E+02  1.250000000E+02  0.00000E+00  9.000E+00
      25     1     1     2     0     0 -8.740119052E+01 -5.890762754E+00 -6.687709787E+02  6.859688704E+02  1.250000000E+02  0.00000E+00  9.000E+00
       2     1     1     2   502     0 -4.644296642E+01 -5.282233060E+01 -1.626622677E+03  1.628142648E+03  2.157918644E-05  0.00000E+00  9.000E+00
#rwgt            1           1   2.6336012814314209E-002           1       90686           0
</event>
<event>
      5   9999  3.19816E-02  3.32749E+01 -1.00000E+00  1.49979E-01
      21    -1     0     0   502   501  0.000000000E+00  0.000000000E+00  1.308660335E+02  1.308660335E+02  0.000000000E+00  0.00000E+00  9.000E+00
      21    -1     0     0   501   511  0.000000000E+00  0.000000000E+00 -5.192858530E+02  5.192858530E+02  0.000000000E+00  0.00000E+00  9.000E+00
      25     1     1     2     0     0 -4.536059594E+01  1.803600003E+02 -2.446370937E+02  3.317523489E+02  1.250000000E+02  0.00000E+00  9.000E+00
      25     1     1     2     0     0  7.599404860E+01 -1.933526973E+02 -9.734033028E+01  2.612671064E+02  1.250000000E+02  0.00000E+00  9.000E+00
      21     1     1     2   502   511 -3.063345266E+01  1.299269700E+01 -4.644239546E+01  5.713243119E+01  9.536743164E-07  0.00000E+00  9.000E+00
#rwgt            1           1   2.9521885244537527E-002           1       90779           0
</event>
<event>
      5   9999  3.19816E-02  6.06712E+02 -1.00000E+00  9.65225E-02
      21    -1     0     0   502   501  0.000000000E+00  0.000000000E+00  1.177003528E+03  1.177003528E+03  0.000000000E+00  0.00000E+00  9.000E+00
      -1    -1     0     0     0   502  0.000000000E+00  0.000000000E+00 -3.778813472E+02  3.778813472E+02  0.000000000E+00  0.00000E+00  9.000E+00
      25     1     1     2     0     0  2.938887144E+02 -1.444821307E+02  2.750028726E+02  4.455302936E+02  1.250000000E+02  0.00000E+00  9.000E+00
      25     1     1     2     0     0  7.533304355E+01 -3.369472661E+02  1.505800828E+02  3.968726356E+02  1.250000000E+02  0.00000E+00  9.000E+00
      -1     1     1     2     0   501 -3.692217580E+02  4.814293968E+02  3.735392256E+02  7.124819462E+02  9.344061824E-06  0.00000E+00  9.000E+00
#rwgt            2          10   7.3225854003926351E-005           1       90857           0
</event>
<event>
      5   9999  3.19816E-02  1.99537E+02 -1.00000E+00  1.11685E-01
      21    -1     0     0   502   511  0.000000000E+00  0.000000000E+00  1.160159959E+02  1.160159959E+02  0.000000000E+00  0.00000E+00  9.000E+00
      21    -1     0     0   501   502  0.000000000E+00  0.000000000E+00 -8.357858990E+02  8.357858990E+02  0.000000000E+00  0.00000E+00  9.000E+00
      25     1     1     2     0     0 -3.573439301E+01  5.239862031E-01 -1.680282560E+02  2.124516798E+02  1.250000000E+02  0.00000E+00  9.000E+00
      25     1     1     2     0     0 -6.032532752E+01  1.743684309E+02 -4.766018523E+02  5.261347930E+02  1.250000000E+02  0.00000E+00  9.000E+00
      21     1     1     2   501   511  9.605972053E+01 -1.748924171E+02 -7.513979481E+01  2.132154221E+02  4.264961200E-06  0.00000E+00  9.000E+00
#rwgt            2          11   5.9389153482403215E-003           1       90966           0
</event>
<event>
      5   9999  3.19816E-02  1.14592E+02 -1.00000E+00  1.21225E-01
       2    -1     0     0   502     0  0.000000000E+00  0.000000000E+00  2.554031944E+03  2.554031944E+03  0.000000000E+00  0.00000E+00  9.000E+00
      21    -1     0     0   501   502  0.000000000E+00  0.000000000E+00 -1.818758948E+02  1.818758948E+02  0.000000000E+00  0.00000E+00  9.000E+00
      25     1     1     2     0     0  3.341133173E+02 -6.910731205E+01  1.454506800E+03  1.499207311E+03  1.250000000E+02  0.00000E+00  9.000E+00
      25     1     1     2     0     0 -4.467795477E+02  4.818990596E+01  1.958835487E+02  5.058948467E+02  1.250000000E+02  0.00000E+00  9.000E+00
       2     1     1     2   501     0  1.126662305E+02  2.091740609E+01  7.217657005E+02  7.308056812E+02  0.000000000E+00  0.00000E+00  9.000E+00
#rwgt            1           1   2.7289317155405373E-002           1       90986           0
</event>
<event>
      5   9999  3.19816E-02  5.79274E+00 -1.00000E+00  2.27869E-01
      21    -1     0     0   511   501  0.000000000E+00  0.000000000E+00  2.490339345E+03  2.490339345E+03  0.000000000E+00  0.00000E+00  9.000E+00
      21    -1     0     0   501   502  0.000000000E+00  0.000000000E+00 -3.015622337E+02  3.015622337E+02  0.000000000E+00  0.00000E+00  9.000E+00
      25     1     1     2     0     0  5.139543998E+02 -1.234548036E+01  5.487122234E+02  7.622411955E+02  1.250000000E+02  0.00000E+00  9.000E+00
      25     1     1     2     0     0 -5.146977715E+02  6.600636854E+00  1.653129231E+02  5.548970418E+02  1.250000000E+02  0.00000E+00  9.000E+00
      21     1     1     2   511   502  7.433717172E-01  5.744843511E+00  1.474751965E+03  1.474763341E+03  2.157918644E-05  0.00000E+00  9.000E+00
#rwgt            1           1   2.8410900330724419E-002           1       91059           0
</event>
<event>
      5   9999  3.19816E-02  4.43008E+02 -1.00000E+00  1.00368E-01
      21    -1     0     0   502   512  0.000000000E+00  0.000000000E+00  1.478214277E+03  1.478214277E+03  0.000000000E+00  0.00000E+00  9.000E+00
      21    -1     0     0   501   502  0.000000000E+00  0.000000000E+00 -6.702762439E+02  6.702762439E+02  0.000000000E+00  0.00000E+00  9.000E+00
      25     1     1     2     0     0 -8.484318388E+02  3.731536751E+01  2.153505740E+02  8.850027635E+02  1.250000000E+02  0.00000E+00  9.000E+00
      25     1     1     2     0     0  5.059467089E+02 -3.183139785E+02  1.326991568E+02  6.249319382E+02  1.250000000E+02  0.00000E+00  9.000E+00
      21     1     1     2   501   512  3.424851299E+02  2.809986110E+02  4.598883019E+02  6.385558189E+02  7.629394531E-06  0.00000E+00  9.000E+00
#rwgt            2          11   2.2542029787020416E-003           1       91424           0
</event>
<event>
      5   9999  3.19816E-02  8.90793E+01 -1.00000E+00  1.26130E-01
      21    -1     0     0   511   501  0.000000000E+00  0.000000000E+00  7.680802062E+02  7.680802062E+02  0.000000000E+00  0.00000E+00  9.000E+00
      21    -1     0     0   501   502  0.000000000E+00  0.000000000E+00 -7.932028758E+02  7.932028758E+02  0.000000000E+00  0.00000E+00  9.000E+00
      25     1     1     2     0     0  2.488839938E+01 -1.265813706E+02  4.511869058E+02  4.856304148E+02  1.250000000E+02  0.00000E+00  9.000E+00
      25     1     1     2     0     0 -6.332717906E+01  2.069404583E+02 -7.485713750E+02  7.891886900E+02  1.250000000E+02  0.00000E+00  9.000E+00
      21     1     1     2   511   502  3.843877969E+01 -8.035908767E+01  2.722617996E+02  2.864639773E+02  5.394796609E-06  0.00000E+00  9.000E+00
#rwgt            1           1   2.3134425804309147E-002           1       91444           0
</event>
<event>
      5   9999  3.19816E-02  3.85425E+01 -1.00000E+00  1.45847E-01
      21    -1     0     0   502   501  0.000000000E+00  0.000000000E+00  4.080342565E+02  4.080342565E+02  0.000000000E+00  0.00000E+00  9.000E+00
       1    -1     0     0   501     0  0.000000000E+00  0.000000000E+00 -3.693163398E+02  3.693163398E+02  0.000000000E+00  0.00000E+00  9.000E+00
      25     1     1     2     0     0  7.001661547E+01  1.568791351E+02  1.802903703E+02  2.786449481E+02  1.250000000E+02  0.00000E+00  9.000E+00
      25     1     1     2     0     0 -9.209440158E+01 -1.252864265E+02  1.209913452E+02  2.333280375E+02  1.250000000E+02  0.00000E+00  9.000E+00
       1     1     1     2   502     0  2.207778611E+01 -3.159270858E+01 -2.625637987E+02  2.653776107E+02  5.394796609E-06  0.00000E+00  9.000E+00
#rwgt            1           1   2.9756761599361758E-002           1       91564           0
</event>
<event>
      5   9999  3.19816E-02  5.96587E+01 -1.00000E+00  1.34836E-01
       2    -1     0     0   502     0  0.000000000E+00  0.000000000E+00  2.586366569E+03  2.586366569E+03  0.000000000E+00  0.00000E+00  9.000E+00
      21    -1     0     0   501   502  0.000000000E+00  0.000000000E+00 -6.847109166E+02  6.847109166E+02  0.000000000E+00  0.00000E+00  9.000E+00
      25     1     1     2     0     0  3.816025519E+02 -5.975882888E+02  2.154495556E+01  7.202926181E+02  1.250000000E+02  0.00000E+00  9.000E+00
      25     1     1     2     0     0 -3.407570856E+02  6.410717070E+02  7.035119260E+01  7.400423064E+02  1.250000000E+02  0.00000E+00  9.000E+00
       2     1     1     2   501     0 -4.084546635E+01 -4.348341824E+01  1.809759504E+03  1.810742561E+03  2.157918644E-05  0.00000E+00  9.000E+00
#rwgt            1           1   2.1702905669811850E-002           1       91665           0
</event>
<event>
      5   9999  3.19816E-02  1.04262E+01 -1.00000E+00  1.93685E-01
      21    -1     0     0   511   501  0.000000000E+00  0.000000000E+00  4.428665959E+01  4.428665959E+01  0.000000000E+00  0.00000E+00  9.000E+00
      21    -1     0     0   501   502  0.000000000E+00  0.000000000E+00 -1.240693866E+03  1.240693866E+03  0.000000000E+00  0.00000E+00  9.000E+00
      25     1     1     2     0     0 -9.623838716E+01 -6.246343195E+00 -8.172132882E+02  8.323240970E+02  1.250000000E+02  0.00000E+00  9.000E+00
      25     1     1     2     0     0  1.013476544E+02  1.533482035E+01 -3.988736087E+02  4.303854777E+02  1.250000000E+02  0.00000E+00  9.000E+00
      21     1     1     2   511   502 -5.109267207E+00 -9.088477153E+00  1.967969056E+01  2.227095079E+01  1.192092896E-06  0.00000E+00  9.000E+00
#rwgt            1           1   3.6557229997738652E-002           1       91794           0
</event>
<event>
      5   9999  3.19816E-02  3.06635E+02 -1.00000E+00  1.05284E-01
       2    -1     0     0   502     0  0.000000000E+00  0.000000000E+00  1.497839036E+03  1.497839036E+03  0.000000000E+00  0.00000E+00  9.000E+00
      21    -1     0     0   501   502  0.000000000E+00  0.000000000E+00 -2.276874714E+02  2.276874714E+02  0.000000000E+00  0.00000E+00  9.000E+00
      25     1     1     2     0     0 -7.177820242E+00 -3.121259229E+00  5.266720949E+01  1.358679444E+02  1.250000000E+02  0.00000E+00  9.000E+00
      25     1     1     2     0     0 -2.847054568E+02 -9.084230709E+01 -1.036301583E+01  3.241017031E+02  1.250000000E+02  0.00000E+00  9.000E+00
       2     1     1     2   501     0  2.918832770E+02  9.396356632E+01  1.227847371E+03  1.265556860E+03  1.525878906E-05  0.00000E+00  9.000E+00
#rwgt            1           1   3.1885233939249927E-002           1       92041           0
</event>
<event>
      5   9999  3.19816E-02  2.09384E+01 -1.00000E+00  1.64743E-01
      21    -1     0     0   511   501  0.000000000E+00  0.000000000E+00  1.666121699E+03  1.666121699E+03  0.000000000E+00  0.00000E+00  9.000E+00
      21    -1     0     0   501   502  0.000000000E+00  0.000000000E+00 -9.677887733E+02  9.677887733E+02  0.000000000E+00  0.00000E+00  9.000E+00
      25     1     1     2     0     0 -7.560286778E+01  3.146894184E+02 -5.800079506E+02  6.758546045E+02  1.250000000E+02  0.00000E+00  9.000E+00
      25     1     1     2     0     0  6.736125863E+01 -3.339375887E+02 -2.429030998E+02  4.366678007E+02  1.250000000E+02  0.00000E+00  9.000E+00
      21     1     1     2   511   502  8.241609146E+00  1.924817026E+01  1.521243976E+03  1.521388068E+03  2.157918644E-05  0.00000E+00  9.000E+00
#rwgt            1           1   2.8067735252757492E-002           1       92110           0
</event>
<event>
      5   9999  3.19816E-02  1.10089E+01 -1.00000E+00  1.91052E-01
      21    -1     0     0   502   501  0.000000000E+00  0.000000000E+00  5.313836307E+02  5.313836307E+02  0.000000000E+00  0.00000E+00  9.000E+00
      21    -1     0     0   512   502  0.000000000E+00  0.000000000E+00 -9.154748219E+02  9.154748219E+02  0.000000000E+00  0.00000E+00  9.000E+00
      25     1     1     2     0     0  3.143246313E+02 -5.207657007E+02  1.202201359E+02  6.325146402E+02  1.250000000E+02  0.00000E+00  9.000E+00
      25     1     1     2     0     0 -3.247303541E+02  5.171716647E+02 -4.770134805E+02  7.849096726E+02  1.250000000E+02  0.00000E+00  9.000E+00
      21     1     1     2   512   501  1.040572273E+01  3.594036032E+00 -2.729784656E+01  2.943413983E+01  0.000000000E+00  0.00000E+00  9.000E+00
#rwgt            1           1   2.1963037052701685E-002           1       92288           0
</event>
<event>
      5   9999  3.19816E-02  1.21097E+02 -1.00000E+00  1.20201E-01
       2    -1     0     0   502     0  0.000000000E+00  0.000000000E+00  2.830388223E+03  2.830388223E+03  0.000000000E+00  0.00000E+00  9.000E+00
      21    -1     0     0   501   502  0.000000000E+00  0.000000000E+00 -7.612527725E+02  7.612527725E+02  0.000000000E+00  0.00000E+00  9.000E+00
      25     1     1     2     0     0  9.091587249E+02 -4.550624629E+02  6.463979302E+02  1.211241808E+03  1.250000000E+02  0.00000E+00  9.000E+00
      25     1     1     2     0     0 -9.685993474E+02  3.495571249E+02  8.893388203E+01  1.041109559E+03  1.250000000E+02  0.00000E+00  9.000E+00
       2     1     1     2   501     0  5.944062248E+01  1.055053380E+02  1.333803638E+03  1.339289628E+03  1.525878906E-05  0.00000E+00  9.000E+00
#rwgt            1           1   3.2742163373639853E-002           1       92563           0
</event>
<event>
      5   9999  3.19816E-02  8.94284E+01 -1.00000E+00  1.26050E-01
      21    -1     0     0   511   501  0.000000000E+00  0.000000000E+00  1.505139470E+02  1.505139470E+02  0.000000000E+00  0.00000E+00  9.000E+00
      21    -1     0     0   501   502  0.000000000E+00  0.000000000E+00 -8.424311620E+02  8.424311620E+02  0.000000000E+00  0.00000E+00  9.000E+00
      25     1     1     2     0     0 -6.349850861E+01 -1.080242887E+02 -7.281083967E+02  7.493117808E+02  1.250000000E+02  0.00000E+00  9.000E+00
      25     1     1     2     0     0  5.143341132E+01  1.941348622E+01  6.283809961E+01  1.503193468E+02  1.250000000E+02  0.00000E+00  9.000E+00
      21     1     1     2   511   502  1.206509730E+01  8.861080244E+01 -2.664691789E+01  9.331398135E+01  1.685873940E-06  0.00000E+00  9.000E+00
#rwgt            1           1   2.7781408950113429E-002           1       92679           0
</event>
<event>
      5   9999  3.19816E-02  3.99087E+01 -1.00000E+00  1.44902E-01
      21    -1     0     0   502   512  0.000000000E+00  0.000000000E+00  3.254123613E+02  3.254123613E+02  0.000000000E+00  0.00000E+00  9.000E+00
      21    -1     0     0   501   502  0.000000000E+00  0.000000000E+00 -2.559615665E+02  2.559615665E+02  0.000000000E+00  0.00000E+00  9.000E+00
      25     1     1     2     0     0 -1.250024014E+02 -1.457036765E+01 -1.885987142E+02  2.589061046E+02  1.250000000E+02  0.00000E+00  9.000E+00
      25     1     1     2     0     0  8.516422032E+01  1.219906506E+01  2.205116236E+02  2.676791695E+02  1.250000000E+02  0.00000E+00  9.000E+00
      21     1     1     2   501   512  3.983818107E+01  2.371302597E+00  3.753788538E+01  5.478865380E+01  4.768371582E-07  0.00000E+00  9.000E+00
#rwgt            2          11   1.8365290437164093E-003           1       92806           0
</event>
<event>
      5   9999  3.19816E-02  1.95875E+01 -1.00000E+00  1.67119E-01
      21    -1     0     0   502   501  0.000000000E+00  0.000000000E+00  3.828769696E+02  3.828769696E+02  0.000000000E+00  0.00000E+00  9.000E+00
      21    -1     0     0   511   502  0.000000000E+00  0.000000000E+00 -3.170577295E+02  3.170577295E+02  0.000000000E+00  0.00000E+00  9.000E+00
      25     1     1     2     0     0 -2.880187791E+02 -1.407928660E+01  4.784599036E+01  3.179108086E+02  1.250000000E+02  0.00000E+00  9.000E+00
      25     1     1     2     0     0  2.861052105E+02  3.357308830E+01  7.404327387E+01  3.226309814E+02  1.250000000E+02  0.00000E+00  9.000E+00
      21     1     1     2   511   501  1.913568580E+00 -1.949380171E+01 -5.607002411E+01  5.939290912E+01  9.536743164E-07  0.00000E+00  9.000E+00
#rwgt            1           1   2.7725246212041133E-002           1       92826           0
</event>
<event>
      5   9999  3.19816E-02  1.13100E+02 -1.00000E+00  1.21470E-01
       2    -1     0     0   502     0  0.000000000E+00  0.000000000E+00  5.715479457E+02  5.715479457E+02  0.000000000E+00  0.00000E+00  9.000E+00
      21    -1     0     0   501   502  0.000000000E+00  0.000000000E+00 -1.087387875E+03  1.087387875E+03  0.000000000E+00  0.00000E+00  9.000E+00
      25     1     1     2     0     0  3.969654292E+01  8.346497192E+01  1.025834568E+02  1.862540810E+02  1.250000000E+02  0.00000E+00  9.000E+00
      25     1     1     2     0     0 -1.555305077E+01 -1.939583266E+02 -1.024948443E+03  1.050716917E+03  1.250000000E+02  0.00000E+00  9.000E+00
       2     1     1     2   501     0 -2.414349216E+01  1.104933547E+02  4.065250568E+02  4.219648225E+02  7.629394531E-06  0.00000E+00  9.000E+00
#rwgt            1           1   2.7562338603000627E-002           1       92955           0
</event>
<event>
      5   9999  3.19816E-02  2.86254E+01 -1.00000E+00  1.54468E-01
      21    -1     0     0   511   501  0.000000000E+00  0.000000000E+00  7.098602283E+01  7.098602283E+01  0.000000000E+00  0.00000E+00  9.000E+00
      21    -1     0     0   501   502  0.000000000E+00  0.000000000E+00 -1.231898636E+03  1.231898636E+03  0.000000000E+00  0.00000E+00  9.000E+00
      25     1     1     2     0     0 -1.261786406E+02  1.851589016E+02 -8.837676475E+02  9.202581828E+02  1.250000000E+02  0.00000E+00  9.000E+00
      25     1     1     2     0     0  1.155672840E+02 -1.585729421E+02 -2.614726129E+02  3.499915747E+02  1.250000000E+02  0.00000E+00  9.000E+00
      21     1     1     2   511   502  1.061135658E+01 -2.658595955E+01 -1.567235251E+01  3.263490105E+01  3.769728732E-07  0.00000E+00  9.000E+00
#rwgt            1           1   2.9656103580023865E-002           1       93026           0
</event>
<event>
      5   9999  3.19816E-02  8.62384E+00 -1.00000E+00  2.03496E-01
      21    -1     0     0   502   501  0.000000000E+00  0.000000000E+00  3.693398648E+02  3.693398648E+02  0.000000000E+00  0.00000E+00  9.000E+00
      21    -1     0     0   512   502  0.000000000E+00  0.000000000E+00 -1.808579072E+02  1.808579072E+02  0.000000000E+00  0.00000E+00  9.000E+00
      25     1     1     2     0     0  1.335977965E+02  1.137506181E+02 -5.385798583E+01  2.220658843E+02  1.250000000E+02  0.00000E+00  9.000E+00
      25     1     1     2     0     0 -1.250760858E+02 -1.150739056E+02  2.392157794E+02  3.189595900E+02  1.250000000E+02  0.00000E+00  9.000E+00
      21     1     1     2   512   501 -8.521710733E+00  1.323287504E+00  3.124164061E+00  9.172297679E+00  2.107342426E-07  0.00000E+00  9.000E+00
#rwgt            1           1   2.6910773774143543E-002           1       93127           0
</event>
<event>
      5   9999  3.19816E-02  1.88630E+01 -1.00000E+00  1.68494E-01
      21    -1     0     0   502   501  0.000000000E+00  0.000000000E+00  1.051716890E+03  1.051716890E+03  0.000000000E+00  0.00000E+00  9.000E+00
      21    -1     0     0   501   511  0.000000000E+00  0.000000000E+00 -5.904795351E+02  5.904795351E+02  0.000000000E+00  0.00000E+00  9.000E+00
      25     1     1     2     0     0  3.383834490E+02 -5.853246679E+02  4.919336469E+02  8.454182624E+02  1.250000000E+02  0.00000E+00  9.000E+00
      25     1     1     2     0     0 -3.239534437E+02  5.731760432E+02  8.861594784E+01  6.759840208E+02  1.250000000E+02  0.00000E+00  9.000E+00
      21     1     1     2   502   511 -1.443000532E+01  1.214862469E+01 -1.193122399E+02  1.207941419E+02  1.348699152E-06  0.00000E+00  9.000E+00
#rwgt            1           1   3.1387219521763321E-002           1       93378           0
</event>
<event>
      5   9999  3.19816E-02  1.79114E+02 -1.00000E+00  1.13420E-01
      21    -1     0     0   502   501  0.000000000E+00  0.000000000E+00  2.155182846E+02  2.155182846E+02  0.000000000E+00  0.00000E+00  9.000E+00
       2    -1     0     0   501     0  0.000000000E+00  0.000000000E+00 -1.855309340E+03  1.855309340E+03  0.000000000E+00  0.00000E+00  9.000E+00
      25     1     1     2     0     0  2.422494492E+02  3.323476053E+02 -7.195446354E+02  8.381582242E+02  1.250000000E+02  0.00000E+00  9.000E+00
      25     1     1     2     0     0 -1.391723749E+02 -4.788291983E+02 -3.182942678E+02  6.046342630E+02  1.250000000E+02  0.00000E+00  9.000E+00
       2     1     1     2   502     0 -1.030770742E+02  1.464815930E+02 -6.019521517E+02  6.280351370E+02  7.629394531E-06  0.00000E+00  9.000E+00
#rwgt            1           1   2.6316707662307551E-002           1       93600           0
</event>
<event>
      5   9999  3.19816E-02  1.09098E+02 -1.00000E+00  1.22151E-01
      21    -1     0     0   511   501  0.000000000E+00  0.000000000E+00  5.549913611E+02  5.549913611E+02  0.000000000E+00  0.00000E+00  9.000E+00
      21    -1     0     0   501   502  0.000000000E+00  0.000000000E+00 -2.704247686E+02  2.704247686E+02  0.000000000E+00  0.00000E+00  9.000E+00
      25     1     1     2     0     0  1.626379183E+02 -1.739132631E+02  1.356525788E+02  3.012034822E+02  1.250000000E+02  0.00000E+00  9.000E+00
      25     1     1     2     0     0 -2.471320759E+02  2.429292986E+02  4.084627080E+01  3.706512173E+02  1.250000000E+02  0.00000E+00  9.000E+00
      21     1     1     2   511   502  8.449415754E+01 -6.901603551E+01  1.080677428E+02  1.535614302E+02  3.303624740E-06  0.00000E+00  9.000E+00
#rwgt            1           1   3.1473259048473458E-002           1       93642           0
</event>
<event>
      5   9999  3.19816E-02  4.42827E+01 -1.00000E+00  1.42153E-01
       1    -1     0     0   502     0  0.000000000E+00  0.000000000E+00  7.317584647E+02  7.317584647E+02  0.000000000E+00  0.00000E+00  9.000E+00
      21    -1     0     0   501   502  0.000000000E+00  0.000000000E+00 -1.173405406E+03  1.173405406E+03  0.000000000E+00  0.00000E+00  9.000E+00
      25     1     1     2     0     0  3.305918021E+01  1.123560635E+02 -1.880998072E+01  1.723241416E+02  1.250000000E+02  0.00000E+00  9.000E+00
      25     1     1     2     0     0 -1.899526610E+01 -7.036601665E+01 -1.072224602E+03  1.081943988E+03  1.250000000E+02  0.00000E+00  9.000E+00
       1     1     1     2   501     0 -1.406391412E+01 -4.199004686E+01  6.493876410E+02  6.508957413E+02  0.000000000E+00  0.00000E+00  9.000E+00
#rwgt            1           1   1.9820753732050517E-002           1       93735           0
</event>
<event>
      5   9999  3.19816E-02  1.05166E+02 -1.00000E+00  1.22852E-01
      21    -1     0     0   511   501  0.000000000E+00  0.000000000E+00  6.659263702E+02  6.659263702E+02  0.000000000E+00  0.00000E+00  9.000E+00
      21    -1     0     0   501   502  0.000000000E+00  0.000000000E+00 -1.235295317E+03  1.235295317E+03  0.000000000E+00  0.00000E+00  9.000E+00
      25     1     1     2     0     0 -7.428020665E+02 -2.062269169E+02 -3.544837728E+01  7.817710910E+02  1.250000000E+02  0.00000E+00  9.000E+00
      25     1     1     2     0     0  7.633521447E+02  3.093653819E+02 -5.686905652E+02  1.008685975E+03  1.250000000E+02  0.00000E+00  9.000E+00
      21     1     1     2   511   502 -2.055007811E+01 -1.031384650E+02  3.476999612E+01  1.107646212E+02  1.719260824E-06  0.00000E+00  9.000E+00
#rwgt            1           1   3.0398022032836085E-002           1       93868           0
</event>
<event>
      5   9999  3.19816E-02  6.32618E+02 -1.00000E+00  9.60336E-02
       1    -1     0     0   502     0  0.000000000E+00  0.000000000E+00  2.193537690E+03  2.193537690E+03  0.000000000E+00  0.00000E+00  9.000E+00
      21    -1     0     0   501   502  0.000000000E+00  0.000000000E+00 -2.879002493E+02  2.879002493E+02  0.000000000E+00  0.00000E+00  9.000E+00
      25     1     1     2     0     0  6.445431055E+00 -6.114693306E+02  1.310713604E+03  1.451733942E+03  1.250000000E+02  0.00000E+00  9.000E+00
      25     1     1     2     0     0  2.121072346E+01 -2.054425324E+01 -3.889170359E+01  1.341995743E+02  1.250000000E+02  0.00000E+00  9.000E+00
       1     1     1     2   501     0 -2.765615452E+01  6.320135839E+02  6.338155404E+02  8.955044234E+02  0.000000000E+00  0.00000E+00  9.000E+00
#rwgt            2          17   4.0126778899796431E-004           1       94059           0
</event>
<event>
      5   9999  3.19816E-02  1.13665E+02 -1.00000E+00  1.21377E-01
      21    -1     0     0   511   501  0.000000000E+00  0.000000000E+00  5.148727749E+02  5.148727749E+02  0.000000000E+00  0.00000E+00  9.000E+00
      21    -1     0     0   501   502  0.000000000E+00  0.000000000E+00 -6.665731193E+02  6.665731193E+02  0.000000000E+00  0.00000E+00  9.000E+00
      25     1     1     2     0     0 -3.621095192E+02 -4.903442588E+01 -5.029025567E+02  6.340849000E+02  1.250000000E+02  0.00000E+00  9.000E+00
      25     1     1     2     0     0  2.531262119E+02  8.132062553E+01  1.891210302E+02  3.493961754E+02  1.250000000E+02  0.00000E+00  9.000E+00
      21     1     1     2   511   502  1.089833073E+02 -3.228619965E+01  1.620811820E+02  1.979648189E+02  2.697398305E-06  0.00000E+00  9.000E+00
#rwgt            1           1   2.6899988587987728E-002           1       94078           0
</event>
<event>
      5   9999  3.19816E-02  2.73828E+01 -1.00000E+00  1.55845E-01
      21    -1     0     0   512   501  0.000000000E+00  0.000000000E+00  8.868034704E+02  8.868034704E+02  0.000000000E+00  0.00000E+00  9.000E+00
      21    -1     0     0   501   502  0.000000000E+00  0.000000000E+00 -2.579406536E+02  2.579406536E+02  0.000000000E+00  0.00000E+00  9.000E+00
      25     1     1     2     0     0  4.347738653E+02  6.896449264E+01  2.205123012E+02  5.079715447E+02  1.250000000E+02  0.00000E+00  9.000E+00
      25     1     1     2     0     0 -4.318604220E+02 -9.619186617E+01  3.728884599E+02  5.919688360E+02  1.250000000E+02  0.00000E+00  9.000E+00
      21     1     1     2   512   502 -2.913443288E+00  2.722737354E+01  3.546205567E+01  4.480374330E+01  6.743495762E-07  0.00000E+00  9.000E+00
#rwgt            1           1   2.4165065396138913E-002           1       94157           0
</event>
<event>
      5   9999  3.19816E-02  4.98165E+01 -1.00000E+00  1.39167E-01
      21    -1     0     0   502   501  0.000000000E+00  0.000000000E+00  7.787742574E+01  7.787742574E+01  0.000000000E+00  0.00000E+00  9.000E+00
      21    -1     0     0   511   502  0.000000000E+00  0.000000000E+00 -5.471383095E+02  5.471383095E+02  0.000000000E+00  0.00000E+00  9.000E+00
      25     1     1     2     0     0  4.485228329E+01 -6.366289828E+01 -1.207815704E+02  1.904675292E+02  1.250000000E+02  0.00000E+00  9.000E+00
      25     1     1     2     0     0 -3.261248469E+01  1.119522974E+02 -1.422554026E+02  2.223926497E+02  1.250000000E+02  0.00000E+00  9.000E+00
      21     1     1     2   511   501 -1.223979859E+01 -4.828939913E+01 -2.062239108E+02  2.121555564E+02  2.697398305E-06  0.00000E+00  9.000E+00
#rwgt            1           1   7.4850960185933124E-002           1       94334           0
</event>
<event>
      5   9999  3.19816E-02  1.76222E+02 -1.00000E+00  1.13686E-01
       2    -1     0     0   502     0  0.000000000E+00  0.000000000E+00  3.338587916E+03  3.338587916E+03  0.000000000E+00  0.00000E+00  9.000E+00
      21    -1     0     0   501   502  0.000000000E+00  0.000000000E+00 -9.764207835E+01  9.764207835E+01  0.000000000E+00  0.00000E+00  9.000E+00
      25     1     1     2     0     0 -1.765497383E+02 -8.217649944E+01  9.824386952E+02  1.009323326E+03  1.250000000E+02  0.00000E+00  9.000E+00
      25     1     1     2     0     0  3.001819971E+02 -4.339856609E+01  2.545777214E+02  4.152438840E+02  1.250000000E+02  0.00000E+00  9.000E+00
       2     1     1     2   501     0 -1.236322588E+02  1.255750655E+02  2.003929421E+03  2.011662784E+03  2.157918644E-05  0.00000E+00  9.000E+00
#rwgt            1           1   3.3130534538202722E-002           1       94404           0
</event>
<event>
      5   9999  3.19816E-02  5.75729E+01 -1.00000E+00  1.35669E-01
      21    -1     0     0   502   501  0.000000000E+00  0.000000000E+00  6.265759692E+02  6.265759692E+02  0.000000000E+00  0.00000E+00  9.000E+00
      21    -1     0     0   511   502  0.000000000E+00  0.000000000E+00 -1.929291388E+02  1.929291388E+02  0.000000000E+00  0.00000E+00  9.000E+00
      25     1     1     2     0     0 -2.290485230E+01 -2.416731605E+01  5.323703538E+02  5.478611913E+02  1.250000000E+02  0.00000E+00  9.000E+00
      25     1     1     2     0     0  4.102994314E+01  7.881271509E+01  4.524689313E+00  1.534287232E+02  1.250000000E+02  0.00000E+00  9.000E+00
      21     1     1     2   511   501 -1.812509084E+01 -5.464539903E+01 -1.032482126E+02  1.182151935E+02  1.907348633E-06  0.00000E+00  9.000E+00
#rwgt            1           1   2.0931150021812700E-002           1       94455           0
</event>
<event>
      5   9999  3.19816E-02  1.29489E+02 -1.00000E+00  1.18982E-01
      21    -1     0     0   502   501  0.000000000E+00  0.000000000E+00  4.097596016E+02  4.097596016E+02  0.000000000E+00  0.00000E+00  9.000E+00
      21    -1     0     0   501   512  0.000000000E+00  0.000000000E+00 -1.018932017E+03  1.018932017E+03  0.000000000E+00  0.00000E+00  9.000E+00
      25     1     1     2     0     0 -4.818851862E+02 -2.944132447E+02 -4.922185387E+02  7.594712510E+02  1.250000000E+02  0.00000E+00  9.000E+00
      25     1     1     2     0     0  3.581043535E+02  3.324362383E+02 -1.528961335E+01  5.045902821E+02  1.250000000E+02  0.00000E+00  9.000E+00
      21     1     1     2   502   512  1.237808327E+02 -3.802299368E+01 -1.016642636E+02  1.646300857E+02  2.336015456E-06  0.00000E+00  9.000E+00
#rwgt            1           1   2.9150829353811407E-002           1       94515           0
</event>
<event>
      5   9999  3.19816E-02  2.44473E+02 -1.00000E+00  1.08563E-01
      21    -1     0     0   511   501  0.000000000E+00  0.000000000E+00  8.239724492E+02  8.239724492E+02  0.000000000E+00  0.00000E+00  9.000E+00
      21    -1     0     0   501   502  0.000000000E+00  0.000000000E+00 -5.034716498E+02  5.034716498E+02  0.000000000E+00  0.00000E+00  9.000E+00
      25     1     1     2     0     0 -1.516197788E+02  1.723973738E+02  9.915778547E+01  2.795830435E+02  1.250000000E+02  0.00000E+00  9.000E+00
      25     1     1     2     0     0 -9.015364237E+01 -1.361657554E+02 -3.614544078E+02  4.158642580E+02  1.250000000E+02  0.00000E+00  9.000E+00
      21     1     1     2   511   502  2.417734212E+02 -3.623161839E+01  5.827974217E+02  6.319967975E+02  7.629394531E-06  0.00000E+00  9.000E+00
#rwgt            1           1   2.9713106762349121E-002           1       94606           0
</event>
<event>
      5   9999  3.19816E-02  4.19825E+01 -1.00000E+00  1.43549E-01
      21    -1     0     0   512   501  0.000000000E+00  0.000000000E+00  5.061710735E+02  5.061710735E+02  0.000000000E+00  0.00000E+00  9.000E+00
      21    -1     0     0   501   502  0.000000000E+00  0.000000000E+00 -1.078164974E+03  1.078164974E+03  0.000000000E+00  0.00000E+00  9.000E+00
      25     1     1     2     0     0  7.237211810E+00  5.575382517E+02 -5.111574557E+01  5.737064570E+02  1.250000000E+02  0.00000E+00  9.000E+00
      25     1     1     2     0     0 -2.214545053E+01 -5.967846330E+02 -6.400561365E+02  8.842732479E+02  1.250000000E+02  0.00000E+00  9.000E+00
      21     1     1     2   512   502  1.490823872E+01  3.924638133E+01  1.191779816E+02  1.263563426E+02  2.336015456E-06  0.00000E+00  9.000E+00
#rwgt            1           1   3.4088564538653589E-002           1       94654           0
</event>
<event>
      5   9999  3.19816E-02  2.00193E+01 -1.00000E+00  1.66334E-01
       2    -1     0     0   502     0  0.000000000E+00  0.000000000E+00  1.774510695E+03  1.774510695E+03  0.000000000E+00  0.00000E+00  9.000E+00
      21    -1     0     0   501   502  0.000000000E+00  0.000000000E+00 -7.828599593E+02  7.828599593E+02  0.000000000E+00  0.00000E+00  9.000E+00
      25     1     1     2     0     0 -3.033889304E+02 -6.548346810E+01 -6.326493754E+02  7.156837010E+02  1.250000000E+02  0.00000E+00  9.000E+00
      25     1     1     2     0     0  2.912182175E+02  4.958856826E+01  1.281760710E+02  3.454289818E+02  1.250000000E+02  0.00000E+00  9.000E+00
       2     1     1     2   501     0  1.217071293E+01  1.589489984E+01  1.496124040E+03  1.496257971E+03  2.157918644E-05  0.00000E+00  9.000E+00
#rwgt            1           1   2.2946804625124242E-002           1       94781           0
</event>
<event>
      5   9999  3.19816E-02  2.29894E+01 -1.00000E+00  1.61527E-01
      21    -1     0     0   502   501  0.000000000E+00  0.000000000E+00  2.186259305E+02  2.186259305E+02  0.000000000E+00  0.00000E+00  9.000E+00
      21    -1     0     0   501   511  0.000000000E+00  0.000000000E+00 -3.821274850E+02  3.821274850E+02  0.000000000E+00  0.00000E+00  9.000E+00
      25     1     1     2     0     0 -1.689063321E+01  2.299666189E+01  1.805901842E+02  2.214767585E+02  1.250000000E+02  0.00000E+00  9.000E+00
      25     1     1     2     0     0  1.074010301E+00 -3.968036997E+01 -3.206900403E+02  3.464719140E+02  1.250000000E+02  0.00000E+00  9.000E+00
      21     1     1     2   502   511  1.581662291E+01  1.668370808E+01 -2.340169835E+01  3.280474297E+01  4.768371582E-07  0.00000E+00  9.000E+00
#rwgt            1           1   2.8165079849134515E-002           1       94994           0
</event>
<event>
      5   9999  3.19816E-02  6.53488E+02 -1.00000E+00  9.56575E-02
      21    -1     0     0   502   501  0.000000000E+00  0.000000000E+00  2.050050698E+03  2.050050698E+03  0.000000000E+00  0.00000E+00  9.000E+00
      -1    -1     0     0     0   502  0.000000000E+00  0.000000000E+00 -1.329086473E+03  1.329086473E+03  0.000000000E+00  0.00000E+00  9.000E+00
      25     1     1     2     0     0 -8.089866658E+02 -6.280337325E+02 -7.732693791E+01  1.034644987E+03  1.250000000E+02  0.00000E+00  9.000E+00
      25     1     1     2     0     0  1.346080810E+03  2.557748574E+02  9.520805919E+02  1.673151750E+03  1.250000000E+02  0.00000E+00  9.000E+00
      -1     1     1     2     0   501 -5.370941441E+02  3.722588751E+02 -1.537894288E+02  6.713404338E+02  1.452593442E-05  0.00000E+00  9.000E+00
#rwgt            1           1   6.7166915914190384E-002           1       95149           0
</event>
<event>
      5   9999  3.19816E-02  5.44825E+01 -1.00000E+00  1.36981E-01
      21    -1     0     0   502   501  0.000000000E+00  0.000000000E+00  7.068399078E+02  7.068399078E+02  0.000000000E+00  0.00000E+00  9.000E+00
      21    -1     0     0   511   502  0.000000000E+00  0.000000000E+00 -8.865933066E+02  8.865933066E+02  0.000000000E+00  0.00000E+00  9.000E+00
      25     1     1     2     0     0  7.200108961E+02 -1.834095856E+02  1.937667070E+01  7.536943823E+02  1.250000000E+02  0.00000E+00  9.000E+00
      25     1     1     2     0     0 -6.731511288E+02  2.112036296E+02 -9.572769192E+01  7.228611253E+02  1.250000000E+02  0.00000E+00  9.000E+00
      21     1     1     2   511   501 -4.685976721E+01 -2.779404407E+01 -1.034023776E+02  1.168777069E+02  1.348699152E-06  0.00000E+00  9.000E+00
#rwgt            1           1   3.0195788353580059E-002           1       95178           0
</event>
<event>
      5   9999  3.19816E-02  3.11963E+01 -1.00000E+00  1.51870E-01
      21    -1     0     0   502   512  0.000000000E+00  0.000000000E+00  9.406169771E+01  9.406169771E+01  0.000000000E+00  0.00000E+00  9.000E+00
      21    -1     0     0   501   502  0.000000000E+00  0.000000000E+00 -1.185181419E+03  1.185181419E+03  0.000000000E+00  0.00000E+00  9.000E+00
      25     1     1     2     0     0  3.887985165E+00  2.259204029E+02 -2.003116411E+02  3.268101872E+02  1.250000000E+02  0.00000E+00  9.000E+00
      25     1     1     2     0     0 -2.958265878E+01 -2.436119223E+02 -8.752817033E+02  9.175864878E+02  1.250000000E+02  0.00000E+00  9.000E+00
      21     1     1     2   501   512  2.569467362E+01  1.769151943E+01 -1.552637652E+01  3.484644142E+01  5.331201500E-07  0.00000E+00  9.000E+00
#rwgt            1           1   2.6134293352196549E-002           1       95332           0
</event>
<event>
      5   9999  3.19816E-02  1.33361E+02 -1.00000E+00  1.18454E-01
      21    -1     0     0   511   501  0.000000000E+00  0.000000000E+00  5.639607259E+02  5.639607259E+02  0.000000000E+00  0.00000E+00  9.000E+00
      21    -1     0     0   501   502  0.000000000E+00  0.000000000E+00 -6.256686315E+02  6.256686315E+02  0.000000000E+00  0.00000E+00  9.000E+00
      25     1     1     2     0     0 -3.669521705E+02  1.454910231E+02  1.734269210E+02  4.489136111E+02  1.250000000E+02  0.00000E+00  9.000E+00
      25     1     1     2     0     0  4.878555988E+02 -2.017707732E+02 -2.653948228E+02  6.039651829E+02  1.250000000E+02  0.00000E+00  9.000E+00
      21     1     1     2   511   502 -1.209034282E+02  5.627975010E+01  3.025999615E+01  1.367505634E+02  1.617033478E-06  0.00000E+00  9.000E+00
#rwgt            1           1   2.7400292818024887E-002           1       95456           0
</event>
<event>
      5   9999  3.19816E-02  1.91328E+01 -1.00000E+00  1.67973E-01
      21    -1     0     0   502   501  0.000000000E+00  0.000000000E+00  6.890341741E+02  6.890341741E+02  0.000000000E+00  0.00000E+00  9.000E+00
      21    -1     0     0   512   502  0.000000000E+00  0.000000000E+00 -2.134821860E+02  2.134821860E+02  0.000000000E+00  0.00000E+00  9.000E+00
      25     1     1     2     0     0 -5.946305106E+01  2.622756617E+02  7.877255838E+01  3.068460414E+02  1.250000000E+02  0.00000E+00  9.000E+00
      25     1     1     2     0     0  6.337513363E+01 -2.435470841E+02  4.547856831E+02  5.345901302E+02  1.250000000E+02  0.00000E+00  9.000E+00
      21     1     1     2   512   501 -3.912082566E+00 -1.872857759E+01 -5.800625335E+01  6.108018857E+01  6.743495762E-07  0.00000E+00  9.000E+00
#rwgt            1           1   2.5955295453377596E-002           1       95606           0
</event>
<event>
      5   9999  3.19816E-02  2.37717E+01 -1.00000E+00  1.60407E-01
       2    -1     0     0   502     0  0.000000000E+00  0.000000000E+00  5.046888516E+03  5.046888516E+03  0.000000000E+00  0.00000E+00  9.000E+00
      21    -1     0     0   501   502  0.000000000E+00  0.000000000E+00 -6.064773190E+00  6.064773190E+00  0.000000000E+00  0.00000E+00  9.000E+00
      25     1     1     2     0     0  2.263174334E+01 -3.436150274E+01  9.539832770E+02  9.630171346E+02  1.250000000E+02  0.00000E+00  9.000E+00
      25     1     1     2     0     0 -2.724104590E+00  2.136999628E+01  2.794675692E+03  2.797552738E+03  1.250000000E+02  0.00000E+00  9.000E+00
       2     1     1     2   501     0 -1.990763875E+01  1.299150646E+01  1.292164773E+03  1.292383416E+03  1.525878906E-05  0.00000E+00  9.000E+00
#rwgt            1           1   9.2582947094742487E-003           1       95835           0
</event>
<event>
      5   9999  3.19816E-02  3.72477E+01 -1.00000E+00  1.46787E-01
      21    -1     0     0   502   501  0.000000000E+00  0.000000000E+00  4.178257076E+01  4.178257076E+01  0.000000000E+00  0.00000E+00  9.000E+00
       2    -1     0     0   501     0  0.000000000E+00  0.000000000E+00 -2.196097890E+03  2.196097890E+03  0.000000000E+00  0.00000E+00  9.000E+00
      25     1     1     2     0     0 -1.584984387E+02  1.412336896E+02 -5.850929237E+02  6.348444215E+02  1.250000000E+02  0.00000E+00  9.000E+00
      25     1     1     2     0     0  1.743483039E+02 -1.075265226E+02 -8.604395753E+02  8.932751798E+02  1.250000000E+02  0.00000E+00  9.000E+00
       2     1     1     2   502     0 -1.584986520E+01 -3.370716701E+01 -7.087828202E+02  7.097608594E+02  7.629394531E-06  0.00000E+00  9.000E+00
#rwgt            1           1   1.9275025675669164E-002           1       95932           0
</event>
<event>
      5   9999  3.19816E-02  1.23240E+01 -1.00000E+00  1.85820E-01
      21    -1     0     0   502   501  0.000000000E+00  0.000000000E+00  7.624100127E+02  7.624100127E+02  0.000000000E+00  0.00000E+00  9.000E+00
      21    -1     0     0   511   502  0.000000000E+00  0.000000000E+00 -1.982488477E+02  1.982488477E+02  0.000000000E+00  0.00000E+00  9.000E+00
      25     1     1     2     0     0  2.020179500E+01  4.510617969E+01  6.948637646E+02  7.077452446E+02  1.250000000E+02  0.00000E+00  9.000E+00
      25     1     1     2     0     0 -3.167493055E+01 -4.960602657E+01 -1.775922671E+01  1.392998537E+02  1.250000000E+02  0.00000E+00  9.000E+00
      21     1     1     2   511   501  1.147313555E+01  4.499846884E+00 -1.129433729E+02  1.136137621E+02  2.336015456E-06  0.00000E+00  9.000E+00
#rwgt            1           1   2.3304701037764494E-002           1       96023           0
</event>
<event>
      5   9999  3.19816E-02  4.42795E+01 -1.00000E+00  1.42155E-01
      21    -1     0     0   502   512  0.000000000E+00  0.000000000E+00  7.169286508E+02  7.169286508E+02  0.000000000E+00  0.00000E+00  9.000E+00
      21    -1     0     0   501   502  0.000000000E+00  0.000000000E+00 -6.828744359E+02  6.828744359E+02  0.000000000E+00  0.00000E+00  9.000E+00
      25     1     1     2     0     0  7.884756666E+01  1.930781563E+02 -1.078789886E+00  2.431507289E+02  1.250000000E+02  0.00000E+00  9.000E+00
      25     1     1     2     0     0 -3.575241194E+01 -2.032506263E+02 -5.339065042E+02  5.858926585E+02  1.250000000E+02  0.00000E+00  9.000E+00
      21     1     1     2   501   512 -4.309515472E+01  1.017247003E+01  5.690395090E+02  5.707596992E+02  0.000000000E+00  0.00000E+00  9.000E+00
#rwgt            1           1   2.6084989501266365E-002           1       96218           0
</event>
<event>
      5   9999  3.19816E-02  5.89959E+01 -1.00000E+00  1.35096E-01
      21    -1     0     0   502   511  0.000000000E+00  0.000000000E+00  1.869656778E+02  1.869656778E+02  0.000000000E+00  0.00000E+00  9.000E+00
      21    -1     0     0   501   502  0.000000000E+00  0.000000000E+00 -7.320524678E+02  7.320524678E+02  0.000000000E+00  0.00000E+00  9.000E+00
      25     1     1     2     0     0 -1.335487968E+02 -2.092930010E+02 -4.094781030E+02  4.949102527E+02  1.250000000E+02  0.00000E+00  9.000E+00
      25     1     1     2     0     0  1.049669611E+02  2.609029747E+02 -1.741751620E+02  3.536246771E+02  1.250000000E+02  0.00000E+00  9.000E+00
      21     1     1     2   501   511  2.858183567E+01 -5.160997369E+01  3.856647500E+01  7.048321579E+01  9.536743164E-07  0.00000E+00  9.000E+00
#rwgt            1           1   2.8346074457493667E-002           1       96294           0
</event>
<event>
      5   9999  3.19816E-02  2.22911E+02 -1.00000E+00  1.09960E-01
       2    -1     0     0   502     0  0.000000000E+00  0.000000000E+00  3.154993958E+03  3.154993958E+03  0.000000000E+00  0.00000E+00  9.000E+00
      21    -1     0     0   501   502  0.000000000E+00  0.000000000E+00 -4.342230302E+01  4.342230302E+01  0.000000000E+00  0.00000E+00  9.000E+00
      25     1     1     2     0     0 -4.621997957E+01 -3.373984702E+01  3.889754635E+02  4.125549357E+02  1.250000000E+02  0.00000E+00  9.000E+00
      25     1     1     2     0     0  1.755005673E+02  2.153321909E+02  9.104973832E+02  9.601035811E+02  1.250000000E+02  0.00000E+00  9.000E+00
       2     1     1     2   501     0 -1.292805877E+02 -1.815923438E+02  1.812098809E+03  1.825757745E+03  2.157918644E-05  0.00000E+00  9.000E+00
#rwgt            2          18   2.0710738971947244E-003           1       96479           0
</event>
<event>
      5   9999  3.19816E-02  9.51380E+01 -1.00000E+00  1.24809E-01
       1    -1     0     0   502     0  0.000000000E+00  0.000000000E+00  7.308854680E+02  7.308854680E+02  0.000000000E+00  0.00000E+00  9.000E+00
      21    -1     0     0   501   502  0.000000000E+00  0.000000000E+00 -1.417293887E+02  1.417293887E+02  0.000000000E+00  0.00000E+00  9.000E+00
      25     1     1     2     0     0  2.470740243E+02 -5.663163868E+01  2.440366894E+02  3.734054388E+02  1.250000000E+02  0.00000E+00  9.000E+00
      25     1     1     2     0     0 -1.812101177E+02  1.252843079E+02  1.876490883E+02  3.152307803E+02  1.250000000E+02  0.00000E+00  9.000E+00
       1     1     1     2   501     0 -6.586390660E+01 -6.865266917E+01  1.574703017E+02  1.839786376E+02  1.907348633E-06  0.00000E+00  9.000E+00
#rwgt            1           1   2.8484791492795907E-002           1       96498           0
</event>
<event>
      5   9999  4.38181E-02  1.96099E+02 -1.00000E+00  1.11960E-01
      21    -1     0     0   502   511  0.000000000E+00  0.000000000E+00  4.392285349E+02  4.392285349E+02  0.000000000E+00  0.00000E+00  9.000E+00
      21    -1     0     0   501   502  0.000000000E+00  0.000000000E+00 -6.156185635E+02  6.156185635E+02  0.000000000E+00  0.00000E+00  9.000E+00
      25     1     1     2     0     0  9.843061948E+01 -2.177191435E+02 -3.722622956E+00  2.696832776E+02  1.250000000E+02  0.00000E+00  9.000E+00
      25     1     1     2     0     0 -4.005992793E+01  4.049296678E+02 -3.260560779E+02  5.361999624E+02  1.250000000E+02  0.00000E+00  9.000E+00
      21     1     1     2   501   511 -5.837069155E+01 -1.872105242E+02  1.533886723E+02  2.489638585E+02  4.672030912E-06  0.00000E+00  9.000E+00
#rwgt            1           1   4.3620957438130867E-002           1       96560           0
</event>
<event>
      5   9999  3.19816E-02  1.36668E+02 -1.00000E+00  1.18019E-01
      21    -1     0     0   502   501  0.000000000E+00  0.000000000E+00  1.605583462E+02  1.605583462E+02  0.000000000E+00  0.00000E+00  9.000E+00
       2    -1     0     0   501     0  0.000000000E+00  0.000000000E+00 -6.198336697E+02  6.198336697E+02  0.000000000E+00  0.00000E+00  9.000E+00
      25     1     1     2     0     0 -6.055073210E+01  2.919278946E+01  1.424322943E+01  1.426410870E+02  1.250000000E+02  0.00000E+00  9.000E+00
      25     1     1     2     0     0  5.766507008E+01  1.074447321E+02 -4.696099261E+02  5.010270586E+02  1.250000000E+02  0.00000E+00  9.000E+00
       2     1     1     2   502     0  2.885662013E+00 -1.366375216E+02 -3.908626868E+00  1.367238703E+02  1.994752947E-06  0.00000E+00  9.000E+00
#rwgt            2          13   9.3935039532933826E-005           1       96659           0
</event>
<event>
      5   9999  3.19816E-02  1.79340E+01 -1.00000E+00  1.70373E-01
      21    -1     0     0   502   501  0.000000000E+00  0.000000000E+00  4.298164172E+02  4.298164172E+02  0.000000000E+00  0.00000E+00  9.000E+00
      21    -1     0     0   511   502  0.000000000E+00  0.000000000E+00 -4.100374379E+02  4.100374379E+02  0.000000000E+00  0.00000E+00  9.000E+00
      25     1     1     2     0     0  4.205297492E+01  5.182562153E+01  1.530178371E+02  2.085516872E+02  1.250000000E+02  0.00000E+00  9.000E+00
      25     1     1     2     0     0 -5.954076039E+01 -5.580121327E+01  2.264176122E+02  2.711988434E+02  1.250000000E+02  0.00000E+00  9.000E+00
      21     1     1     2   511   501  1.748778547E+01  3.975591743E+00 -3.596564700E+02  3.601033246E+02  3.814697266E-06  0.00000E+00  9.000E+00
#rwgt            1           1   3.3306110145967793E-002           1       96678           0
</event>
<event>
      5   9999  3.19816E-02  5.36223E+01 -1.00000E+00  1.37364E-01
      21    -1     0     0   502   501  0.000000000E+00  0.000000000E+00  3.164347667E+01  3.164347667E+01  0.000000000E+00  0.00000E+00  9.000E+00
       2    -1     0     0   501     0  0.000000000E+00  0.000000000E+00 -2.736219943E+03  2.736219943E+03  0.000000000E+00  0.00000E+00  9.000E+00
      25     1     1     2     0     0  1.529245979E+02  2.034727227E+01 -3.427919158E+02  3.961454804E+02  1.250000000E+02  0.00000E+00  9.000E+00
      25     1     1     2     0     0 -9.939636188E+01 -1.717287770E+01 -1.915742294E+03  1.922464065E+03  1.250000000E+02  0.00000E+00  9.000E+00
       2     1     1     2   502     0 -5.352823602E+01 -3.174394569E+00 -4.460422559E+02  4.492538736E+02  0.000000000E+00  0.00000E+00  9.000E+00
#rwgt            1           1   6.9023816851032774E-002           1       96758           0
</event>
<event>
      5   9999  3.19816E-02  2.02048E+02 -1.00000E+00  1.11487E-01
      21    -1     0     0   511   501  0.000000000E+00  0.000000000E+00  1.025579713E+03  1.025579713E+03  0.000000000E+00  0.00000E+00  9.000E+00
      21    -1     0     0   501   502  0.000000000E+00  0.000000000E+00 -1.822126248E+02  1.822126248E+02  0.000000000E+00  0.00000E+00  9.000E+00
      25     1     1     2     0     0  2.105997538E+02  3.084039885E+01  4.145147115E+02  4.824425691E+02  1.250000000E+02  0.00000E+00  9.000E+00
      25     1     1     2     0     0 -2.836250186E+02  1.575488571E+02  1.444993348E+02  3.765233742E+02  1.250000000E+02  0.00000E+00  9.000E+00
      21     1     1     2   511   502  7.302526487E+01 -1.883892559E+02  2.843530416E+02  3.488263942E+02  3.814697266E-06  0.00000E+00  9.000E+00
#rwgt            2          11   3.1591696664130379E-003           1       96893           0
</event>
<event>
      5   9999  3.19816E-02  3.15570E+02 -1.00000E+00  1.04883E-01
      21    -1     0     0   512   501  0.000000000E+00  0.000000000E+00  8.965443934E+02  8.965443934E+02  0.000000000E+00  0.00000E+00  9.000E+00
      21    -1     0     0   501   502  0.000000000E+00  0.000000000E+00 -7.270298840E+02  7.270298840E+02  0.000000000E+00  0.00000E+00  9.000E+00
      25     1     1     2     0     0  8.714080273E+01  6.718539727E+02  1.435450841E+02  7.037126341E+02  1.250000000E+02  0.00000E+00  9.000E+00
      25     1     1     2     0     0 -9.979697817E+01 -3.565380900E+02 -2.796729746E+02  4.805422137E+02  1.250000000E+02  0.00000E+00  9.000E+00
      21     1     1     2   512   502  1.265617544E+01 -3.153158827E+02  3.056423999E+02  4.393194297E+02  5.394796609E-06  0.00000E+00  9.000E+00
#rwgt            1           1   2.3445164628226392E-002           1       96913           0
</event>
<event>
      5   9999  3.19816E-02  1.96443E+01 -1.00000E+00  1.67015E-01
      21    -1     0     0   502   501  0.000000000E+00  0.000000000E+00  1.509423699E+02  1.509423699E+02  0.000000000E+00  0.00000E+00  9.000E+00
      21    -1     0     0   501   511  0.000000000E+00  0.000000000E+00 -4.410404435E+02  4.410404435E+02  0.000000000E+00  0.00000E+00  9.000E+00
      25     1     1     2     0     0  1.902563133E+02  6.036520344E+01 -1.851935532E+02  2.996048643E+02  1.250000000E+02  0.00000E+00  9.000E+00
      25     1     1     2     0     0 -1.776963640E+02 -4.526067595E+01 -4.120125338E+01  2.257145761E+02  1.250000000E+02  0.00000E+00  9.000E+00
      21     1     1     2   502   511 -1.255994926E+01 -1.510452749E+01 -6.370326704E+01  6.666337306E+01  1.168007728E-06  0.00000E+00  9.000E+00
#rwgt            1           1   2.5944964619567901E-002           1       96964           0
</event>
<event>
      5   9999  3.19816E-02  1.70781E+02 -1.00000E+00  1.14203E-01
      21    -1     0     0   512   501  0.000000000E+00  0.000000000E+00  1.283122485E+03  1.283122485E+03  0.000000000E+00  0.00000E+00  9.000E+00
      21    -1     0     0   501   502  0.000000000E+00  0.000000000E+00 -7.109286696E+02  7.109286696E+02  0.000000000E+00  0.00000E+00  9.000E+00
      25     1     1     2     0     0  5.215107050E+02  2.534551109E+02 -4.587323178E+02  7.498488168E+02  1.250000000E+02  0.00000E+00  9.000E+00
      25     1     1     2     0     0 -4.673378655E+02 -9.149426425E+01  9.109682282E+02  1.035501808E+03  1.250000000E+02  0.00000E+00  9.000E+00
      21     1     1     2   512   502 -5.417283947E+01 -1.619608467E+02  1.199579053E+02  2.087005306E+02  4.264961200E-06  0.00000E+00  9.000E+00
#rwgt            1           1   3.3722662978114049E-002           1       97100           0
</event>
<event>
      5   9999  3.19816E-02  2.19027E+01 -1.00000E+00  1.63177E-01
      21    -1     0     0   502   501  0.000000000E+00  0.000000000E+00  8.424075011E+02  8.424075011E+02  0.000000000E+00  0.00000E+00  9.000E+00
      21    -1     0     0   511   502  0.000000000E+00  0.000000000E+00 -3.434897362E+02  3.434897362E+02  0.000000000E+00  0.00000E+00  9.000E+00
      25     1     1     2     0     0  7.628588922E+01 -2.032118511E+02  7.725925550E+02  8.121815372E+02  1.250000000E+02  0.00000E+00  9.000E+00
      25     1     1     2     0     0 -7.115284468E+01  1.819191445E+02 -2.571543420E+02  3.462811835E+02  1.250000000E+02  0.00000E+00  9.000E+00
      21     1     1     2   511   501 -5.133044535E+00  2.129270656E+01 -1.652044813E+01  2.743451668E+01  3.371747881E-07  0.00000E+00  9.000E+00
#rwgt            1           1   2.4085172972538916E-002           1       97162           0
</event>
<event>
      5   9999  3.19816E-02  3.49380E+02 -1.00000E+00  1.03485E-01
      21    -1     0     0   502   501  0.000000000E+00  0.000000000E+00  1.261445809E+03  1.261445809E+03  0.000000000E+00  0.00000E+00  9.000E+00
      21    -1     0     0   501   512  0.000000000E+00  0.000000000E+00 -1.509666477E+02  1.509666477E+02  0.000000000E+00  0.00000E+00  9.000E+00
      25     1     1     2     0     0  1.601777313E+02  4.777492080E+01  3.622483197E+02  4.180767797E+02  1.250000000E+02  0.00000E+00  9.000E+00
      25     1     1     2     0     0 -5.479386863E+00  2.654903554E+02  4.371398694E+02  5.265276991E+02  1.250000000E+02  0.00000E+00  9.000E+00
      21     1     1     2   502   512 -1.546983444E+02 -3.132652762E+02  3.110909717E+02  4.678079774E+02  0.000000000E+00  0.00000E+00  9.000E+00
#rwgt            2          11   4.3236421406888867E-003           1       97318           0
</event>
<event>
      5   9999  3.19816E-02  1.69216E+02 -1.00000E+00  1.14356E-01
      21    -1     0     0   502   511  0.000000000E+00  0.000000000E+00  4.638796667E+02  4.638796667E+02  0.000000000E+00  0.00000E+00  9.000E+00
      21    -1     0     0   501   502  0.000000000E+00  0.000000000E+00 -2.172646317E+03  2.172646317E+03  0.000000000E+00  0.00000E+00  9.000E+00
      25     1     1     2     0     0 -5.112100412E+01  7.374294416E+02 -1.622850296E+03  1.787647510E+03  1.250000000E+02  0.00000E+00  9.000E+00
      25     1     1     2     0     0  1.853175283E+02 -6.343496658E+02 -9.581490492E+01  6.793729321E+02  1.250000000E+02  0.00000E+00  9.000E+00
      21     1     1     2   501   511 -1.341965241E+02 -1.030797758E+02  9.898550369E+00  1.695055414E+02  3.853614301E-06  0.00000E+00  9.000E+00
#rwgt            2          11   7.9226027753339767E-003           1       97383           0
</event>
<event>
      5   9999  3.19816E-02  6.82119E+01 -1.00000E+00  1.31792E-01
      21    -1     0     0   502   501  0.000000000E+00  0.000000000E+00  1.522655572E+03  1.522655572E+03  0.000000000E+00  0.00000E+00  9.000E+00
       1    -1     0     0   501     0  0.000000000E+00  0.000000000E+00 -1.775830781E+03  1.775830781E+03  0.000000000E+00  0.00000E+00  9.000E+00
      25     1     1     2     0     0 -1.765385705E+02  2.904979822E+02  1.290649617E+03  1.340506016E+03  1.250000000E+02  0.00000E+00  9.000E+00
      25     1     1     2     0     0  1.627857791E+02 -2.236869176E+02  9.472296932E+01  3.180133454E+02  1.250000000E+02  0.00000E+00  9.000E+00
       1     1     1     2   502     0  1.375279141E+01 -6.681106466E+01 -1.638547795E+03  1.639966992E+03  0.000000000E+00  0.00000E+00  9.000E+00
#rwgt            1           1   2.3439784595863544E-002           1       97418           0
</event>
<event>
      5   9999  3.19816E-02  8.91835E+01 -1.00000E+00  1.26106E-01
      21    -1     0     0   511   501  0.000000000E+00  0.000000000E+00  7.905401030E+02  7.905401030E+02  0.000000000E+00  0.00000E+00  9.000E+00
      21    -1     0     0   501   502  0.000000000E+00  0.000000000E+00 -1.010010714E+03  1.010010714E+03  0.000000000E+00  0.00000E+00  9.000E+00
      25     1     1     2     0     0 -3.696733193E+01  4.953876588E+02 -3.243566965E+02  6.063066738E+02  1.250000000E+02  0.00000E+00  9.000E+00
      25     1     1     2     0     0 -4.461598910E+01 -4.593618756E+02 -4.353767677E+02  6.466698146E+02  1.250000000E+02  0.00000E+00  9.000E+00
      21     1     1     2   511   502  8.158332103E+01 -3.602578320E+01  5.402628529E+02  5.475743288E+02  7.629394531E-06  0.00000E+00  9.000E+00
#rwgt            1           1   2.0357261782092101E-002           1       97499           0
</event>
<event>
      5   9999  3.19816E-02  6.94399E+01 -1.00000E+00  1.31398E-01
      21    -1     0     0   512   501  0.000000000E+00  0.000000000E+00  7.366458239E+02  7.366458239E+02  0.000000000E+00  0.00000E+00  9.000E+00
      21    -1     0     0   501   502  0.000000000E+00  0.000000000E+00 -4.839407346E+02  4.839407346E+02  0.000000000E+00  0.00000E+00  9.000E+00
      25     1     1     2     0     0  4.564761877E+02 -2.165695403E+02 -1.676710121E+02  5.468193888E+02  1.250000000E+02  0.00000E+00  9.000E+00
      25     1     1     2     0     0 -4.028213120E+02  1.724893854E+02  3.807771434E+02  5.938297992E+02  1.250000000E+02  0.00000E+00  9.000E+00
      21     1     1     2   512   502 -5.365487573E+01  4.408015485E+01  3.959895791E+01  7.993737054E+01  1.066240300E-06  0.00000E+00  9.000E+00
#rwgt            1           1   3.1080624740310439E-002           1       97577           0
</event>
<event>
      5   9999  3.19816E-02  1.12092E+02 -1.00000E+00  1.21638E-01
      21    -1     0     0   502   511  0.000000000E+00  0.000000000E+00  8.293877273E+02  8.293877273E+02  0.000000000E+00  0.00000E+00  9.000E+00
      21    -1     0     0   501   502  0.000000000E+00  0.000000000E+00 -1.832057895E+02  1.832057895E+02  0.000000000E+00  0.00000E+00  9.000E+00
      25     1     1     2     0     0  2.551762299E+02  8.687732475E+01  2.376378137E+02  3.804724804E+02  1.250000000E+02  0.00000E+00  9.000E+00
      25     1     1     2     0     0 -2.897713467E+02 -1.934973573E+02  3.085462912E+02  4.819071222E+02  1.250000000E+02  0.00000E+00  9.000E+00
      21     1     1     2   501   511  3.459511682E+01  1.066200325E+02  9.999783290E+01  1.502139142E+02  1.907348633E-06  0.00000E+00  9.000E+00
#rwgt            1           1   2.8044828145635449E-002           1       97712           0
</event>
<event>
      5   9999  3.19816E-02  4.73763E+01 -1.00000E+00  1.40424E-01
      21    -1     0     0   502   512  0.000000000E+00  0.000000000E+00  1.353339581E+02  1.353339581E+02  0.000000000E+00  0.00000E+00  9.000E+00
      21    -1     0     0   501   502  0.000000000E+00  0.000000000E+00 -1.913491375E+03  1.913491375E+03  0.000000000E+00  0.00000E+00  9.000E+00
      25     1     1     2     0     0 -8.716957195E+01  1.503826103E+02 -1.700993274E+03  1.714414355E+03  1.250000000E+02  0.00000E+00  9.000E+00
      25     1     1     2     0     0  6.189170402E+01 -1.904518364E+02 -1.249712940E+02  2.671054274E+02  1.250000000E+02  0.00000E+00  9.000E+00
      21     1     1     2   501   512  2.527786793E+01  4.006922612E+01  4.780715077E+01  6.730555069E+01  1.507891493E-06  0.00000E+00  9.000E+00
#rwgt            1           1   3.2920176743209545E-002           1       97828           0
</event>
<event>
      5   9999  3.19816E-02  4.90637E+01 -1.00000E+00  1.39546E-01
      21    -1     0     0   511   501  0.000000000E+00  0.000000000E+00  1.645803506E+02  1.645803506E+02  0.000000000E+00  0.00000E+00  9.000E+00
      21    -1     0     0   501   502  0.000000000E+00  0.000000000E+00 -7.531934788E+02  7.531934788E+02  0.000000000E+00  0.00000E+00  9.000E+00
      25     1     1     2     0     0 -2.252639790E+01 -2.394485787E+02 -3.409452756E+02  4.355591136E+02  1.250000000E+02  0.00000E+00  9.000E+00
      25     1     1     2     0     0  7.128509333E+01  2.339860051E+02 -3.025174510E+02  4.086230822E+02  1.250000000E+02  0.00000E+00  9.000E+00
      21     1     1     2   511   502 -4.875869543E+01  5.462573621E+00  5.484959847E+01  7.359163365E+01  9.536743164E-07  0.00000E+00  9.000E+00
#rwgt            1           1   2.8714199751327770E-002           1       97915           0
</event>
<event>
      5   9999  3.19816E-02  8.86163E+01 -1.00000E+00  1.26236E-01
      21    -1     0     0   502   501  0.000000000E+00  0.000000000E+00  2.752992125E+03  2.752992125E+03  0.000000000E+00  0.00000E+00  9.000E+00
      21    -1     0     0   512   502  0.000000000E+00  0.000000000E+00 -6.064825350E+02  6.064825350E+02  0.000000000E+00  0.00000E+00  9.000E+00
      25     1     1     2     0     0  1.019725491E+03  3.250665531E+02  1.576380932E+03  1.909479035E+03  1.250000000E+02  0.00000E+00  9.000E+00
      25     1     1     2     0     0 -9.322102489E+02 -3.389924586E+02  7.497710018E+02  1.249685317E+03  1.250000000E+02  0.00000E+00  9.000E+00
      21     1     1     2   512   501 -8.751524212E+01  1.392590554E+01 -1.796423434E+02  2.003103093E+02  2.697398305E-06  0.00000E+00  9.000E+00
#rwgt            1           1   2.7344617276501081E-002           1       98014           0
</event>
<event>
      5   9999  3.19816E-02  3.16622E+01 -1.00000E+00  1.51431E-01
      21    -1     0     0   502   511  0.000000000E+00  0.000000000E+00  3.687623822E+02  3.687623822E+02  0.000000000E+00  0.00000E+00  9.000E+00
      21    -1     0     0   501   502  0.000000000E+00  0.000000000E+00 -2.937503471E+02  2.937503471E+02  0.000000000E+00  0.00000E+00  9.000E+00
      25     1     1     2     0     0  1.985475394E+02  2.145284774E-03  1.282284088E+01  2.349692547E+02  1.250000000E+02  0.00000E+00  9.000E+00
      25     1     1     2     0     0 -1.943385373E+02  3.137909283E+01 -1.061785351E+02  2.562245029E+02  1.250000000E+02  0.00000E+00  9.000E+00
      21     1     1     2   501   511 -4.209002123E+00 -3.138123812E+01  1.683677294E+02  1.713189718E+02  2.697398305E-06  0.00000E+00  9.000E+00
#rwgt            1           1   2.6633303700631317E-002           1       98160           0
</event>
<event>
      5   9999  3.19816E-02  1.25590E+01 -1.00000E+00  1.84973E-01
      21    -1     0     0   502   512  0.000000000E+00  0.000000000E+00  4.879982658E+02  4.879982658E+02  0.000000000E+00  0.00000E+00  9.000E+00
      21    -1     0     0   501   502  0.000000000E+00  0.000000000E+00 -2.455147439E+02  2.455147439E+02  0.000000000E+00  0.00000E+00  9.000E+00
      25     1     1     2     0     0 -8.449453503E+01  2.078043812E+02  3.395940142E+02  4.257594177E+02  1.250000000E+02  0.00000E+00  9.000E+00
      25     1     1     2     0     0  7.964909383E+01 -1.962177916E+02 -1.259590536E+02  2.762898533E+02  1.250000000E+02  0.00000E+00  9.000E+00
      21     1     1     2   501   512  4.845441201E+00 -1.158658969E+01  2.884856125E+01  3.146373861E+01  0.000000000E+00  0.00000E+00  9.000E+00
#rwgt            1           1   2.8079694564275580E-002           1       98296           0
</event>
<event>
      5   9999  3.19816E-02  3.10226E+01 -1.00000E+00  1.52036E-01
      21    -1     0     0   511   501  0.000000000E+00  0.000000000E+00  3.035802464E+02  3.035802464E+02  0.000000000E+00  0.00000E+00  9.000E+00
      21    -1     0     0   501   502  0.000000000E+00  0.000000000E+00 -1.198224111E+02  1.198224111E+02  0.000000000E+00  0.00000E+00  9.000E+00
      25     1     1     2     0     0 -2.734841402E+01  8.434923391E+01  4.385634359E+01  1.594086192E+02  1.250000000E+02  0.00000E+00  9.000E+00
      25     1     1     2     0     0 -1.962550869E+00 -9.451142366E+01  4.338537594E+01  1.626147338E+02  1.250000000E+02  0.00000E+00  9.000E+00
      21     1     1     2   511   502  2.931096489E+01  1.016218975E+01  9.651611575E+01  1.013793044E+02  1.348699152E-06  0.00000E+00  9.000E+00
#rwgt            1           1   6.3226712062347826E-002           1       98516           0
</event>
<event>
      5   9999  3.19816E-02  1.44966E+02 -1.00000E+00  1.16984E-01
       2    -1     0     0   502     0  0.000000000E+00  0.000000000E+00  2.037783984E+03  2.037783984E+03  0.000000000E+00  0.00000E+00  9.000E+00
      21    -1     0     0   501   502  0.000000000E+00  0.000000000E+00 -1.558773620E+02  1.558773620E+02  0.000000000E+00  0.00000E+00  9.000E+00
      25     1     1     2     0     0 -9.055524958E+01 -8.643444928E+00 -9.178238748E+01  1.797886788E+02  1.250000000E+02  0.00000E+00  9.000E+00
      25     1     1     2     0     0  1.465147621E+02 -1.250864560E+02  1.529034013E+03  1.546183433E+03  1.250000000E+02  0.00000E+00  9.000E+00
       2     1     1     2   501     0 -5.595951256E+01  1.337299009E+02  4.446549969E+02  4.676892341E+02  5.394796609E-06  0.00000E+00  9.000E+00
#rwgt            1           1   3.0327895028743404E-002           1       98596           0
</event>
<event>
      5   9999  3.19816E-02  1.23965E+02 -1.00000E+00  1.19772E-01
      21    -1     0     0   502   501  0.000000000E+00  0.000000000E+00  5.505369485E+02  5.505369485E+02  0.000000000E+00  0.00000E+00  9.000E+00
      21    -1     0     0   511   502  0.000000000E+00  0.000000000E+00 -3.706416723E+02  3.706416723E+02  0.000000000E+00  0.00000E+00  9.000E+00
      25     1     1     2     0     0  3.915894960E+01 -2.997002106E+02 -3.403085832E+00  3.270935960E+02  1.250000000E+02  0.00000E+00  9.000E+00
      25     1     1     2     0     0  2.677471802E+01  4.046764137E+02  1.997258707E+02  4.690365750E+02  1.250000000E+02  0.00000E+00  9.000E+00
      21     1     1     2   511   501 -6.593366762E+01 -1.049762031E+02 -1.642750866E+01  1.250484497E+02  1.168007728E-06  0.00000E+00  9.000E+00
#rwgt            1           1   2.7448327197393763E-002           1       98633           0
</event>
<event>
      5   9999  3.19816E-02  3.28873E+01 -1.00000E+00  1.50319E-01
      21    -1     0     0   502   501  0.000000000E+00  0.000000000E+00  7.834188464E+02  7.834188464E+02  0.000000000E+00  0.00000E+00  9.000E+00
      21    -1     0     0   512   502  0.000000000E+00  0.000000000E+00 -8.603571375E+01  8.603571375E+01  0.000000000E+00  0.00000E+00  9.000E+00
      25     1     1     2     0     0  1.289044428E+02 -3.804865280E+01  7.976278853E+01  2.001278536E+02  1.250000000E+02  0.00000E+00  9.000E+00
      25     1     1     2     0     0 -1.570463101E+02  2.103070243E+01  5.977542240E+02  6.309048631E+02  1.250000000E+02  0.00000E+00  9.000E+00
      21     1     1     2   512   501  2.814186728E+01  1.701795037E+01  1.986612016E+01  3.842184351E+01  5.840038640E-07  0.00000E+00  9.000E+00
#rwgt            1           1   2.7647040910891315E-002           1       98687           0
</event>
<event>
      5   9999  3.19816E-02  4.99738E+01 -1.00000E+00  1.39088E-01
      21    -1     0     0   502   501  0.000000000E+00  0.000000000E+00  1.131650561E+03  1.131650561E+03  0.000000000E+00  0.00000E+00  9.000E+00
      21    -1     0     0   501   511  0.000000000E+00  0.000000000E+00 -8.469151523E+02  8.469151523E+02  0.000000000E+00  0.00000E+00  9.000E+00
      25     1     1     2     0     0  3.313061692E+02  1.239452826E+02  8.211236918E+02  9.027709167E+02  1.250000000E+02  0.00000E+00  9.000E+00
      25     1     1     2     0     0 -3.364969883E+02 -7.424175929E+01  1.438110106E+02  3.937621982E+02  1.250000000E+02  0.00000E+00  9.000E+00
      21     1     1     2   502   511  5.190819131E+00 -4.970352335E+01 -6.801992942E+02  6.820325980E+02  1.078959322E-05  0.00000E+00  9.000E+00
#rwgt            1           1   3.4019517722104403E-002           1       98785           0
</event>
<event>
      5   9999  3.19816E-02  7.84151E+01 -1.00000E+00  1.28772E-01
      21    -1     0     0   512   501  0.000000000E+00  0.000000000E+00  5.285122935E+02  5.285122935E+02  0.000000000E+00  0.00000E+00  9.000E+00
      21    -1     0     0   501   502  0.000000000E+00  0.000000000E+00 -1.025679097E+03  1.025679097E+03  0.000000000E+00  0.00000E+00  9.000E+00
      25     1     1     2     0     0  1.216603052E+02 -8.066802447E+01 -1.498126198E+01  1.927641000E+02  1.250000000E+02  0.00000E+00  9.000E+00
      25     1     1     2     0     0 -4.361523358E+01  7.305915280E+01 -9.120343964E+02  9.244845421E+02  1.250000000E+02  0.00000E+00  9.000E+00
      21     1     1     2   512   502 -7.804507161E+01  7.608871669E+00  4.298488545E+02  4.369427489E+02  0.000000000E+00  0.00000E+00  9.000E+00
#rwgt            1           1   2.7424530507152600E-002           1       98902           0
</event>
<event>
      5   9999  3.19816E-02  3.13372E+02 -1.00000E+00  1.04980E-01
      21    -1     0     0   502   501  0.000000000E+00  0.000000000E+00  9.571945175E+02  9.571945175E+02  0.000000000E+00  0.00000E+00  9.000E+00
      21    -1     0     0   501   511  0.000000000E+00  0.000000000E+00 -7.974532460E+02  7.974532460E+02  0.000000000E+00  0.00000E+00  9.000E+00
      25     1     1     2     0     0 -4.193224878E+02  3.523527346E+02  1.537672934E+02  5.824544436E+02  1.250000000E+02  0.00000E+00  9.000E+00
      25     1     1     2     0     0  1.209215662E+02 -2.566516840E+02  4.993171277E+02  5.877369361E+02  1.250000000E+02  0.00000E+00  9.000E+00
      21     1     1     2   502   511  2.984009216E+02 -9.570105055E+01 -4.933431497E+02  5.844563837E+02  0.000000000E+00  0.00000E+00  9.000E+00
#rwgt            1           1   2.6467633511183725E-002           1       98963           0
</event>
<event>
      5   9999  3.19816E-02  5.70701E+01 -1.00000E+00  1.35876E-01
      21    -1     0     0   502   501  0.000000000E+00  0.000000000E+00  3.788868676E+02  3.788868676E+02  0.000000000E+00  0.00000E+00  9.000E+00
      21    -1     0     0   512   502  0.000000000E+00  0.000000000E+00 -4.492200931E+02  4.492200931E+02  0.000000000E+00  0.00000E+00  9.000E+00
      25     1     1     2     0     0  3.360174658E+02  6.126976282E+01  5.644385552E+01  3.680660674E+02  1.250000000E+02  0.00000E+00  9.000E+00
      25     1     1     2     0     0 -3.433782784E+02 -1.178632010E+02 -1.215098452E+02  4.027282194E+02  1.250000000E+02  0.00000E+00  9.000E+00
      21     1     1     2   512   501  7.360812588E+00  5.659343817E+01 -5.267235804E+00  5.731267381E+01  1.555441421E-06  0.00000E+00  9.000E+00
#rwgt            1           1   2.9883444700194675E-002           1       99047           0
</event>
<event>
      5   9999  3.19816E-02  1.37320E+02 -1.00000E+00  1.17934E-01
      21    -1     0     0   511   501  0.000000000E+00  0.000000000E+00  7.156394488E+02  7.156394488E+02  0.000000000E+00  0.00000E+00  9.000E+00
      21    -1     0     0   501   502  0.000000000E+00  0.000000000E+00 -3.680456632E+02  3.680456632E+02  0.000000000E+00  0.00000E+00  9.000E+00
      25     1     1     2     0     0 -9.027756337E+01  7.687148103E+01 -3.058553311E+02  3.510437959E+02  1.250000000E+02  0.00000E+00  9.000E+00
      25     1     1     2     0     0 -3.279031207E+01 -1.377899326E+02  3.136709272E+02  3.661635163E+02  1.250000000E+02  0.00000E+00  9.000E+00
      21     1     1     2   511   502  1.230678754E+02  6.091845154E+01  3.397781895E+02  3.664777998E+02  7.629394531E-06  0.00000E+00  9.000E+00
#rwgt            1           1   2.8578547425921152E-002           1       99137           0
</event>
<event>
      5   9999  3.19816E-02  6.26419E+01 -1.00000E+00  1.33711E-01
      21    -1     0     0   502   501  0.000000000E+00  0.000000000E+00  4.381623469E+02  4.381623469E+02  0.000000000E+00  0.00000E+00  9.000E+00
      21    -1     0     0   512   502  0.000000000E+00  0.000000000E+00 -1.112362968E+03  1.112362968E+03  0.000000000E+00  0.00000E+00  9.000E+00
      25     1     1     2     0     0 -1.070214123E+02 -5.289758881E+02 -3.413978024E+02  6.507276945E+02  1.250000000E+02  0.00000E+00  9.000E+00
      25     1     1     2     0     0  1.695748144E+02  5.323046071E+02 -1.165206905E+01  5.725946062E+02  1.250000000E+02  0.00000E+00  9.000E+00
      21     1     1     2   512   501 -6.255340210E+01 -3.328718949E+00 -3.211507500E+02  3.272030146E+02  3.814697266E-06  0.00000E+00  9.000E+00
#rwgt            1           1   2.7733583015685095E-002           1       99183           0
</event>
<event>
      5   9999  3.19816E-02  5.28787E+01 -1.00000E+00  1.37702E-01
      21    -1     0     0   511   501  0.000000000E+00  0.000000000E+00  4.248006286E+02  4.248006286E+02  0.000000000E+00  0.00000E+00  9.000E+00
      21    -1     0     0   501   502  0.000000000E+00  0.000000000E+00 -2.376206205E+02  2.376206205E+02  0.000000000E+00  0.00000E+00  9.000E+00
      25     1     1     2     0     0 -3.319639998E+01 -2.206470560E+02  2.513234823E+01  2.569898038E+02  1.250000000E+02  0.00000E+00  9.000E+00
      25     1     1     2     0     0  8.607246511E+01  2.211775113E+02  3.843061335E+01  2.709794693E+02  1.250000000E+02  0.00000E+00  9.000E+00
      21     1     1     2   511   502 -5.287606513E+01 -5.304553000E-01  1.236170465E+02  1.344519759E+02  1.907348633E-06  0.00000E+00  9.000E+00
#rwgt            1           1   2.6613629202113902E-002           1       99267           0
</event>
<event>
      5   9999  3.19816E-02  2.40281E+01 -1.00000E+00  1.60052E-01
      21    -1     0     0   512   501  0.000000000E+00  0.000000000E+00  1.662806001E+02  1.662806001E+02  0.000000000E+00  0.00000E+00  9.000E+00
      21    -1     0     0   501   502  0.000000000E+00  0.000000000E+00 -4.258582232E+02  4.258582232E+02  0.000000000E+00  0.00000E+00  9.000E+00
      25     1     1     2     0     0  7.517829783E+01 -1.977897445E+02 -2.022475568E+02  3.182791758E+02  1.250000000E+02  0.00000E+00  9.000E+00
      25     1     1     2     0     0 -5.121200379E+01  1.960673898E+02 -6.792961680E+01  2.475975031E+02  1.250000000E+02  0.00000E+00  9.000E+00
      21     1     1     2   512   502 -2.396629404E+01  1.722354729E+00  1.059955051E+01  2.626214437E+01  1.192092896E-07  0.00000E+00  9.000E+00
#rwgt            1           1   3.2451303977859426E-002           1       99319           0
</event>
<event>
      5   9999  3.19816E-02  1.23476E+02 -1.00000E+00  1.19844E-01
      21    -1     0     0   502   501  0.000000000E+00  0.000000000E+00  2.108497271E+03  2.108497271E+03  0.000000000E+00  0.00000E+00  9.000E+00
      21    -1     0     0   501   511  0.000000000E+00  0.000000000E+00 -2.781338291E+02  2.781338291E+02  0.000000000E+00  0.00000E+00  9.000E+00
      25     1     1     2     0     0 -3.741670493E+02 -4.257573730E+02  7.606930839E+02  9.568433985E+02  1.250000000E+02  0.00000E+00  9.000E+00
      25     1     1     2     0     0  3.315996436E+02  5.416642806E+02  1.122282408E+03  1.295569882E+03  1.250000000E+02  0.00000E+00  9.000E+00
      21     1     1     2   502   511  4.256740570E+01 -1.159069076E+02 -5.261204988E+01  1.342178194E+02  3.162979880E-06  0.00000E+00  9.000E+00
#rwgt            1           1   2.6578682326383090E-002           1       99506           0
</event>
<event>
      5   9999  3.19816E-02  7.00209E+01 -1.00000E+00  1.31214E-01
      21    -1     0     0   502   512  0.000000000E+00  0.000000000E+00  3.134247495E+02  3.134247495E+02  0.000000000E+00  0.00000E+00  9.000E+00
      21    -1     0     0   501   502  0.000000000E+00  0.000000000E+00 -1.485327421E+03  1.485327421E+03  0.000000000E+00  0.00000E+00  9.000E+00
      25     1     1     2     0     0 -6.656861287E+01  2.893959253E+02  3.716996121E+01  3.243269767E+02  1.250000000E+02  0.00000E+00  9.000E+00
      25     1     1     2     0     0  1.000416332E+02 -2.278939753E+02 -1.316805454E+03  1.345936698E+03  1.250000000E+02  0.00000E+00  9.000E+00
      21     1     1     2   501   512 -3.347302035E+01 -6.150195001E+01  1.077328207E+02  1.284884960E+02  3.568322551E-06  0.00000E+00  9.000E+00
#rwgt            1           1   2.8534640900394814E-002           1       99589           0
</event>
<event>
      5   9999  3.19816E-02  5.05426E+01 -1.00000E+00  1.38809E-01
      21    -1     0     0   502   501  0.000000000E+00  0.000000000E+00  2.642291129E+02  2.642291129E+02  0.000000000E+00  0.00000E+00  9.000E+00
      21    -1     0     0   511   502  0.000000000E+00  0.000000000E+00 -2.126897008E+03  2.126897008E+03  0.000000000E+00  0.00000E+00  9.000E+00
      25     1     1     2     0     0 -1.483273355E+02 -2.726302703E+02  1.242935777E+02  3.569343864E+02  1.250000000E+02  0.00000E+00  9.000E+00
      25     1     1     2     0     0  9.914175962E+01  2.609968136E+02 -9.953938270E+02  1.041336783E+03  1.250000000E+02  0.00000E+00  9.000E+00
      21     1     1     2   511   501  4.918557592E+01  1.163345668E+01 -9.915676455E+02  9.928549511E+02  0.000000000E+00  0.00000E+00  9.000E+00
#rwgt            1           1   2.8802602126486936E-002           1       99705           0
</event>
<event>
      5   9999  3.19816E-02  1.12878E+03 -1.00000E+00  8.97458E-02
       2    -1     0     0   502     0  0.000000000E+00  0.000000000E+00  3.245192054E+03  3.245192054E+03  0.000000000E+00  0.00000E+00  9.000E+00
      21    -1     0     0   501   502  0.000000000E+00  0.000000000E+00 -9.337619666E+02  9.337619666E+02  0.000000000E+00  0.00000E+00  9.000E+00
      25     1     1     2     0     0 -2.049155463E+02 -1.056472276E+03  9.748454815E+01  1.087774006E+03  1.250000000E+02  0.00000E+00  9.000E+00
      25     1     1     2     0     0 -2.921083909E+02  4.300178643E+01 -2.330533983E+02  3.963777897E+02  1.250000000E+02  0.00000E+00  9.000E+00
       2     1     1     2   501     0  4.970239372E+02  1.013470490E+03  2.446998938E+03  2.694802224E+03  3.051757812E-05  0.00000E+00  9.000E+00
#rwgt            2          18   1.2668806400961950E-003           1       99939           0
</event>
<event>
      5   9999  3.19816E-02  6.18775E+01 -1.00000E+00  1.33992E-01
      21    -1     0     0   502   511  0.000000000E+00  0.000000000E+00  3.452928319E+02  3.452928319E+02  0.000000000E+00  0.00000E+00  9.000E+00
      21    -1     0     0   501   502  0.000000000E+00  0.000000000E+00 -1.037121241E+03  1.037121241E+03  0.000000000E+00  0.00000E+00  9.000E+00
      25     1     1     2     0     0 -1.612090660E+02  1.323202610E+02  2.608362162E+02  3.565915677E+02  1.250000000E+02  0.00000E+00  9.000E+00
      25     1     1     2     0     0  1.275460819E+02 -8.040085632E+01 -9.430867700E+02  9.632081584E+02  1.250000000E+02  0.00000E+00  9.000E+00
      21     1     1     2   501   511  3.366298411E+01 -5.191940472E+01 -9.577854982E+00  6.261434653E+01  3.371747881E-07  0.00000E+00  9.000E+00
#rwgt            1           1   2.0839514447261783E-002           1       99958           0
</event>
<event>
      5   9999  3.19816E-02  8.05531E+01 -1.00000E+00  1.28205E-01
      21    -1     0     0   502   501  0.000000000E+00  0.000000000E+00  3.673553308E+02  3.673553308E+02  0.000000000E+00  0.00000E+00  9.000E+00
      21    -1     0     0   512   502  0.000000000E+00  0.000000000E+00 -9.568899863E+02  9.568899863E+02  0.000000000E+00  0.00000E+00  9.000E+00
      25     1     1     2     0     0  1.327621465E+01 -2.419061056E+02 -2.027205114E+02  3.397284615E+02  1.250000000E+02  0.00000E+00  9.000E+00
      25     1     1     2     0     0  1.390375574E+01  3.177351690E+02  1.974908432E+02  3.946854256E+02  1.250000000E+02  0.00000E+00  9.000E+00
      21     1     1     2   512   501 -2.717997039E+01 -7.582906340E+01 -5.843049873E+02  5.898314300E+02  7.629394531E-06  0.00000E+00  9.000E+00
#rwgt            1           1   3.0880427435319636E-002           1      100073           0
</event>
<event>
      5   9999  3.19816E-02  1.29699E+02 -1.00000E+00  1.18953E-01
      21    -1     0     0   511   501  0.000000000E+00  0.000000000E+00  3.457447486E+02  3.457447486E+02  0.000000000E+00  0.00000E+00  9.000E+00
      21    -1     0     0   501   502  0.000000000E+00  0.000000000E+00 -1.562371865E+03  1.562371865E+03  0.000000000E+00  0.00000E+00  9.000E+00
      25     1     1     2     0     0  6.391196008E+01  6.655318477E+02 -6.710624734E+02  9.554931827E+02  1.250000000E+02  0.00000E+00  9.000E+00
      25     1     1     2     0     0  6.143983890E+01 -6.322352821E+02 -4.880258964E+02  8.107345936E+02  1.250000000E+02  0.00000E+00  9.000E+00
      21     1     1     2   511   502 -1.253517990E+02 -3.329656557E+01 -5.753874658E+01  1.418888373E+02  2.023048729E-06  0.00000E+00  9.000E+00
#rwgt            1           1   3.0846295799345058E-002           1      100198           0
</event>
<event>
      5   9999  3.19816E-02  3.97580E+01 -1.00000E+00  1.45004E-01
      21    -1     0     0   502   501  0.000000000E+00  0.000000000E+00  5.785514108E+01  5.785514108E+01  0.000000000E+00  0.00000E+00  9.000E+00
      21    -1     0     0   501   512  0.000000000E+00  0.000000000E+00 -2.243673734E+03  2.243673734E+03  0.000000000E+00  0.00000E+00  9.000E+00
      25     1     1     2     0     0  2.210945238E+02 -2.213012366E+02 -1.239125231E+03  1.284100216E+03  1.250000000E+02  0.00000E+00  9.000E+00
      25     1     1     2     0     0 -2.384329405E+02  1.855230814E+02 -7.740463940E+02  8.402629950E+02  1.250000000E+02  0.00000E+00  9.000E+00
      21     1     1     2   502   512  1.733841661E+01  3.577815523E+01 -1.726469680E+02  1.771656644E+02  2.697398305E-06  0.00000E+00  9.000E+00
#rwgt            1           1   2.3301968774336136E-002           1      100245           0
</event>
<event>
      5   9999  3.19816E-02  1.26896E+02 -1.00000E+00  1.19347E-01
      21    -1     0     0   502   501  0.000000000E+00  0.000000000E+00  2.449175230E+03  2.449175230E+03  0.000000000E+00  0.00000E+00  9.000E+00
      21    -1     0     0   501   511  0.000000000E+00  0.000000000E+00 -5.486811432E+01  5.486811432E+01  0.000000000E+00  0.00000E+00  9.000E+00
      25     1     1     2     0     0  1.846916622E+02 -1.852220872E+02  1.516657275E+03  1.544115450E+03  1.250000000E+02  0.00000E+00  9.000E+00
      25     1     1     2     0     0 -1.495243043E+02  6.329686033E+01  7.591021072E+02  7.862728657E+02  1.250000000E+02  0.00000E+00  9.000E+00
      21     1     1     2   502   511 -3.516735789E+01  1.219252269E+02  1.185477333E+02  1.736550290E+02  3.814697266E-06  0.00000E+00  9.000E+00
#rwgt            1           1   5.7436185001714657E-002           1      100321           0
</event>
<event>
      5   9999  3.19816E-02  1.77740E+02 -1.00000E+00  1.13546E-01
      21    -1     0     0   502   512  0.000000000E+00  0.000000000E+00  1.162261444E+03  1.162261444E+03  0.000000000E+00  0.00000E+00  9.000E+00
      21    -1     0     0   501   502  0.000000000E+00  0.000000000E+00 -9.721973612E+02  9.721973612E+02  0.000000000E+00  0.00000E+00  9.000E+00
      25     1     1     2     0     0 -7.385686260E+02 -2.447194500E+02  2.930189850E+02  8.407474949E+02  1.250000000E+02  0.00000E+00  9.000E+00
      25     1     1     2     0     0  5.699201073E+02  1.886030301E+02 -5.430436219E+02  8.190857140E+02  1.250000000E+02  0.00000E+00  9.000E+00
      21     1     1     2   501   512  1.686485188E+02  5.611641995E+01  4.400887200E+02  4.746255966E+02  7.629394531E-06  0.00000E+00  9.000E+00
#rwgt            1           1   3.0034970815478002E-002           1      100389           0
</event>
<event>
      5   9999  3.19816E-02  5.66546E+01 -1.00000E+00  1.36048E-01
      21    -1     0     0   502   501  0.000000000E+00  0.000000000E+00  1.570832939E+02  1.570832939E+02  0.000000000E+00  0.00000E+00  9.000E+00
      21    -1     0     0   501   511  0.000000000E+00  0.000000000E+00 -4.264985759E+02  4.264985759E+02  0.000000000E+00  0.00000E+00  9.000E+00
      25     1     1     2     0     0 -1.805973426E+02 -7.698175274E+00 -1.061154125E+02  2.440494680E+02  1.250000000E+02  0.00000E+00  9.000E+00
      25     1     1     2     0     0  1.246706356E+02 -1.354260100E+00 -1.083465848E+01  1.768812913E+02  1.250000000E+02  0.00000E+00  9.000E+00
      21     1     1     2   502   511  5.592670702E+01  9.052435374E+00 -1.524652110E+02  1.626511104E+02  1.907348633E-06  0.00000E+00  9.000E+00
#rwgt            1           1   2.6331507164847667E-002           1      100441           0
</event>
<event>
      5   9999  3.19816E-02  4.68969E+01 -1.00000E+00  1.40682E-01
      21    -1     0     0   512   501  0.000000000E+00  0.000000000E+00  7.325290426E+02  7.325290426E+02  0.000000000E+00  0.00000E+00  9.000E+00
      21    -1     0     0   501   502  0.000000000E+00  0.000000000E+00 -4.801529538E+02  4.801529538E+02  0.000000000E+00  0.00000E+00  9.000E+00
      25     1     1     2     0     0  4.479289416E+02  1.337632667E+02  2.857294018E+02  5.619601759E+02  1.250000000E+02  0.00000E+00  9.000E+00
      25     1     1     2     0     0 -4.055853287E+02 -1.136055123E+02 -1.962630742E+02  4.811962859E+02  1.250000000E+02  0.00000E+00  9.000E+00
      21     1     1     2   512   502 -4.234361291E+01 -2.015775440E+01  1.629097611E+02  1.695255346E+02  1.907348633E-06  0.00000E+00  9.000E+00
#rwgt            1           1   3.4555951427168337E-002           1      100516           0
</event>
<event>
      5   9999  3.19816E-02  4.52614E+02 -1.00000E+00  1.00096E-01
      21    -1     0     0   511   501  0.000000000E+00  0.000000000E+00  1.019173407E+03  1.019173407E+03  0.000000000E+00  0.00000E+00  9.000E+00
      21    -1     0     0   501   502  0.000000000E+00  0.000000000E+00 -1.670724009E+03  1.670724009E+03  0.000000000E+00  0.00000E+00  9.000E+00
      25     1     1     2     0     0  4.476046053E+02 -2.375203364E+01 -1.387742356E+03  1.463682988E+03  1.250000000E+02  0.00000E+00  9.000E+00
      25     1     1     2     0     0 -8.161670030E+01  2.900462284E+02 -3.902805947E+01  3.285365883E+02  1.250000000E+02  0.00000E+00  9.000E+00
      21     1     1     2   511   502 -3.659879050E+02 -2.662941948E+02  7.752198135E+02  8.976778397E+02  1.525878906E-05  0.00000E+00  9.000E+00
#rwgt            2          11   4.5076224152663987E-003           1      101041           0
</event>
<event>
      5   9999  3.19816E-02  1.07872E+02 -1.00000E+00  1.22366E-01
      21    -1     0     0   502   501  0.000000000E+00  0.000000000E+00  1.225286218E+02  1.225286218E+02  0.000000000E+00  0.00000E+00  9.000E+00
       2    -1     0     0   501     0  0.000000000E+00  0.000000000E+00 -1.531035709E+03  1.531035709E+03  0.000000000E+00  0.00000E+00  9.000E+00
      25     1     1     2     0     0  1.160924729E+02  1.535893061E+02 -1.101988987E+02  2.546290135E+02  1.250000000E+02  0.00000E+00  9.000E+00
      25     1     1     2     0     0 -1.685260455E+02 -2.478609328E+02 -5.192132791E+02  6.124079516E+02  1.250000000E+02  0.00000E+00  9.000E+00
       2     1     1     2   502     0  5.243357258E+01  9.427162670E+01 -7.790949096E+02  7.865273659E+02  0.000000000E+00  0.00000E+00  9.000E+00
#rwgt            1           1   3.4174230537953390E-002           1      101091           0
</event>
<event>
      5   9999  3.19816E-02  9.08862E+01 -1.00000E+00  1.25724E-01
      21    -1     0     0   502   511  0.000000000E+00  0.000000000E+00  2.150654984E+02  2.150654984E+02  0.000000000E+00  0.00000E+00  9.000E+00
      21    -1     0     0   501   502  0.000000000E+00  0.000000000E+00 -2.270157569E+03  2.270157569E+03  0.000000000E+00  0.00000E+00  9.000E+00
      25     1     1     2     0     0 -2.911471728E+02 -1.934109560E+02 -1.108807332E+03  1.169296016E+03  1.250000000E+02  0.00000E+00  9.000E+00
      25     1     1     2     0     0  2.159678705E+02  1.423387272E+02 -1.100251165E+03  1.137136782E+03  1.250000000E+02  0.00000E+00  9.000E+00
      21     1     1     2   501   511  7.517930221E+01  5.107222881E+01  1.539664263E+02  1.787902694E+02  4.264961200E-06  0.00000E+00  9.000E+00
#rwgt            1           1   8.7738025394577743E-002           1      101190           0
</event>
<event>
      5   9999  3.19816E-02  3.67189E+01 -1.00000E+00  1.47184E-01
      21    -1     0     0   502   512  0.000000000E+00  0.000000000E+00  8.735215087E+02  8.735215087E+02  0.000000000E+00  0.00000E+00  9.000E+00
      21    -1     0     0   501   502  0.000000000E+00  0.000000000E+00 -7.322332519E+02  7.322332519E+02  0.000000000E+00  0.00000E+00  9.000E+00
      25     1     1     2     0     0 -4.982303126E+02 -5.217503580E+02  2.984193333E+02  7.906554110E+02  1.250000000E+02  0.00000E+00  9.000E+00
      25     1     1     2     0     0  4.617282769E+02  5.177654953E+02 -2.232927343E+02  7.394313728E+02  1.250000000E+02  0.00000E+00  9.000E+00
      21     1     1     2   501   512  3.650203572E+01  3.984862720E+00  6.616165791E+01  7.566797684E+01  9.536743164E-07  0.00000E+00  9.000E+00
#rwgt            1           1   2.9480892721818471E-002           1      101314           0
</event>
<event>
      5   9999  3.19816E-02  7.60013E+01 -1.00000E+00  1.29437E-01
      21    -1     0     0   502   501  0.000000000E+00  0.000000000E+00  6.741568565E+02  6.741568565E+02  0.000000000E+00  0.00000E+00  9.000E+00
      21    -1     0     0   501   511  0.000000000E+00  0.000000000E+00 -1.147232301E+03  1.147232301E+03  0.000000000E+00  0.00000E+00  9.000E+00
      25     1     1     2     0     0  5.842261296E+02  7.309786624E+01  6.975782456E+01  6.059328532E+02  1.250000000E+02  0.00000E+00  9.000E+00
      25     1     1     2     0     0 -5.082489565E+02 -7.501138656E+01  1.249959553E+02  5.433163892E+02  1.250000000E+02  0.00000E+00  9.000E+00
      21     1     1     2   502   511 -7.597717306E+01  1.913520321E+00 -6.678292240E+02  6.721399146E+02  7.629394531E-06  0.00000E+00  9.000E+00
#rwgt            1           1   2.7935481242202694E-002           1      101518           0
</event>
<event>
      5   9999  3.19816E-02  3.70274E+02 -1.00000E+00  1.02705E-01
      21    -1     0     0   502   501  0.000000000E+00  0.000000000E+00  1.089479329E+03  1.089479329E+03  0.000000000E+00  0.00000E+00  9.000E+00
       1    -1     0     0   501     0  0.000000000E+00  0.000000000E+00 -7.249590726E+02  7.249590726E+02  0.000000000E+00  0.00000E+00  9.000E+00
      25     1     1     2     0     0  2.505108591E+02 -1.078778765E+02  6.192976706E+02  6.881481901E+02  1.250000000E+02  0.00000E+00  9.000E+00
      25     1     1     2     0     0 -5.954586560E+01 -2.093531065E+02 -5.809429767E+02  6.328460915E+02  1.250000000E+02  0.00000E+00  9.000E+00
       1     1     1     2   502     0 -1.909649935E+02  3.172309830E+02  3.261655622E+02  4.934441196E+02  3.814697266E-06  0.00000E+00  9.000E+00
#rwgt            2          12   6.1157849737798663E-005           1      101658           0
</event>
<event>
      5   9999  3.19816E-02  3.84224E+01 -1.00000E+00  1.45932E-01
      21    -1     0     0   511   501  0.000000000E+00  0.000000000E+00  1.719699544E+02  1.719699544E+02  0.000000000E+00  0.00000E+00  9.000E+00
      21    -1     0     0   501   502  0.000000000E+00  0.000000000E+00 -3.190755085E+02  3.190755085E+02  0.000000000E+00  0.00000E+00  9.000E+00
      25     1     1     2     0     0  6.438028100E+01 -1.225466226E+01 -2.494868991E+02  2.866421290E+02  1.250000000E+02  0.00000E+00  9.000E+00
      25     1     1     2     0     0 -3.390273428E+01  3.565125102E+01  9.680216268E+01  1.655779750E+02  1.250000000E+02  0.00000E+00  9.000E+00
      21     1     1     2   511   502 -3.047754673E+01 -2.339658876E+01  5.579182359E+00  3.882535893E+01  5.161913656E-07  0.00000E+00  9.000E+00
#rwgt            1           1   2.9416182905858332E-002           1      101722           0
</event>
<event>
      5   9999  3.19816E-02  2.65614E+01 -1.00000E+00  1.56805E-01
      21    -1     0     0   502   501  0.000000000E+00  0.000000000E+00  4.672068666E+02  4.672068666E+02  0.000000000E+00  0.00000E+00  9.000E+00
      21    -1     0     0   501   512  0.000000000E+00  0.000000000E+00 -2.338878125E+02  2.338878125E+02  0.000000000E+00  0.00000E+00  9.000E+00
      25     1     1     2     0     0  5.721989591E+01  1.976852897E+02 -1.031018242E+02  2.619323890E+02  1.250000000E+02  0.00000E+00  9.000E+00
      25     1     1     2     0     0 -3.200544222E+01 -1.893344315E+02  3.423501330E+02  4.119471918E+02  1.250000000E+02  0.00000E+00  9.000E+00
      21     1     1     2   502   512 -2.521445370E+01 -8.350858279E+00 -5.929254672E+00  2.721509820E+01  2.920019320E-07  0.00000E+00  9.000E+00
#rwgt            1           1   2.9031995338068547E-002           1      101844           0
</event>
<event>
      5   9999  3.19816E-02  3.45408E+02 -1.00000E+00  1.03641E-01
      21    -1     0     0   502   501  0.000000000E+00  0.000000000E+00  5.603523392E+02  5.603523392E+02  0.000000000E+00  0.00000E+00  9.000E+00
      21    -1     0     0   501   511  0.000000000E+00  0.000000000E+00 -1.157511071E+03  1.157511071E+03  0.000000000E+00  0.00000E+00  9.000E+00
      25     1     1     2     0     0 -5.197773670E+02 -1.926660170E+01 -6.331860455E+01  5.386779733E+02  1.250000000E+02  0.00000E+00  9.000E+00
      25     1     1     2     0     0  6.149873770E+02 -3.127602421E+02 -3.036704457E+02  7.641133309E+02  1.250000000E+02  0.00000E+00  9.000E+00
      21     1     1     2   502   511 -9.521000995E+01  3.320268438E+02 -2.301696817E+02  4.150721063E+02  0.000000000E+00  0.00000E+00  9.000E+00
#rwgt            2          11   3.5148160340039629E-003           1      101987           0
</event>
<event>
      5   9999  3.19816E-02  7.97598E+01 -1.00000E+00  1.28413E-01
      21    -1     0     0   502   501  0.000000000E+00  0.000000000E+00  7.446271971E+02  7.446271971E+02  0.000000000E+00  0.00000E+00  9.000E+00
       2    -1     0     0   501     0  0.000000000E+00  0.000000000E+00 -1.242264066E+03  1.242264066E+03  0.000000000E+00  0.00000E+00  9.000E+00
      25     1     1     2     0     0  4.360357882E+02 -6.676626683E+01 -1.732329330E+02  4.901220175E+02  1.250000000E+02  0.00000E+00  9.000E+00
      25     1     1     2     0     0 -3.939657116E+02  1.345285887E+02  5.034243323E+02  6.651074962E+02  1.250000000E+02  0.00000E+00  9.000E+00
       2     1     1     2   502     0 -4.207007663E+01 -6.776232191E+01 -8.278282685E+02  8.316617496E+02  1.525878906E-05  0.00000E+00  9.000E+00
#rwgt            1           1   2.9394284810941421E-002           1      102007           0
</event>
<event>
      5   9999  3.19816E-02  7.45061E+01 -1.00000E+00  1.29863E-01
      21    -1     0     0   502   501  0.000000000E+00  0.000000000E+00  1.581566779E+03  1.581566779E+03  0.000000000E+00  0.00000E+00  9.000E+00
      21    -1     0     0   511   502  0.000000000E+00  0.000000000E+00 -1.048032924E+02  1.048032924E+02  0.000000000E+00  0.00000E+00  9.000E+00
      25     1     1     2     0     0 -9.496883481E+01  7.662014222E+01  2.737234280E+01  1.768162066E+02  1.250000000E+02  0.00000E+00  9.000E+00
      25     1     1     2     0     0  2.307579156E+01 -9.617899196E+01  1.420857940E+03  1.429771022E+03  1.250000000E+02  0.00000E+00  9.000E+00
      21     1     1     2   511   501  7.189304325E+01  1.955884974E+01  2.853320435E+01  7.978284290E+01  1.651812370E-06  0.00000E+00  9.000E+00
#rwgt            1           1   2.8296899953787244E-002           1      102107           0
</event>
<event>
      5   9999  3.19816E-02  7.11114E+01 -1.00000E+00  1.30875E-01
      21    -1     0     0   502   512  0.000000000E+00  0.000000000E+00  7.560798085E+02  7.560798085E+02  0.000000000E+00  0.00000E+00  9.000E+00
      21    -1     0     0   501   502  0.000000000E+00  0.000000000E+00 -1.572847925E+03  1.572847925E+03  0.000000000E+00  0.00000E+00  9.000E+00
      25     1     1     2     0     0 -2.908575776E+02 -1.031888939E+03 -3.348300096E+02  1.130101344E+03  1.250000000E+02  0.00000E+00  9.000E+00
      25     1     1     2     0     0  2.454270225E+02  9.771815211E+02 -4.898950302E+02  1.127271169E+03  1.250000000E+02  0.00000E+00  9.000E+00
      21     1     1     2   501   512  4.543055508E+01  5.470741743E+01  7.956923815E+00  7.155521989E+01  2.230201594E-07  0.00000E+00  9.000E+00
#rwgt            1           1   3.4054270509102653E-002           1      102213           0
</event>
<event>
      5   9999  3.19816E-02  1.01680E+02 -1.00000E+00  1.23503E-01
      21    -1     0     0   502   511  0.000000000E+00  0.000000000E+00  9.279885088E+02  9.279885088E+02  0.000000000E+00  0.00000E+00  9.000E+00
      21    -1     0     0   501   502  0.000000000E+00  0.000000000E+00 -1.560401107E+02  1.560401107E+02  0.000000000E+00  0.00000E+00  9.000E+00
      25     1     1     2     0     0  2.773951727E+01  1.300871158E+02  2.289514068E+02  2.928069077E+02  1.250000000E+02  0.00000E+00  9.000E+00
      25     1     1     2     0     0 -8.154935306E+01 -4.381217148E+01 -6.948188763E+01  1.703600190E+02  1.250000000E+02  0.00000E+00  9.000E+00
      21     1     1     2   501   511  5.380983579E+01 -8.627494432E+01  6.124788790E+02  6.208616929E+02  7.629394531E-06  0.00000E+00  9.000E+00
#rwgt            1           1   2.8675743009325065E-002           1      102351           0
</event>
<event>
      5   9999  3.19816E-02  2.27418E+01 -1.00000E+00  1.61893E-01
      21    -1     0     0   502   501  0.000000000E+00  0.000000000E+00  1.307232062E+03  1.307232062E+03  0.000000000E+00  0.00000E+00  9.000E+00
      21    -1     0     0   501   512  0.000000000E+00  0.000000000E+00 -4.877745483E+01  4.877745483E+01  0.000000000E+00  0.00000E+00  9.000E+00
      25     1     1     2     0     0  1.133127179E+02 -9.085620892E+01  6.970538196E+02  7.229133075E+02  1.250000000E+02  0.00000E+00  9.000E+00
      25     1     1     2     0     0 -1.051358061E+02  1.120770986E+02  5.739144987E+02  6.071389178E+02  1.250000000E+02  0.00000E+00  9.000E+00
      21     1     1     2   502   512 -8.176911813E+00 -2.122088972E+01 -1.251371070E+01  2.595729190E+01  1.316709640E-06  0.00000E+00  9.000E+00
#rwgt            1           1   3.2065028129751628E-002           1      102387           0
</event>
<event>
      5   9999  3.19816E-02  2.53381E+01 -1.00000E+00  1.58315E-01
      21    -1     0     0   502   511  0.000000000E+00  0.000000000E+00  2.834649702E+02  2.834649702E+02  0.000000000E+00  0.00000E+00  9.000E+00
      21    -1     0     0   501   502  0.000000000E+00  0.000000000E+00 -4.588859138E+02  4.588859138E+02  0.000000000E+00  0.00000E+00  9.000E+00
      25     1     1     2     0     0 -2.240133001E+02  2.099194227E+02 -1.247750502E+02  3.541778307E+02  1.250000000E+02  0.00000E+00  9.000E+00
      25     1     1     2     0     0  2.493245451E+02 -2.110849905E+02 -6.946724660E+01  3.566094507E+02  1.250000000E+02  0.00000E+00  9.000E+00
      21     1     1     2   501   511 -2.531124503E+01  1.165567842E+00  1.882135319E+01  3.156360260E+01  2.384185791E-07  0.00000E+00  9.000E+00
#rwgt            1           1   2.6095940173139088E-002           1      102535           0
</event>
<event>
      5   9999  3.19816E-02  8.76128E+01 -1.00000E+00  1.26467E-01
      21    -1     0     0   512   501  0.000000000E+00  0.000000000E+00  4.518169489E+02  4.518169489E+02  0.000000000E+00  0.00000E+00  9.000E+00
      21    -1     0     0   501   502  0.000000000E+00  0.000000000E+00 -4.470250132E+02  4.470250132E+02  0.000000000E+00  0.00000E+00  9.000E+00
      25     1     1     2     0     0  1.732294701E+02  1.183030181E+02 -2.667835785E+01  2.456436203E+02  1.250000000E+02  0.00000E+00  9.000E+00
      25     1     1     2     0     0 -9.227618371E+01 -8.479816973E+01 -2.791060480E+02  3.305008467E+02  1.250000000E+02  0.00000E+00  9.000E+00
      21     1     1     2   512   502 -8.095328642E+01 -3.350484839E+01  3.105763414E+02  3.226974951E+02  0.000000000E+00  0.00000E+00  9.000E+00
#rwgt            1           1   2.7461643057008961E-002           1      102614           0
</event>
<event>
      5   9999  3.19816E-02  5.76345E+01 -1.00000E+00  1.35644E-01
      21    -1     0     0   502   501  0.000000000E+00  0.000000000E+00  2.890233708E+02  2.890233708E+02  0.000000000E+00  0.00000E+00  9.000E+00
      21    -1     0     0   511   502  0.000000000E+00  0.000000000E+00 -1.071008665E+03  1.071008665E+03  0.000000000E+00  0.00000E+00  9.000E+00
      25     1     1     2     0     0  1.984297298E+02  3.152511697E+02  3.903460883E+01  3.948497921E+02  1.250000000E+02  0.00000E+00  9.000E+00
      25     1     1     2     0     0 -2.112966426E+02 -3.714310871E+02 -7.629901728E+02  8.833947744E+02  1.250000000E+02  0.00000E+00  9.000E+00
      21     1     1     2   511   501  1.286691278E+01  5.617991740E+01 -5.802973068E+01  8.178746974E+01  6.743495762E-07  0.00000E+00  9.000E+00
#rwgt            1           1   3.0497039626325415E-002           1      102648           0
</event>
<event>
      5   9999  3.19816E-02  5.99901E+01 -1.00000E+00  1.34707E-01
      21    -1     0     0   502   501  0.000000000E+00  0.000000000E+00  5.483488811E+02  5.483488811E+02  0.000000000E+00  0.00000E+00  9.000E+00
       2    -1     0     0   501     0  0.000000000E+00  0.000000000E+00 -8.568585559E+02  8.568585559E+02  0.000000000E+00  0.00000E+00  9.000E+00
      25     1     1     2     0     0  6.891623861E+01  1.419697991E+02 -1.767652723E+02  2.679101216E+02  1.250000000E+02  0.00000E+00  9.000E+00
      25     1     1     2     0     0 -2.937213017E+01 -9.685800636E+01  4.884288003E+02  5.142294122E+02  1.250000000E+02  0.00000E+00  9.000E+00
       2     1     1     2   502     0 -3.954410844E+01 -4.511179274E+01 -6.201732028E+02  6.230679031E+02  7.629394531E-06  0.00000E+00  9.000E+00
#rwgt            1           1   2.8569021767697707E-002           1      102734           0
</event>
<event>
      5   9999  3.19816E-02  5.62539E+01 -1.00000E+00  1.36217E-01
      21    -1     0     0   502   501  0.000000000E+00  0.000000000E+00  4.840282454E+02  4.840282454E+02  0.000000000E+00  0.00000E+00  9.000E+00
      21    -1     0     0   501   511  0.000000000E+00  0.000000000E+00 -2.830854566E+02  2.830854566E+02  0.000000000E+00  0.00000E+00  9.000E+00
      25     1     1     2     0     0 -9.438869761E+00 -3.509753864E+01 -7.060737823E+00  1.303678776E+02  1.250000000E+02  0.00000E+00  9.000E+00
      25     1     1     2     0     0 -9.979298468E+00 -1.769868805E+01  4.089313015E+02  4.280918585E+02  1.250000000E+02  0.00000E+00  9.000E+00
      21     1     1     2   502   511  1.941816823E+01  5.279622669E+01 -2.009277749E+02  2.086539660E+02  3.814697266E-06  0.00000E+00  9.000E+00
#rwgt            1           1   2.9710552969059237E-002           1      102860           0
</event>
<event>
      5   9999  3.19816E-02  7.31641E+01 -1.00000E+00  1.30256E-01
      21    -1     0     0   502   501  0.000000000E+00  0.000000000E+00  3.103345423E+02  3.103345423E+02  0.000000000E+00  0.00000E+00  9.000E+00
      21    -1     0     0   512   502  0.000000000E+00  0.000000000E+00 -1.233727146E+03  1.233727146E+03  0.000000000E+00  0.00000E+00  9.000E+00
      25     1     1     2     0     0 -7.348780330E+01  3.609640437E+02  8.424079912E+01  3.980163443E+02  1.250000000E+02  0.00000E+00  9.000E+00
      25     1     1     2     0     0  7.791587216E+00 -3.931664396E+02 -5.777033484E+02  7.099343046E+02  1.250000000E+02  0.00000E+00  9.000E+00
      21     1     1     2   512   501  6.569621608E+01  3.220239588E+01 -4.299300546E+02  4.361110397E+02  0.000000000E+00  0.00000E+00  9.000E+00
#rwgt            1           1   1.8038519502229979E-002           1      102900           0
</event>
<event>
      5   9999  3.19816E-02  8.35568E+01 -1.00000E+00  1.27442E-01
      -2    -1     0     0     0   501  0.000000000E+00  0.000000000E+00  8.045291028E+02  8.045291028E+02  0.000000000E+00  0.00000E+00  9.000E+00
      21    -1     0     0   501   502  0.000000000E+00  0.000000000E+00 -1.073864437E+02  1.073864437E+02  0.000000000E+00  0.00000E+00  9.000E+00
      25     1     1     2     0     0  7.265105400E+01 -2.165608707E+02  1.736412414E+02  3.129745470E+02  1.250000000E+02  0.00000E+00  9.000E+00
      25     1     1     2     0     0 -1.267333733E+01  1.583852074E+02  3.147077197E+02  3.740487084E+02  1.250000000E+02  0.00000E+00  9.000E+00
      -2     1     1     2     0   502 -5.997771667E+01  5.817566322E+01  2.087936980E+02  2.248922911E+02  2.697398305E-06  0.00000E+00  9.000E+00
#rwgt            2           4   2.5218172276380212E-005           1      103115           0
</event>
<event>
      5   9999  3.19816E-02  3.33314E+01 -1.00000E+00  1.49930E-01
      21    -1     0     0   502   501  0.000000000E+00  0.000000000E+00  7.085731086E+02  7.085731086E+02  0.000000000E+00  0.00000E+00  9.000E+00
      21    -1     0     0   501   511  0.000000000E+00  0.000000000E+00 -6.884684217E+02  6.884684217E+02  0.000000000E+00  0.00000E+00  9.000E+00
      25     1     1     2     0     0  5.462806874E+02  9.284891823E+01  3.512520024E+02  6.678671127E+02  1.250000000E+02  0.00000E+00  9.000E+00
      25     1     1     2     0     0 -5.751322936E+02 -1.095393045E+02 -2.641662514E+02  6.543583290E+02  1.250000000E+02  0.00000E+00  9.000E+00
      21     1     1     2   502   511  2.885160616E+01  1.669038624E+01 -6.698106404E+01  7.481608858E+01  0.000000000E+00  0.00000E+00  9.000E+00
#rwgt            1           1   2.1701683247551416E-002           1      103134           0
</event>
<event>
      5   9999  3.19816E-02  5.10342E+01 -1.00000E+00  1.38570E-01
       2    -1     0     0   502     0  0.000000000E+00  0.000000000E+00  3.671653454E+03  3.671653454E+03  0.000000000E+00  0.00000E+00  9.000E+00
      21    -1     0     0   501   502  0.000000000E+00  0.000000000E+00 -6.410180888E+02  6.410180888E+02  0.000000000E+00  0.00000E+00  9.000E+00
      25     1     1     2     0     0 -5.980829920E+02 -8.253411888E+02  9.724007870E+01  1.031490173E+03  1.250000000E+02  0.00000E+00  9.000E+00
      25     1     1     2     0     0  5.513849525E+02  8.047551285E+02  1.220158848E+03  1.567184991E+03  1.250000000E+02  0.00000E+00  9.000E+00
       2     1     1     2   501     0  4.669803952E+01  2.058606030E+01  1.713236438E+03  1.713996379E+03  2.157918644E-05  0.00000E+00  9.000E+00
#rwgt            1           1   2.3606157270920417E-002           1      103230           0
</event>
<event>
      5   9999  3.19816E-02  6.26050E+02 -1.00000E+00  9.61551E-02
      21    -1     0     0   511   501  0.000000000E+00  0.000000000E+00  1.130352239E+03  1.130352239E+03  0.000000000E+00  0.00000E+00  9.000E+00
      21    -1     0     0   501   502  0.000000000E+00  0.000000000E+00 -6.773252618E+02  6.773252618E+02  0.000000000E+00  0.00000E+00  9.000E+00
      25     1     1     2     0     0  1.437688133E+02 -2.057114072E+02 -3.699102635E+01  2.828073386E+02  1.250000000E+02  0.00000E+00  9.000E+00
      25     1     1     2     0     0  3.609459475E+02  5.761187047E+02 -5.688416692E+01  6.935816803E+02  1.250000000E+02  0.00000E+00  9.000E+00
      21     1     1     2   511   502 -5.047147608E+02 -3.704072975E+02  5.469021704E+02  8.312884817E+02  0.000000000E+00  0.00000E+00  9.000E+00
#rwgt            2          11   1.8771961382431051E-003           1      103414           0
</event>
<event>
      5   9999  3.19816E-02  7.99726E+01 -1.00000E+00  1.28357E-01
      21    -1     0     0   502   501  0.000000000E+00  0.000000000E+00  1.610987049E+02  1.610987049E+02  0.000000000E+00  0.00000E+00  9.000E+00
       1    -1     0     0   501     0  0.000000000E+00  0.000000000E+00 -2.454321247E+03  2.454321247E+03  0.000000000E+00  0.00000E+00  9.000E+00
      25     1     1     2     0     0 -3.995332661E+02  1.454244837E+01 -4.062097782E+02  5.834978127E+02  1.250000000E+02  0.00000E+00  9.000E+00
      25     1     1     2     0     0  4.491858912E+02 -7.723397250E+01 -7.143527725E+02  8.565383441E+02  1.250000000E+02  0.00000E+00  9.000E+00
       1     1     1     2   502     0 -4.965262513E+01  6.269152413E+01 -1.172659991E+03  1.175383795E+03  0.000000000E+00  0.00000E+00  9.000E+00
#rwgt            2          12   3.3392112920326163E-004           1      103494           0
</event>
<event>
      5   9999  3.19816E-02  5.95522E+01 -1.00000E+00  1.34878E-01
      21    -1     0     0   502   511  0.000000000E+00  0.000000000E+00  2.719601836E+02  2.719601836E+02  0.000000000E+00  0.00000E+00  9.000E+00
      21    -1     0     0   501   502  0.000000000E+00  0.000000000E+00 -6.579510112E+02  6.579510112E+02  0.000000000E+00  0.00000E+00  9.000E+00
      25     1     1     2     0     0 -2.875352706E+01 -2.825480711E+02 -4.427424370E+02  5.406533485E+02  1.250000000E+02  0.00000E+00  9.000E+00
      25     1     1     2     0     0  8.776332141E+01  2.745291376E+02  8.183418823E+01  3.246390031E+02  1.250000000E+02  0.00000E+00  9.000E+00
      21     1     1     2   501   511 -5.900979435E+01  8.018933467E+00 -2.508257882E+01  6.461884310E+01  6.743495762E-07  0.00000E+00  9.000E+00
#rwgt            1           1   2.8811372779634310E-002           1      103513           0
</event>
<event>
      5   9999  3.19816E-02  2.84700E+01 -1.00000E+00  1.54636E-01
      21    -1     0     0   502   501  0.000000000E+00  0.000000000E+00  3.880909807E+01  3.880909807E+01  0.000000000E+00  0.00000E+00  9.000E+00
      21    -1     0     0   501   512  0.000000000E+00  0.000000000E+00 -1.318919388E+03  1.318919388E+03  0.000000000E+00  0.00000E+00  9.000E+00
      25     1     1     2     0     0 -6.084350135E+01  1.166751894E+01 -9.992076658E+02  1.008899907E+03  1.250000000E+02  0.00000E+00  9.000E+00
      25     1     1     2     0     0  8.761030487E+01 -2.136693701E+01 -1.507495652E+02  2.155981051E+02  1.250000000E+02  0.00000E+00  9.000E+00
      21     1     1     2   502   512 -2.676680353E+01  9.699418068E+00 -1.301530592E+02  1.332304744E+02  1.907348633E-06  0.00000E+00  9.000E+00
#rwgt            1           1   1.9157606718815678E-002           1      103611           0
</event>
<event>
      5   9999  3.19816E-02  2.75121E+02 -1.00000E+00  1.06828E-01
       1    -1     0     0   502     0  0.000000000E+00  0.000000000E+00  1.216345115E+03  1.216345115E+03  0.000000000E+00  0.00000E+00  9.000E+00
      21    -1     0     0   501   502  0.000000000E+00  0.000000000E+00 -2.647242030E+02  2.647242030E+02  0.000000000E+00  0.00000E+00  9.000E+00
      25     1     1     2     0     0 -7.976904788E+01 -1.820646460E+02 -3.801083890E+01  2.378664756E+02  1.250000000E+02  0.00000E+00  9.000E+00
      25     1     1     2     0     0 -1.467254576E+02  3.382436983E+02  8.494807742E+02  9.344408729E+02  1.250000000E+02  0.00000E+00  9.000E+00
       1     1     1     2   501     0  2.264945055E+02 -1.561790523E+02  1.401509765E+02  3.087619691E+02  6.607249480E-06  0.00000E+00  9.000E+00
#rwgt            2          17   2.4011460938020175E-004           1      103963           0
</event>
<event>
      5   9999  3.19816E-02  7.36864E+00 -1.00000E+00  2.12451E-01
      21    -1     0     0   502   501  0.000000000E+00  0.000000000E+00  1.206709740E+03  1.206709740E+03  0.000000000E+00  0.00000E+00  9.000E+00
      21    -1     0     0   511   502  0.000000000E+00  0.000000000E+00 -3.514599373E+02  3.514599373E+02  0.000000000E+00  0.00000E+00  9.000E+00
      25     1     1     2     0     0 -1.783273156E+02 -5.886182229E+02  6.347719853E+02  8.926547581E+02  1.250000000E+02  0.00000E+00  9.000E+00
      25     1     1     2     0     0  1.777540692E+02  5.812719097E+02  2.177559541E+02  6.576596367E+02  1.250000000E+02  0.00000E+00  9.000E+00
      21     1     1     2   511   501  5.732463248E-01  7.346313197E+00  2.721863670E+00  7.855282984E+00  9.424321831E-08  0.00000E+00  9.000E+00
#rwgt            1           1   3.1587645965487972E-002           1      103982           0
</event>
<event>
      5   9999  3.19816E-02  2.01438E+01 -1.00000E+00  1.66113E-01
      21    -1     0     0   502   501  0.000000000E+00  0.000000000E+00  4.069910022E+02  4.069910022E+02  0.000000000E+00  0.00000E+00  9.000E+00
       2    -1     0     0   501     0  0.000000000E+00  0.000000000E+00 -1.294486926E+03  1.294486926E+03  0.000000000E+00  0.00000E+00  9.000E+00
      25     1     1     2     0     0  2.391804482E+00  2.238517166E+02  3.189751810E+02  4.092498966E+02  1.250000000E+02  0.00000E+00  9.000E+00
      25     1     1     2     0     0  1.040518563E+01 -2.394083408E+02 -3.843848765E+02  4.698950466E+02  1.250000000E+02  0.00000E+00  9.000E+00
       2     1     1     2   502     0 -1.279699011E+01  1.555662420E+01 -8.220862284E+02  8.223329852E+02  1.078959322E-05  0.00000E+00  9.000E+00
#rwgt            1           1   2.8903572342950330E-002           1      104511           0
</event>
<event>
      5   9999  3.19816E-02  1.46688E+01 -1.00000E+00  1.78302E-01
      21    -1     0     0   502   501  0.000000000E+00  0.000000000E+00  2.035414098E+03  2.035414098E+03  0.000000000E+00  0.00000E+00  9.000E+00
      21    -1     0     0   511   502  0.000000000E+00  0.000000000E+00 -6.260927876E+01  6.260927876E+01  0.000000000E+00  0.00000E+00  9.000E+00
      25     1     1     2     0     0  2.609642268E+02  1.021182945E+02  7.583042708E+02  8.180347430E+02  1.250000000E+02  0.00000E+00  9.000E+00
      25     1     1     2     0     0 -2.706647539E+02 -1.131215796E+02  1.222415147E+03  1.263320899E+03  1.250000000E+02  0.00000E+00  9.000E+00
      21     1     1     2   511   501  9.700527074E+00  1.100328509E+01 -7.914598970E+00  1.666773485E+01  1.174075341E-06  0.00000E+00  9.000E+00
#rwgt            1           1   2.7705042422897848E-002           1      104670           0
</event>
<event>
      5   9999  3.19816E-02  7.68469E+01 -1.00000E+00  1.29200E-01
      21    -1     0     0   502   501  0.000000000E+00  0.000000000E+00  1.054411736E+02  1.054411736E+02  0.000000000E+00  0.00000E+00  9.000E+00
      21    -1     0     0   501   512  0.000000000E+00  0.000000000E+00 -1.555138759E+03  1.555138759E+03  0.000000000E+00  0.00000E+00  9.000E+00
      25     1     1     2     0     0 -1.700185453E+02 -9.382887748E+01 -1.060483666E+02  2.541287470E+02  1.250000000E+02  0.00000E+00  9.000E+00
      25     1     1     2     0     0  2.465867960E+02  1.003670050E+02 -7.150978595E+02  7.732195886E+02  1.250000000E+02  0.00000E+00  9.000E+00
      21     1     1     2   502   512 -7.656825072E+01 -6.538127555E+00 -6.285513591E+02  6.332315967E+02  7.629394531E-06  0.00000E+00  9.000E+00
#rwgt            1           1   2.9804417463865456E-002           1      104885           0
</event>
<event>
      5   9999  3.19816E-02  2.58649E+02 -1.00000E+00  1.07728E-01
      21    -1     0     0   502   501  0.000000000E+00  0.000000000E+00  1.716409938E+03  1.716409938E+03  0.000000000E+00  0.00000E+00  9.000E+00
      21    -1     0     0   501   511  0.000000000E+00  0.000000000E+00 -3.068187050E+02  3.068187050E+02  0.000000000E+00  0.00000E+00  9.000E+00
      25     1     1     2     0     0  3.735691268E+02  7.594497609E+01  1.170509481E+03  1.237351598E+03  1.250000000E+02  0.00000E+00  9.000E+00
      25     1     1     2     0     0 -4.404884386E+02  1.738974177E+02  1.480917632E+02  5.116898931E+02  1.250000000E+02  0.00000E+00  9.000E+00
      21     1     1     2   502   511  6.691931182E+01 -2.498423938E+02  9.098998813E+01  2.741871513E+02  3.568322551E-06  0.00000E+00  9.000E+00
#rwgt            1           1   3.3718341439453299E-002           1      104953           0
</event>
<event>
      5   9999  3.19816E-02  2.09415E+02 -1.00000E+00  1.10926E-01
      21    -1     0     0   502   512  0.000000000E+00  0.000000000E+00  2.317255695E+02  2.317255695E+02  0.000000000E+00  0.00000E+00  9.000E+00
      21    -1     0     0   501   502  0.000000000E+00  0.000000000E+00 -1.001003557E+03  1.001003557E+03  0.000000000E+00  0.00000E+00  9.000E+00
      25     1     1     2     0     0 -8.487693446E+01  6.755047650E+01 -8.191067049E+02  8.356601910E+02  1.250000000E+02  0.00000E+00  9.000E+00
      25     1     1     2     0     0 -1.240242729E+02 -5.288299624E+01  3.473678820E+01  1.871103311E+02  1.250000000E+02  0.00000E+00  9.000E+00
      21     1     1     2   501   512  2.089012073E+02 -1.466748027E+01  1.509192879E+01  2.099586048E+02  2.198110689E-06  0.00000E+00  9.000E+00
#rwgt            1           1   2.4643977161994537E-002           1      104983           0
</event>
<event>
      5   9999  3.19816E-02  9.95872E+01 -1.00000E+00  1.23909E-01
      21    -1     0     0   502   501  0.000000000E+00  0.000000000E+00  2.189899733E+02  2.189899733E+02  0.000000000E+00  0.00000E+00  9.000E+00
      21    -1     0     0   511   502  0.000000000E+00  0.000000000E+00 -1.369622883E+03  1.369622883E+03  0.000000000E+00  0.00000E+00  9.000E+00
      25     1     1     2     0     0 -4.168774563E+02  4.004889674E+01 -2.337706123E+02  4.956454649E+02  1.250000000E+02  0.00000E+00  9.000E+00
      25     1     1     2     0     0  3.200447536E+02 -1.678856420E+01 -2.668405339E+02  4.353611957E+02  1.250000000E+02  0.00000E+00  9.000E+00
      21     1     1     2   511   501  9.683270273E+01 -2.326033254E+01 -6.500217632E+02  6.576061953E+02  7.629394531E-06  0.00000E+00  9.000E+00
#rwgt            1           1   2.7515373040162903E-002           1      105044           0
</event>
<event>
      5   9999  3.19816E-02  4.63405E+02 -1.00000E+00  9.97989E-02
      21    -1     0     0   502   501  0.000000000E+00  0.000000000E+00  6.919087278E+02  6.919087278E+02  0.000000000E+00  0.00000E+00  9.000E+00
      21    -1     0     0   512   502  0.000000000E+00  0.000000000E+00 -1.508187790E+03  1.508187790E+03  0.000000000E+00  0.00000E+00  9.000E+00
      25     1     1     2     0     0  3.682517700E+01 -2.030896994E+02 -7.312725256E+01  2.521390781E+02  1.250000000E+02  0.00000E+00  9.000E+00
      25     1     1     2     0     0  4.254511370E+02  2.354096697E+02  4.461013279E+02  6.716083511E+02  1.250000000E+02  0.00000E+00  9.000E+00
      21     1     1     2   512   501 -4.622763140E+02 -3.231997036E+01 -1.189253138E+03  1.276349089E+03  1.525878906E-05  0.00000E+00  9.000E+00
#rwgt            2          11   2.8907148725001207E-003           1      105171           0
</event>
<event>
      5   9999  3.19816E-02  8.45028E+01 -1.00000E+00  1.27209E-01
      21    -1     0     0   502   501  0.000000000E+00  0.000000000E+00  2.930848228E+02  2.930848228E+02  0.000000000E+00  0.00000E+00  9.000E+00
      21    -1     0     0   511   502  0.000000000E+00  0.000000000E+00 -3.346063823E+02  3.346063823E+02  0.000000000E+00  0.00000E+00  9.000E+00
      25     1     1     2     0     0 -9.734042240E+01  2.016370754E+02 -7.588159887E+01  2.674241669E+02  1.250000000E+02  0.00000E+00  9.000E+00
      25     1     1     2     0     0  1.727920333E+02 -1.635874574E+02  5.244855613E+01  2.738499480E+02  1.250000000E+02  0.00000E+00  9.000E+00
      21     1     1     2   511   501 -7.545161094E+01 -3.804961797E+01 -1.808851675E+01  8.641709009E+01  4.768371582E-07  0.00000E+00  9.000E+00
#rwgt            2          11   3.2584796926250332E-003           1      105221           0
</event>
<event>
      5   9999  3.19816E-02  1.62754E+01 -1.00000E+00  1.74109E-01
       1    -1     0     0   502     0  0.000000000E+00  0.000000000E+00  1.284204099E+03  1.284204099E+03  0.000000000E+00  0.00000E+00  9.000E+00
      21    -1     0     0   501   502  0.000000000E+00  0.000000000E+00 -8.802508653E+02  8.802508653E+02  0.000000000E+00  0.00000E+00  9.000E+00
      25     1     1     2     0     0 -4.809286107E+02 -2.749727371E+02 -1.358295791E+02  5.839323671E+02  1.250000000E+02  0.00000E+00  9.000E+00
      25     1     1     2     0     0  4.660657688E+02  2.683405396E+02 -3.738191976E+02  6.667756283E+02  1.250000000E+02  0.00000E+00  9.000E+00
       1     1     1     2   501     0  1.486284198E+01  6.632197486E+00  9.136020099E+02  9.137469686E+02  1.078959322E-05  0.00000E+00  9.000E+00
#rwgt            1           1   1.9974566986890808E-002           1      105241           0
</event>
<event>
      5   9999  3.19816E-02  6.81128E+01 -1.00000E+00  1.31825E-01
      21    -1     0     0   502   501  0.000000000E+00  0.000000000E+00  4.222738152E+02  4.222738152E+02  0.000000000E+00  0.00000E+00  9.000E+00
      -1    -1     0     0     0   502  0.000000000E+00  0.000000000E+00 -1.079857339E+03  1.079857339E+03  0.000000000E+00  0.00000E+00  9.000E+00
      25     1     1     2     0     0  1.064962508E+01 -8.658537082E+01 -1.511282888E+02  2.146513467E+02  1.250000000E+02  0.00000E+00  9.000E+00
      25     1     1     2     0     0  5.691865717E+01  9.518099012E+01  3.712556102E+02  4.071300560E+02  1.250000000E+02  0.00000E+00  9.000E+00
      -1     1     1     2     0   501 -6.756828225E+01 -8.595619303E+00 -8.777108447E+02  8.803497512E+02  1.868812365E-05  0.00000E+00  9.000E+00
#rwgt            1           1   2.7826561542296215E-002           1      105459           0
</event>
<event>
      5   9999  3.19816E-02  2.11744E+02 -1.00000E+00  1.10753E-01
      21    -1     0     0   511   501  0.000000000E+00  0.000000000E+00  2.483743334E+02  2.483743334E+02  0.000000000E+00  0.00000E+00  9.000E+00
      21    -1     0     0   501   502  0.000000000E+00  0.000000000E+00 -2.295506591E+03  2.295506591E+03  0.000000000E+00  0.00000E+00  9.000E+00
      25     1     1     2     0     0  2.200959210E+01  5.455977714E+02 -1.198646756E+03  1.323079890E+03  1.250000000E+02  0.00000E+00  9.000E+00
      25     1     1     2     0     0 -2.219502932E+02 -6.153058826E+02 -6.491640248E+02  9.300011790E+02  1.250000000E+02  0.00000E+00  9.000E+00
      21     1     1     2   511   502  1.999407011E+02  6.970811127E+01 -1.993214773E+02  2.907998557E+02  2.697398305E-06  0.00000E+00  9.000E+00
#rwgt            1           1   3.4843743434551905E-002           1      105508           0
</event>
<event>
      5   9999  3.19816E-02  3.04141E+02 -1.00000E+00  1.05399E-01
      21    -1     0     0   502   501  0.000000000E+00  0.000000000E+00  4.897461807E+02  4.897461807E+02  0.000000000E+00  0.00000E+00  9.000E+00
      21    -1     0     0   501   512  0.000000000E+00  0.000000000E+00 -1.266299088E+03  1.266299088E+03  0.000000000E+00  0.00000E+00  9.000E+00
      25     1     1     2     0     0 -1.090111278E+02 -3.679578970E+02  2.302971327E+02  4.646915206E+02  1.250000000E+02  0.00000E+00  9.000E+00
      25     1     1     2     0     0 -1.842156938E+02  4.487024533E+02 -5.665608289E+02  7.562311064E+02  1.250000000E+02  0.00000E+00  9.000E+00
      21     1     1     2   502   512  2.932268216E+02 -8.074455628E+01 -4.402892115E+02  5.351226420E+02  7.629394531E-06  0.00000E+00  9.000E+00
#rwgt            1           1   3.5869037712142691E-002           1      105568           0
</event>
<event>
      5   9999  3.19816E-02  5.11226E+02 -1.00000E+00  9.85788E-02
      21    -1     0     0   502   501  0.000000000E+00  0.000000000E+00  7.109865787E+02  7.109865787E+02  0.000000000E+00  0.00000E+00  9.000E+00
      -4    -1     0     0     0   502  0.000000000E+00  0.000000000E+00 -8.185484045E+02  8.185484045E+02  0.000000000E+00  0.00000E+00  9.000E+00
      25     1     1     2     0     0 -5.432799644E+02 -2.497005582E+02  2.511528474E+02  6.604591140E+02  1.250000000E+02  0.00000E+00  9.000E+00
      25     1     1     2     0     0  1.843740310E+02 -1.143580501E+02 -2.343223738E+02  3.429336988E+02  1.250000000E+02  0.00000E+00  9.000E+00
      -4     1     1     2     0   501  3.589059334E+02  3.640586083E+02 -1.243922995E+02  5.261421704E+02  4.264961200E-06  0.00000E+00  9.000E+00
#rwgt            2           7   1.9696313224894161E-005           1      105627           0
</event>
<event>
      5   9999  3.19816E-02  1.06330E+02 -1.00000E+00  1.22641E-01
      21    -1     0     0   511   501  0.000000000E+00  0.000000000E+00  2.520357543E+02  2.520357543E+02  0.000000000E+00  0.00000E+00  9.000E+00
      21    -1     0     0   501   502  0.000000000E+00  0.000000000E+00 -2.281284459E+02  2.281284459E+02  0.000000000E+00  0.00000E+00  9.000E+00
      25     1     1     2     0     0  2.126908084E+01  1.641983039E+02 -3.111512859E+01  2.097775203E+02  1.250000000E+02  0.00000E+00  9.000E+00
      25     1     1     2     0     0 -7.052548594E+00 -5.882328071E+01 -2.067319849E+01  1.398652849E+02  1.250000000E+02  0.00000E+00  9.000E+00
      21     1     1     2   511   502 -1.421653224E+01 -1.053750232E+02  7.569563544E+01  1.305213949E+02  1.907348633E-06  0.00000E+00  9.000E+00
#rwgt            1           1   2.6264127704467510E-002           1      105691           0
</event>
<event>
      5   9999  3.19816E-02  3.13366E+01 -1.00000E+00  1.51736E-01
      21    -1     0     0   502   512  0.000000000E+00  0.000000000E+00  2.780566897E+02  2.780566897E+02  0.000000000E+00  0.00000E+00  9.000E+00
      21    -1     0     0   501   502  0.000000000E+00  0.000000000E+00 -6.305483540E+02  6.305483540E+02  0.000000000E+00  0.00000E+00  9.000E+00
      25     1     1     2     0     0  2.687132473E+02 -1.576195624E+02 -5.164259570E+01  3.396213972E+02  1.250000000E+02  0.00000E+00  9.000E+00
      25     1     1     2     0     0 -2.999878322E+02  1.595905103E+02 -3.545891979E+02  5.067744367E+02  1.250000000E+02  0.00000E+00  9.000E+00
      21     1     1     2   501   512  3.127458490E+01 -1.970947883E+00  5.374012924E+01  6.220920982E+01  1.168007728E-06  0.00000E+00  9.000E+00
#rwgt            1           1   3.1329443643165630E-002           1      105727           0
</event>
<event>
      5   9999  3.19816E-02  7.01818E+01 -1.00000E+00  1.31164E-01
      21    -1     0     0   511   501  0.000000000E+00  0.000000000E+00  1.240398538E+03  1.240398538E+03  0.000000000E+00  0.00000E+00  9.000E+00
      21    -1     0     0   501   502  0.000000000E+00  0.000000000E+00 -1.561848034E+02  1.561848034E+02  0.000000000E+00  0.00000E+00  9.000E+00
      25     1     1     2     0     0 -2.076247039E+02 -1.519353522E+02  1.607348558E+02  3.281052618E+02  1.250000000E+02  0.00000E+00  9.000E+00
      25     1     1     2     0     0  2.752261612E+02  1.330797872E+02  3.164694646E+02  4.574249573E+02  1.250000000E+02  0.00000E+00  9.000E+00
      21     1     1     2   511   502 -6.760145729E+01  1.885556499E+01  6.070094145E+02  6.110531226E+02  0.000000000E+00  0.00000E+00  9.000E+00
#rwgt            1           1   2.7620116765398765E-002           1      105879           0
</event>
<event>
      5   9999  3.19816E-02  1.84065E+02 -1.00000E+00  1.12977E-01
      21    -1     0     0   502   512  0.000000000E+00  0.000000000E+00  6.627379065E+02  6.627379065E+02  0.000000000E+00  0.00000E+00  9.000E+00
      21    -1     0     0   501   502  0.000000000E+00  0.000000000E+00 -3.274149921E+02  3.274149921E+02  0.000000000E+00  0.00000E+00  9.000E+00
      25     1     1     2     0     0  4.576000671E+01 -2.733951853E+01 -1.841579175E+02  2.288680102E+02  1.250000000E+02  0.00000E+00  9.000E+00
      25     1     1     2     0     0  1.383399304E+01 -1.468108956E+02 -1.704600270E+01  1.940628368E+02  1.250000000E+02  0.00000E+00  9.000E+00
      21     1     1     2   501   512 -5.959399975E+01  1.741504141E+02  5.365268347E+02  5.672220516E+02  7.629394531E-06  0.00000E+00  9.000E+00
#rwgt            1           1   2.5960703761174309E-002           1      105955           0
</event>
<event>
      5   9999  3.19816E-02  2.21532E+01 -1.00000E+00  1.62787E-01
      21    -1     0     0   502   501  0.000000000E+00  0.000000000E+00  2.857023689E+02  2.857023689E+02  0.000000000E+00  0.00000E+00  9.000E+00
      21    -1     0     0   501   511  0.000000000E+00  0.000000000E+00 -9.721875310E+02  9.721875310E+02  0.000000000E+00  0.00000E+00  9.000E+00
      25     1     1     2     0     0  2.717418985E+02  2.368547781E+02  5.690263708E+01  3.857547866E+02  1.250000000E+02  0.00000E+00  9.000E+00
      25     1     1     2     0     0 -2.938909400E+02 -2.372860139E+02 -5.574024145E+02  6.848350084E+02  1.250000000E+02  0.00000E+00  9.000E+00
      21     1     1     2   502   511  2.214904158E+01  4.312357490E-01 -1.859853847E+02  1.873001050E+02  0.000000000E+00  0.00000E+00  9.000E+00
#rwgt            1           1   2.6966949120213145E-002           1      106022           0
</event>
<event>
      5   9999  3.19816E-02  1.47768E+02 -1.00000E+00  1.16652E-01
      21    -1     0     0   502   501  0.000000000E+00  0.000000000E+00  2.065410787E+03  2.065410787E+03  0.000000000E+00  0.00000E+00  9.000E+00
      21    -1     0     0   512   502  0.000000000E+00  0.000000000E+00 -1.253060752E+02  1.253060752E+02  0.000000000E+00  0.00000E+00  9.000E+00
      25     1     1     2     0     0 -2.088324114E+02  1.528074871E+02  1.464755633E+03  1.492680531E+03  1.250000000E+02  0.00000E+00  9.000E+00
      25     1     1     2     0     0  3.155872057E+02 -5.063649987E+01  2.351671962E+02  4.160383993E+02  1.250000000E+02  0.00000E+00  9.000E+00
      21     1     1     2   512   501 -1.067547943E+02 -1.021709872E+02  2.401818829E+02  2.819979319E+02  3.814697266E-06  0.00000E+00  9.000E+00
#rwgt            1           1   2.7592252068398618E-002           1      106200           0
</event>
<event>
      5   9999  3.19816E-02  1.37426E+02 -1.00000E+00  1.17921E-01
      21    -1     0     0   502   511  0.000000000E+00  0.000000000E+00  7.908775859E+02  7.908775859E+02  0.000000000E+00  0.00000E+00  9.000E+00
      21    -1     0     0   501   502  0.000000000E+00  0.000000000E+00 -1.317918329E+02  1.317918329E+02  0.000000000E+00  0.00000E+00  9.000E+00
      25     1     1     2     0     0 -1.049984047E+02  1.488719420E+02  2.209518703E+02  3.124615961E+02  1.250000000E+02  0.00000E+00  9.000E+00
      25     1     1     2     0     0 -3.156279502E+00 -2.336562159E+02  1.883811476E+02  3.251425012E+02  1.250000000E+02  0.00000E+00  9.000E+00
      21     1     1     2   501   511  1.081546842E+02  8.478427395E+01  2.497527352E+02  2.850653215E+02  4.672030912E-06  0.00000E+00  9.000E+00
#rwgt            1           1   2.6425887228964735E-002           1      106267           0
</event>
<event>
      5   9999  3.19816E-02  4.11876E+01 -1.00000E+00  1.44056E-01
      21    -1     0     0   512   501  0.000000000E+00  0.000000000E+00  1.154863877E+03  1.154863877E+03  0.000000000E+00  0.00000E+00  9.000E+00
      21    -1     0     0   501   502  0.000000000E+00  0.000000000E+00 -9.322777074E+01  9.322777074E+01  0.000000000E+00  0.00000E+00  9.000E+00
      25     1     1     2     0     0  1.420926260E+01 -5.745089196E+01  1.778768989E+02  2.253168864E+02  1.250000000E+02  0.00000E+00  9.000E+00
      25     1     1     2     0     0 -5.535144252E+01  5.938479738E+01  1.144298536E+01  1.494867160E+02  1.250000000E+02  0.00000E+00  9.000E+00
      21     1     1     2   512   502  4.114217992E+01 -1.933905419E+00  8.723162224E+02  8.732880457E+02  1.525878906E-05  0.00000E+00  9.000E+00
#rwgt            1           1   2.5451024652625585E-002           1      106343           0
</event>
<event>
      5   9999  3.19816E-02  1.83069E+02 -1.00000E+00  1.13065E-01
      21    -1     0     0   502   501  0.000000000E+00  0.000000000E+00  3.910612705E+02  3.910612705E+02  0.000000000E+00  0.00000E+00  9.000E+00
      21    -1     0     0   511   502  0.000000000E+00  0.000000000E+00 -1.480730718E+03  1.480730718E+03  0.000000000E+00  0.00000E+00  9.000E+00
      25     1     1     2     0     0  1.567994893E+02  5.646220250E+01  3.063022600E+02  3.704323618E+02  1.250000000E+02  0.00000E+00  9.000E+00
      25     1     1     2     0     0 -1.985569615E+02  1.217809534E+02 -1.216864932E+03  1.245247257E+03  1.250000000E+02  0.00000E+00  9.000E+00
      21     1     1     2   511   501  4.175747219E+01 -1.782431559E+02 -1.791067758E+02  2.561123703E+02  4.672030912E-06  0.00000E+00  9.000E+00
#rwgt            1           1   3.0729831962013510E-002           1      106452           0
</event>
<event>
      5   9999  3.19816E-02  1.28859E+02 -1.00000E+00  1.19070E-01
       2    -1     0     0   502     0  0.000000000E+00  0.000000000E+00  2.475636649E+03  2.475636649E+03  0.000000000E+00  0.00000E+00  9.000E+00
      21    -1     0     0   501   502  0.000000000E+00  0.000000000E+00 -1.687738712E+03  1.687738712E+03  0.000000000E+00  0.00000E+00  9.000E+00
      25     1     1     2     0     0 -1.798569364E+02  5.122404863E+02 -8.256210622E+02  9.959989817E+02  1.250000000E+02  0.00000E+00  9.000E+00
      25     1     1     2     0     0  2.432040235E+02 -6.244531631E+02 -6.251826076E+02  9.249693199E+02  1.250000000E+02  0.00000E+00  9.000E+00
       2     1     1     2   501     0 -6.334708709E+01  1.122126768E+02  2.238701606E+03  2.242407059E+03  4.315837288E-05  0.00000E+00  9.000E+00
#rwgt            1           1   2.9747261600593180E-002           1      106531           0
</event>
<event>
      5   9999  3.19816E-02  2.36641E+01 -1.00000E+00  1.60558E-01
      21    -1     0     0   502   501  0.000000000E+00  0.000000000E+00  8.754268412E+01  8.754268412E+01  0.000000000E+00  0.00000E+00  9.000E+00
      21    -1     0     0   511   502  0.000000000E+00  0.000000000E+00 -1.509869546E+03  1.509869546E+03  0.000000000E+00  0.00000E+00  9.000E+00
      25     1     1     2     0     0 -3.925763622E+00  1.204665023E+02 -1.351243304E+03  1.362354967E+03  1.250000000E+02  0.00000E+00  9.000E+00
      25     1     1     2     0     0 -1.958712982E+01 -1.231369559E+02 -1.865668911E+01  1.775371443E+02  1.250000000E+02  0.00000E+00  9.000E+00
      21     1     1     2   511   501  2.351289344E+01  2.670453646E+00 -5.242686838E+01  5.752011830E+01  9.536743164E-07  0.00000E+00  9.000E+00
#rwgt            1           1   3.0477646921077278E-002           1      106678           0
</event>
<event>
      5   9999  3.19816E-02  6.46275E+01 -1.00000E+00  1.33001E-01
      21    -1     0     0   502   501  0.000000000E+00  0.000000000E+00  1.301270397E+03  1.301270397E+03  0.000000000E+00  0.00000E+00  9.000E+00
      21    -1     0     0   512   502  0.000000000E+00  0.000000000E+00 -3.764234475E+02  3.764234475E+02  0.000000000E+00  0.00000E+00  9.000E+00
      25     1     1     2     0     0  5.282101160E+02  2.021314867E+01  6.841909284E+02  8.735884182E+02  1.250000000E+02  0.00000E+00  9.000E+00
      25     1     1     2     0     0 -5.874287711E+02  5.668674246E+00  3.365447406E+02  6.884708109E+02  1.250000000E+02  0.00000E+00  9.000E+00
      21     1     1     2   512   501  5.921865517E+01 -2.588182292E+01 -9.588871917E+01  1.156346157E+02  1.907348633E-06  0.00000E+00  9.000E+00
#rwgt            1           1   3.0107983849819619E-002           1      106805           0
</event>
<event>
      5   9999  3.19816E-02  3.21000E+02 -1.00000E+00  1.04646E-01
      21    -1     0     0   502   501  0.000000000E+00  0.000000000E+00  7.551109482E+02  7.551109482E+02  0.000000000E+00  0.00000E+00  9.000E+00
      21    -1     0     0   511   502  0.000000000E+00  0.000000000E+00 -4.423267729E+02  4.423267729E+02  0.000000000E+00  0.00000E+00  9.000E+00
      25     1     1     2     0     0 -3.158723641E+02 -2.305235354E+02  3.300097839E+02  5.267332421E+02  1.250000000E+02  0.00000E+00  9.000E+00
      25     1     1     2     0     0  6.838167091E+01  2.609947847E+01  2.256733050E+02  2.681616607E+02  1.250000000E+02  0.00000E+00  9.000E+00
      21     1     1     2   511   501  2.474906932E+02  2.044240570E+02 -2.428989136E+02  4.025428183E+02  0.000000000E+00  0.00000E+00  9.000E+00
#rwgt            1           1   2.6598856918454893E-002           1      106898           0
</event>
<event>
      5   9999  3.19816E-02  2.16611E+01 -1.00000E+00  1.63560E-01
      21    -1     0     0   502   501  0.000000000E+00  0.000000000E+00  1.809777213E+03  1.809777213E+03  0.000000000E+00  0.00000E+00  9.000E+00
       2    -1     0     0   501     0  0.000000000E+00  0.000000000E+00 -1.074110607E+03  1.074110607E+03  0.000000000E+00  0.00000E+00  9.000E+00
      25     1     1     2     0     0  3.233238466E+02  7.394630310E+02  6.332629949E+02  1.033436454E+03  1.250000000E+02  0.00000E+00  9.000E+00
      25     1     1     2     0     0 -3.448775550E+02 -7.416176437E+02  8.009572986E+02  1.151561918E+03  1.250000000E+02  0.00000E+00  9.000E+00
       2     1     1     2   502     0  2.155370842E+01  2.154612713E+00 -6.985536883E+02  6.988894477E+02  0.000000000E+00  0.00000E+00  9.000E+00
#rwgt            1           1   3.0580499970310673E-002           1      106953           0
</event>
<event>
      5   9999  3.19816E-02  1.21974E+01 -1.00000E+00  1.86286E-01
      21    -1     0     0   511   501  0.000000000E+00  0.000000000E+00  7.098750166E+02  7.098750166E+02  0.000000000E+00  0.00000E+00  9.000E+00
      21    -1     0     0   501   502  0.000000000E+00  0.000000000E+00 -3.152147004E+02  3.152147004E+02  0.000000000E+00  0.00000E+00  9.000E+00
      25     1     1     2     0     0 -4.186690388E+02 -1.221172169E+02  2.940474961E+02  5.406341726E+02  1.250000000E+02  0.00000E+00  9.000E+00
      25     1     1     2     0     0  4.186507419E+02  1.343146185E+02  8.547641859E+01  4.650162132E+02  1.250000000E+02  0.00000E+00  9.000E+00
      21     1     1     2   511   502  1.829687551E-02 -1.219740162E+01  1.513640153E+01  1.943933107E+01  2.384185791E-07  0.00000E+00  9.000E+00
#rwgt            1           1   3.0091617363877360E-002           1      107174           0
</event>
<event>
      5   9999  3.19816E-02  1.75754E+02 -1.00000E+00  1.13730E-01
       1    -1     0     0   502     0  0.000000000E+00  0.000000000E+00  1.041647267E+02  1.041647267E+02  0.000000000E+00  0.00000E+00  9.000E+00
      21    -1     0     0   501   502  0.000000000E+00  0.000000000E+00 -1.956330719E+03  1.956330719E+03  0.000000000E+00  0.00000E+00  9.000E+00
      25     1     1     2     0     0 -2.761820553E+02 -1.489205609E+02 -1.091578513E+03  1.142638399E+03  1.250000000E+02  0.00000E+00  9.000E+00
      25     1     1     2     0     0  2.066813005E+02 -1.250741796E+01 -1.549708246E+02  2.872534629E+02  1.250000000E+02  0.00000E+00  9.000E+00
       1     1     1     2   501     0  6.950075485E+01  1.614279789E+02 -6.056166545E+02  6.306035835E+02  7.629394531E-06  0.00000E+00  9.000E+00
#rwgt            1           1   2.9024128401827186E-002           1      107447           0
</event>
<event>
      5   9999  3.19816E-02  3.06019E+02 -1.00000E+00  1.05312E-01
      21    -1     0     0   502   501  0.000000000E+00  0.000000000E+00  4.066915413E+02  4.066915413E+02  0.000000000E+00  0.00000E+00  9.000E+00
      21    -1     0     0   511   502  0.000000000E+00  0.000000000E+00 -1.109946663E+03  1.109946663E+03  0.000000000E+00  0.00000E+00  9.000E+00
      25     1     1     2     0     0 -9.785155672E+01  4.048068218E+02  5.718760271E+01  4.385646042E+02  1.250000000E+02  0.00000E+00  9.000E+00
      25     1     1     2     0     0  2.717145086E+02 -1.529754860E+02 -1.005297538E+02  3.506586729E+02  1.250000000E+02  0.00000E+00  9.000E+00
      21     1     1     2   511   501 -1.738629519E+02 -2.518313358E+02 -6.599129710E+02  7.274149277E+02  1.525878906E-05  0.00000E+00  9.000E+00
#rwgt            2          11   2.5858653742447573E-003           1      107521           0
</event>
<event>
      5   9999  3.19816E-02  7.36395E+01 -1.00000E+00  1.30115E-01
      21    -1     0     0   502   501  0.000000000E+00  0.000000000E+00  1.976109773E+02  1.976109773E+02  0.000000000E+00  0.00000E+00  9.000E+00
       2    -1     0     0   501     0  0.000000000E+00  0.000000000E+00 -7.740613925E+02  7.740613925E+02  0.000000000E+00  0.00000E+00  9.000E+00
      25     1     1     2     0     0  8.381540865E-01 -6.254024752E+01 -5.051566527E+02  5.241376048E+02  1.250000000E+02  0.00000E+00  9.000E+00
      25     1     1     2     0     0 -6.521700785E+01  2.678910114E+01  1.540044460E+02  2.105072052E+02  1.250000000E+02  0.00000E+00  9.000E+00
       2     1     1     2   502     0  6.437885376E+01  3.575114637E+01 -2.252982086E+02  2.370275598E+02  2.697398305E-06  0.00000E+00  9.000E+00
#rwgt            1           1   3.0778984577755533E-002           1      107541           0
</event>
<event>
      5   9999  3.19816E-02  2.42067E+02 -1.00000E+00  1.08711E-01
      21    -1     0     0   502   501  0.000000000E+00  0.000000000E+00  8.641416681E+02  8.641416681E+02  0.000000000E+00  0.00000E+00  9.000E+00
      21    -1     0     0   511   502  0.000000000E+00  0.000000000E+00 -3.158313879E+02  3.158313879E+02  0.000000000E+00  0.00000E+00  9.000E+00
      25     1     1     2     0     0 -1.988297653E+01 -9.939399806E+01  8.153672262E+01  1.804099131E+02  1.250000000E+02  0.00000E+00  9.000E+00
      25     1     1     2     0     0 -2.218148155E+02  8.602892757E+01  6.451391782E+02  6.988793515E+02  1.250000000E+02  0.00000E+00  9.000E+00
      21     1     1     2   511   501  2.416977920E+02  1.336507049E+01 -1.783656206E+02  3.006837913E+02  3.814697266E-06  0.00000E+00  9.000E+00
#rwgt            1           1   2.8941050501584877E-002           1      107641           0
</event>
<event>
      5   9999  3.19816E-02  2.14191E+02 -1.00000E+00  1.10575E-01
      21    -1     0     0   502   501  0.000000000E+00  0.000000000E+00  2.357635533E+02  2.357635533E+02  0.000000000E+00  0.00000E+00  9.000E+00
      21    -1     0     0   501   512  0.000000000E+00  0.000000000E+00 -2.024657204E+03  2.024657204E+03  0.000000000E+00  0.00000E+00  9.000E+00
      25     1     1     2     0     0  4.720271637E+01  4.680980167E+02 -1.049690722E+03  1.157073663E+03  1.250000000E+02  0.00000E+00  9.000E+00
      25     1     1     2     0     0 -2.025341450E+02 -3.206201311E+02 -7.607399974E+01  4.064844423E+02  1.250000000E+02  0.00000E+00  9.000E+00
      21     1     1     2   502   512  1.553314287E+02 -1.474778856E+02 -6.631289293E+02  6.968626524E+02  7.629394531E-06  0.00000E+00  9.000E+00
#rwgt            2          11   2.3592542248158750E-003           1      107701           0
</event>
<event>
      5   9999  3.19816E-02  1.40882E+02 -1.00000E+00  1.17483E-01
      21    -1     0     0   502   501  0.000000000E+00  0.000000000E+00  1.072995801E+03  1.072995801E+03  0.000000000E+00  0.00000E+00  9.000E+00
       2    -1     0     0   501     0  0.000000000E+00  0.000000000E+00 -5.683639183E+02  5.683639183E+02  0.000000000E+00  0.00000E+00  9.000E+00
      25     1     1     2     0     0  4.941855287E+02 -3.890113215E+02  6.786440719E+02  9.336658510E+02  1.250000000E+02  0.00000E+00  9.000E+00
      25     1     1     2     0     0 -3.542613456E+02  3.726095656E+02 -7.252469941E+01  5.340634994E+02  1.250000000E+02  0.00000E+00  9.000E+00
       2     1     1     2   502     0 -1.399241830E+02  1.640175591E+01 -1.014874894E+02  1.736303692E+02  1.907348633E-06  0.00000E+00  9.000E+00
#rwgt            1           1   2.5446593198148123E-002           1      107751           0
</event>
<event>
      5   9999  3.19816E-02  2.15630E+01 -1.00000E+00  1.63717E-01
      21    -1     0     0   502   501  0.000000000E+00  0.000000000E+00  2.086344237E+02  2.086344237E+02  0.000000000E+00  0.00000E+00  9.000E+00
      21    -1     0     0   511   502  0.000000000E+00  0.000000000E+00 -8.409485835E+02  8.409485835E+02  0.000000000E+00  0.00000E+00  9.000E+00
      25     1     1     2     0     0  2.140422124E+02  1.055208222E+02 -6.744524047E+02  7.262642486E+02  1.250000000E+02  0.00000E+00  9.000E+00
      25     1     1     2     0     0 -2.329891643E+02 -1.158152641E+02  6.058116435E+01  2.949444075E+02  1.250000000E+02  0.00000E+00  9.000E+00
      21     1     1     2   511   501  1.894695188E+01  1.029444192E+01 -1.844291942E+01  2.837435104E+01  2.384185791E-07  0.00000E+00  9.000E+00
#rwgt            1           1   2.1262319834395103E-002           1      107831           0
</event>
<event>
      5   9999  3.19816E-02  8.85681E+01 -1.00000E+00  1.26247E-01
      21    -1     0     0   502   512  0.000000000E+00  0.000000000E+00  1.794418345E+02  1.794418345E+02  0.000000000E+00  0.00000E+00  9.000E+00
      21    -1     0     0   501   502  0.000000000E+00  0.000000000E+00 -6.422624786E+02  6.422624786E+02  0.000000000E+00  0.00000E+00  9.000E+00
      25     1     1     2     0     0 -2.390894027E+01 -4.506329806E+01  1.000243108E+02  1.680244060E+02  1.250000000E+02  0.00000E+00  9.000E+00
      25     1     1     2     0     0  5.480990523E+01  1.280659033E+02 -5.250013880E+02  5.573656419E+02  1.250000000E+02  0.00000E+00  9.000E+00
      21     1     1     2   501   512 -3.090096495E+01 -8.300260529E+01 -3.784356693E+01  9.631426518E+01  1.719260824E-06  0.00000E+00  9.000E+00
#rwgt            1           1   2.7379087210773315E-002           1      107990           0
</event>
<event>
      5   9999  3.21783E-02  2.31313E+01 -1.00000E+00  1.61320E-01
       4    -1     0     0   502     0  0.000000000E+00  0.000000000E+00  1.570920482E+03  1.570920482E+03  0.000000000E+00  0.00000E+00  9.000E+00
      21    -1     0     0   501   502  0.000000000E+00  0.000000000E+00 -1.276402243E+03  1.276402243E+03  0.000000000E+00  0.00000E+00  9.000E+00
      25     1     1     2     0     0  3.641986076E+02  8.709289743E+02  6.714667267E+02  1.165182590E+03  1.250000000E+02  0.00000E+00  9.000E+00
      25     1     1     2     0     0 -3.417853861E+02 -8.652103196E+02 -8.152387738E+02  1.243239883E+03  1.250000000E+02  0.00000E+00  9.000E+00
       4     1     1     2   501     0 -2.241322152E+01 -5.718654682E+00  4.382902870E+02  4.389002520E+02  5.394796609E-06  0.00000E+00  9.000E+00
#rwgt            1           1   7.3323129033706039E-002           1      108069           0
</event>
<event>
      5   9999  3.19816E-02  9.01584E+01 -1.00000E+00  1.25886E-01
      21    -1     0     0   502   511  0.000000000E+00  0.000000000E+00  9.464226881E+01  9.464226881E+01  0.000000000E+00  0.00000E+00  9.000E+00
      21    -1     0     0   501   502  0.000000000E+00  0.000000000E+00 -6.175734525E+02  6.175734525E+02  0.000000000E+00  0.00000E+00  9.000E+00
      25     1     1     2     0     0 -1.393686260E+02 -6.063219286E+01 -3.537026515E+02  4.047597341E+02  1.250000000E+02  0.00000E+00  9.000E+00
      25     1     1     2     0     0  5.481726866E+01  9.193083191E+01 -9.075904536E+01  1.879319428E+02  1.250000000E+02  0.00000E+00  9.000E+00
      21     1     1     2   501   511  8.455135730E+01 -3.129863904E+01 -7.846948690E+01  1.195240445E+02  1.907348633E-06  0.00000E+00  9.000E+00
#rwgt            2          11   2.7414594496952970E-003           1      108535           0
</event>
<event>
      5   9999  3.19816E-02  7.61068E+01 -1.00000E+00  1.29407E-01
      21    -1     0     0   502   512  0.000000000E+00  0.000000000E+00  4.784291161E+02  4.784291161E+02  0.000000000E+00  0.00000E+00  9.000E+00
      21    -1     0     0   501   502  0.000000000E+00  0.000000000E+00 -6.142191877E+02  6.142191877E+02  0.000000000E+00  0.00000E+00  9.000E+00
      25     1     1     2     0     0  1.034315562E+02 -2.461624184E+01  3.872255132E+02  4.205622954E+02  1.250000000E+02  0.00000E+00  9.000E+00
      25     1     1     2     0     0 -1.405940474E+02 -4.180058618E+01 -5.565111693E+02  5.889343399E+02  1.250000000E+02  0.00000E+00  9.000E+00
      21     1     1     2   501   512  3.716249117E+01  6.641682802E+01  3.349558449E+01  8.315166850E+01  1.066240300E-06  0.00000E+00  9.000E+00
#rwgt            1           1   2.9764369514013810E-002           1      108555           0
</event>
<event>
      5   9999  3.19816E-02  3.17367E+01 -1.00000E+00  1.51361E-01
      21    -1     0     0   502   501  0.000000000E+00  0.000000000E+00  8.367635893E+02  8.367635893E+02  0.000000000E+00  0.00000E+00  9.000E+00
      21    -1     0     0   501   511  0.000000000E+00  0.000000000E+00 -1.414251282E+02  1.414251282E+02  0.000000000E+00  0.00000E+00  9.000E+00
      25     1     1     2     0     0  2.262748572E+01 -1.002007799E+02  6.313594856E+02  6.517606918E+02  1.250000000E+02  0.00000E+00  9.000E+00
      25     1     1     2     0     0 -2.807482205E+01  1.314664911E+02  1.485210846E+02  2.361252771E+02  1.250000000E+02  0.00000E+00  9.000E+00
      21     1     1     2   502   511  5.447336332E+00 -3.126571117E+01 -8.454210918E+01  9.030274854E+01  1.348699152E-06  0.00000E+00  9.000E+00
#rwgt            1           1   3.7491535936879636E-002           1      108650           0
</event>
<event>
      5   9999  3.19816E-02  6.65220E+01 -1.00000E+00  1.32351E-01
      21    -1     0     0   502   512  0.000000000E+00  0.000000000E+00  3.234630351E+02  3.234630351E+02  0.000000000E+00  0.00000E+00  9.000E+00
      21    -1     0     0   501   502  0.000000000E+00  0.000000000E+00 -4.104109707E+02  4.104109707E+02  0.000000000E+00  0.00000E+00  9.000E+00
      25     1     1     2     0     0 -2.740410214E+02  1.986395221E+02 -5.208496458E+01  3.645462723E+02  1.250000000E+02  0.00000E+00  9.000E+00
      25     1     1     2     0     0  2.256899174E+02 -1.529520618E+02 -4.012687299E+01  3.025978155E+02  1.250000000E+02  0.00000E+00  9.000E+00
      21     1     1     2   501   512  4.835110402E+01 -4.568746031E+01  5.263901937E+00  6.672991798E+01  1.315359860E-06  0.00000E+00  9.000E+00
#rwgt            1           1   2.5592420318682963E-002           1      108758           0
</event>
<event>
      5   9999  3.19816E-02  9.17051E+01 -1.00000E+00  1.25543E-01
       2    -1     0     0   502     0  0.000000000E+00  0.000000000E+00  3.918955760E+03  3.918955760E+03  0.000000000E+00  0.00000E+00  9.000E+00
      21    -1     0     0   501   502  0.000000000E+00  0.000000000E+00 -1.037452834E+03  1.037452834E+03  0.000000000E+00  0.00000E+00  9.000E+00
      25     1     1     2     0     0  2.424595998E+01  5.897766135E+02 -7.451241107E+02  9.587800899E+02  1.250000000E+02  0.00000E+00  9.000E+00
      25     1     1     2     0     0 -9.060268147E+00 -4.993375962E+02  1.734863377E+02  5.432703128E+02  1.250000000E+02  0.00000E+00  9.000E+00
       2     1     1     2   501     0 -1.518569183E+01 -9.043901730E+01  3.453140699E+03  3.454358190E+03  4.315837288E-05  0.00000E+00  9.000E+00
#rwgt            1           1   2.8871455771966245E-002           1      108848           0
</event>
<event>
      5   9999  3.19816E-02  2.57595E+01 -1.00000E+00  1.57783E-01
      21    -1     0     0   502   511  0.000000000E+00  0.000000000E+00  6.031951789E+02  6.031951789E+02  0.000000000E+00  0.00000E+00  9.000E+00
      21    -1     0     0   501   502  0.000000000E+00  0.000000000E+00 -2.033231142E+03  2.033231142E+03  0.000000000E+00  0.00000E+00  9.000E+00
      25     1     1     2     0     0 -2.781711291E+01 -3.587836018E+02 -6.817820002E+02  7.809937006E+02  1.250000000E+02  0.00000E+00  9.000E+00
      25     1     1     2     0     0  3.590297915E+01  3.343260323E+02 -1.276811034E+03  1.326248219E+03  1.250000000E+02  0.00000E+00  9.000E+00
      21     1     1     2   501   511 -8.085866241E+00  2.445756949E+01  5.285570711E+02  5.291844020E+02  1.321449896E-05  0.00000E+00  9.000E+00
#rwgt            1           1   2.7914318171110945E-002           1      108934           0
</event>
<event>
      5   9999  3.19816E-02  6.13419E+01 -1.00000E+00  1.34192E-01
      21    -1     0     0   502   501  0.000000000E+00  0.000000000E+00  2.831602408E+02  2.831602408E+02  0.000000000E+00  0.00000E+00  9.000E+00
      21    -1     0     0   512   502  0.000000000E+00  0.000000000E+00 -3.474729500E+02  3.474729500E+02  0.000000000E+00  0.00000E+00  9.000E+00
      25     1     1     2     0     0  5.068903150E+01 -1.618647509E+02 -1.579106240E+02  2.633065527E+02  1.250000000E+02  0.00000E+00  9.000E+00
      25     1     1     2     0     0 -1.030257279E+02  1.298694402E+02  1.707123427E+02  2.687900222E+02  1.250000000E+02  0.00000E+00  9.000E+00
      21     1     1     2   512   501  5.233669635E+01  3.199531073E+01 -7.711442792E+01  9.853661597E+01  1.907348633E-06  0.00000E+00  9.000E+00
#rwgt            1           1   2.6634412269545465E-002           1      109061           0
</event>
<event>
      5   9999  3.19816E-02  7.95736E+01 -1.00000E+00  1.28462E-01
      21    -1     0     0   511   501  0.000000000E+00  0.000000000E+00  7.816188007E+02  7.816188007E+02  0.000000000E+00  0.00000E+00  9.000E+00
      21    -1     0     0   501   502  0.000000000E+00  0.000000000E+00 -1.295678562E+03  1.295678562E+03  0.000000000E+00  0.00000E+00  9.000E+00
      25     1     1     2     0     0  7.347636179E+02  1.838609493E+02 -3.721976499E+02  8.531345225E+02  1.250000000E+02  0.00000E+00  9.000E+00
      25     1     1     2     0     0 -7.642667200E+02 -2.577631061E+02 -4.318897384E+02  9.234171237E+02  1.250000000E+02  0.00000E+00  9.000E+00
      21     1     1     2   511   502  2.950310218E+01  7.390215684E+01  2.900276268E+02  3.007457167E+02  6.607249480E-06  0.00000E+00  9.000E+00
#rwgt            1           1   3.0037731560774245E-002           1      109117           0
</event>
<event>
      5   9999  3.19816E-02  1.84714E+01 -1.00000E+00  1.69269E-01
      21    -1     0     0   502   512  0.000000000E+00  0.000000000E+00  3.919738112E+02  3.919738112E+02  0.000000000E+00  0.00000E+00  9.000E+00
      21    -1     0     0   501   502  0.000000000E+00  0.000000000E+00 -1.697587173E+03  1.697587173E+03  0.000000000E+00  0.00000E+00  9.000E+00
      25     1     1     2     0     0 -3.495761142E+02  1.580652404E+02 -1.347714365E+02  4.254132343E+02  1.250000000E+02  0.00000E+00  9.000E+00
      25     1     1     2     0     0  3.355034070E+02 -1.461006066E+02 -1.390727646E+03  1.443487550E+03  1.250000000E+02  0.00000E+00  9.000E+00
      21     1     1     2   501   512  1.407270715E+01 -1.196463387E+01  2.198857205E+02  2.206601995E+02  3.814697266E-06  0.00000E+00  9.000E+00
#rwgt            1           1   3.1507725363476694E-002           1      109228           0
</event>
<event>
      5   9999  3.19816E-02  6.80217E+01 -1.00000E+00  1.31854E-01
      21    -1     0     0   502   501  0.000000000E+00  0.000000000E+00  1.068384831E+03  1.068384831E+03  0.000000000E+00  0.00000E+00  9.000E+00
      21    -1     0     0   501   511  0.000000000E+00  0.000000000E+00 -9.526104453E+02  9.526104453E+02  0.000000000E+00  0.00000E+00  9.000E+00
      25     1     1     2     0     0 -6.466373994E+01 -1.358526983E+02  2.296336655E+02  3.016520764E+02  1.250000000E+02  0.00000E+00  9.000E+00
      25     1     1     2     0     0  5.654966196E+01  2.033887345E+02  7.826783716E+02  8.202287942E+02  1.250000000E+02  0.00000E+00  9.000E+00
      21     1     1     2   502   511  8.114077985E+00 -6.753603620E+01 -8.965376512E+02  8.991144057E+02  0.000000000E+00  0.00000E+00  9.000E+00
#rwgt            1           1   3.3095327862023773E-002           1      109438           0
</event>
<event>
      5   9999  3.19816E-02  7.76944E+01 -1.00000E+00  1.28967E-01
      21    -1     0     0   502   501  0.000000000E+00  0.000000000E+00  1.753282755E+03  1.753282755E+03  0.000000000E+00  0.00000E+00  9.000E+00
      21    -1     0     0   512   502  0.000000000E+00  0.000000000E+00 -4.001949037E+02  4.001949037E+02  0.000000000E+00  0.00000E+00  9.000E+00
      25     1     1     2     0     0  7.280193436E+02 -4.051870662E+00  8.550941566E+02  1.129973274E+03  1.250000000E+02  0.00000E+00  9.000E+00
      25     1     1     2     0     0 -7.237942004E+02 -7.352757476E+01  5.579875298E+02  9.253428728E+02  1.250000000E+02  0.00000E+00  9.000E+00
      21     1     1     2   512   501 -4.225143197E+00  7.757944542E+01 -5.999383532E+01  9.816151212E+01  1.784161275E-06  0.00000E+00  9.000E+00
#rwgt            1           1   2.8307714416762643E-002           1      109505           0
</event>
<event>
      5   9999  3.19816E-02  4.21054E+02 -1.00000E+00  1.01020E-01
      21    -1     0     0   502   501  0.000000000E+00  0.000000000E+00  1.476936177E+03  1.476936177E+03  0.000000000E+00  0.00000E+00  9.000E+00
      21    -1     0     0   511   502  0.000000000E+00  0.000000000E+00 -1.400973715E+03  1.400973715E+03  0.000000000E+00  0.00000E+00  9.000E+00
      25     1     1     2     0     0 -7.952902973E+02 -5.024902986E+02 -6.096642826E+01  9.509600741E+02  1.250000000E+02  0.00000E+00  9.000E+00
      25     1     1     2     0     0  1.157714021E+03  7.168156994E+02  4.070611942E+02  1.426692089E+03  1.250000000E+02  0.00000E+00  9.000E+00
      21     1     1     2   511   501 -3.624237237E+02 -2.143254008E+02 -2.701323041E+02  5.002577282E+02  6.607249480E-06  0.00000E+00  9.000E+00
#rwgt            2          11   4.2324425219290524E-003           1      109667           0
</event>
<event>
      5   9999  3.19816E-02  6.35818E+01 -1.00000E+00  1.33371E-01
      21    -1     0     0   502   512  0.000000000E+00  0.000000000E+00  3.181714271E+02  3.181714271E+02  0.000000000E+00  0.00000E+00  9.000E+00
      21    -1     0     0   501   502  0.000000000E+00  0.000000000E+00 -7.842225169E+02  7.842225169E+02  0.000000000E+00  0.00000E+00  9.000E+00
      25     1     1     2     0     0 -3.115806335E+00  1.467909135E+02 -6.947656779E+02  7.210281741E+02  1.250000000E+02  0.00000E+00  9.000E+00
      25     1     1     2     0     0  4.566758811E+01 -1.940348559E+02  2.092428230E+02  3.148691997E+02  1.250000000E+02  0.00000E+00  9.000E+00
      21     1     1     2   501   512 -4.255178177E+01  4.724394240E+01  1.947176505E+01  6.649657029E+01  8.920806376E-07  0.00000E+00  9.000E+00
#rwgt            1           1   2.8697201764955358E-002           1      109732           0
</event>
<event>
      5   9999  3.19816E-02  9.67701E+01 -1.00000E+00  1.24473E-01
      -3    -1     0     0     0   501  0.000000000E+00  0.000000000E+00  5.638805037E+02  5.638805037E+02  0.000000000E+00  0.00000E+00  9.000E+00
      21    -1     0     0   501   502  0.000000000E+00  0.000000000E+00 -4.691937604E+02  4.691937604E+02  0.000000000E+00  0.00000E+00  9.000E+00
      25     1     1     2     0     0  1.545090153E+01 -7.653013427E+01 -3.076228896E+01  1.505553394E+02  1.250000000E+02  0.00000E+00  9.000E+00
      25     1     1     2     0     0 -7.094094536E+01 -2.749763204E+00 -3.599362018E+02  3.875812796E+02  1.250000000E+02  0.00000E+00  9.000E+00
      -3     1     1     2     0   502  5.549004382E+01  7.927989748E+01  4.853852340E+02  4.949376451E+02  7.629394531E-06  0.00000E+00  9.000E+00
#rwgt            1           1   2.5702524899196489E-002           1      109849           0
</event>
<event>
      5   9999  3.19816E-02  3.37548E+02 -1.00000E+00  1.03954E-01
      21    -1     0     0   502   501  0.000000000E+00  0.000000000E+00  2.112434337E+03  2.112434337E+03  0.000000000E+00  0.00000E+00  9.000E+00
       1    -1     0     0   501     0  0.000000000E+00  0.000000000E+00 -1.657987749E+03  1.657987749E+03  0.000000000E+00  0.00000E+00  9.000E+00
      25     1     1     2     0     0 -5.164761602E+02  3.529893367E+02  1.548557855E+03  1.674815072E+03  1.250000000E+02  0.00000E+00  9.000E+00
      25     1     1     2     0     0  4.029511045E+02 -3.510423455E+01  3.887793786E+02  5.747837029E+02  1.250000000E+02  0.00000E+00  9.000E+00
       1     1     1     2   502     0  1.135250558E+02 -3.178851021E+02 -1.482890645E+03  1.520823311E+03  2.157918644E-05  0.00000E+00  9.000E+00
#rwgt            2          12   5.2376132168409440E-003           1      109903           0
</event>
<event>
      5   9999  3.19816E-02  3.23888E+01 -1.00000E+00  1.50764E-01
      21    -1     0     0   511   501  0.000000000E+00  0.000000000E+00  1.103722846E+03  1.103722846E+03  0.000000000E+00  0.00000E+00  9.000E+00
      21    -1     0     0   501   502  0.000000000E+00  0.000000000E+00 -1.826993607E+03  1.826993607E+03  0.000000000E+00  0.00000E+00  9.000E+00
      25     1     1     2     0     0 -9.944101395E+02  5.482863826E+02 -1.012196821E+03  1.526314806E+03  1.250000000E+02  0.00000E+00  9.000E+00
      25     1     1     2     0     0  9.904998587E+02 -5.161344641E+02  1.032984100E+01  1.123929028E+03  1.250000000E+02  0.00000E+00  9.000E+00
      21     1     1     2   511   502  3.910280766E+00 -3.215191854E+01  2.785962196E+02  2.804726186E+02  5.394796609E-06  0.00000E+00  9.000E+00
#rwgt            1           1   5.4020407078696348E-002           1      109922           0
</event>
<event>
      5   9999  3.19816E-02  2.41792E+01 -1.00000E+00  1.59844E-01
      21    -1     0     0   502   512  0.000000000E+00  0.000000000E+00  4.387479403E+02  4.387479403E+02  0.000000000E+00  0.00000E+00  9.000E+00
      21    -1     0     0   501   502  0.000000000E+00  0.000000000E+00 -4.769396035E+02  4.769396035E+02  0.000000000E+00  0.00000E+00  9.000E+00
      25     1     1     2     0     0  1.794301192E+02  2.721276672E+02 -2.079597533E+02  4.063507031E+02  1.250000000E+02  0.00000E+00  9.000E+00
      25     1     1     2     0     0 -1.997787863E+02 -2.851878310E+02  3.409432322E+01  3.715253494E+02  1.250000000E+02  0.00000E+00  9.000E+00
      21     1     1     2   501   512  2.034866707E+01  1.306016373E+01  1.356737668E+02  1.378114913E+02  1.907348633E-06  0.00000E+00  9.000E+00
#rwgt            2          11   1.3308327434582953E-003           1      110336           0
</event>
<event>
      5   9999  3.19816E-02  3.48934E+01 -1.00000E+00  1.48617E-01
      21    -1     0     0   502   511  0.000000000E+00  0.000000000E+00  3.536797780E+02  3.536797780E+02  0.000000000E+00  0.00000E+00  9.000E+00
      21    -1     0     0   501   502  0.000000000E+00  0.000000000E+00 -6.401142679E+02  6.401142679E+02  0.000000000E+00  0.00000E+00  9.000E+00
      25     1     1     2     0     0 -2.275683287E+02  2.785589993E+02 -3.457036165E+02  5.143135724E+02  1.250000000E+02  0.00000E+00  9.000E+00
      25     1     1     2     0     0  2.013819076E+02 -2.554977338E+02 -6.139198740E+01  3.538753181E+02  1.250000000E+02  0.00000E+00  9.000E+00
      21     1     1     2   501   511  2.618642113E+01 -2.306126549E+01  1.206611141E+02  1.256051554E+02  0.000000000E+00  0.00000E+00  9.000E+00
#rwgt            1           1   2.6959462106405051E-002           1      110356           0
</event>
<event>
      5   9999  3.19816E-02  6.87235E+01 -1.00000E+00  1.31627E-01
      21    -1     0     0   502   512  0.000000000E+00  0.000000000E+00  2.963452968E+03  2.963452968E+03  0.000000000E+00  0.00000E+00  9.000E+00
      21    -1     0     0   501   502  0.000000000E+00  0.000000000E+00 -4.419148879E+02  4.419148879E+02  0.000000000E+00  0.00000E+00  9.000E+00
      25     1     1     2     0     0 -6.493831597E+02  1.078548047E+01  2.557411371E+03  2.641551198E+03  1.250000000E+02  0.00000E+00  9.000E+00
      25     1     1     2     0     0  6.136215326E+02  4.790031414E+01 -1.357728919E+02  6.425613617E+02  1.250000000E+02  0.00000E+00  9.000E+00
      21     1     1     2   501   512  3.576162702E+01 -5.868579461E+01  9.989960167E+01  1.212552963E+02  1.907348633E-06  0.00000E+00  9.000E+00
#rwgt            1           1   2.2557115090457800E-002           1      110558           0
</event>
<event>
      5   9999  3.19816E-02  8.43025E+01 -1.00000E+00  1.27258E-01
      21    -1     0     0   502   501  0.000000000E+00  0.000000000E+00  4.406229861E+02  4.406229861E+02  0.000000000E+00  0.00000E+00  9.000E+00
      21    -1     0     0   511   502  0.000000000E+00  0.000000000E+00 -1.623759243E+03  1.623759243E+03  0.000000000E+00  0.00000E+00  9.000E+00
      25     1     1     2     0     0  8.021202418E+01  7.117751145E+02 -1.014980412E+03  1.248546363E+03  1.250000000E+02  0.00000E+00  9.000E+00
      25     1     1     2     0     0 -1.539912768E+02 -6.709886212E+02 -9.871830170E+01  7.066182464E+02  1.250000000E+02  0.00000E+00  9.000E+00
      21     1     1     2   511   501  7.377925262E+01 -4.078649331E+01 -6.943754269E+01  1.092176199E+02  1.348699152E-06  0.00000E+00  9.000E+00
#rwgt            1           1   2.1155401143312786E-002           1      110702           0
</event>
<event>
      5   9999  3.19816E-02  5.73690E+01 -1.00000E+00  1.35752E-01
      21    -1     0     0   502   501  0.000000000E+00  0.000000000E+00  2.779730334E+03  2.779730334E+03  0.000000000E+00  0.00000E+00  9.000E+00
      21    -1     0     0   501   512  0.000000000E+00  0.000000000E+00 -5.015818836E+01  5.015818836E+01  0.000000000E+00  0.00000E+00  9.000E+00
      25     1     1     2     0     0 -1.583083565E+02  2.844260264E+02  9.320735033E+02  9.951611507E+02  1.250000000E+02  0.00000E+00  9.000E+00
      25     1     1     2     0     0  1.587556033E+02 -2.270587872E+02  1.617419995E+03  1.645731288E+03  1.250000000E+02  0.00000E+00  9.000E+00
      21     1     1     2   502   512 -4.472467363E-01 -5.736723921E+01  1.800786482E+02  1.889960838E+02  3.303624740E-06  0.00000E+00  9.000E+00
#rwgt            1           1   5.7694222401866932E-002           1      110803           0
</event>
<event>
      5   9999  3.19816E-02  5.46555E+01 -1.00000E+00  1.36905E-01
      21    -1     0     0   511   501  0.000000000E+00  0.000000000E+00  2.080554594E+03  2.080554594E+03  0.000000000E+00  0.00000E+00  9.000E+00
      21    -1     0     0   501   502  0.000000000E+00  0.000000000E+00 -9.724026364E+01  9.724026364E+01  0.000000000E+00  0.00000E+00  9.000E+00
      25     1     1     2     0     0 -9.859750575E+01 -9.696722574E+00  1.553197123E+03  1.561365363E+03  1.250000000E+02  0.00000E+00  9.000E+00
      25     1     1     2     0     0  4.580608807E+01  2.384920090E+01 -4.164309111E+01  1.415137065E+02  1.250000000E+02  0.00000E+00  9.000E+00
      21     1     1     2   511   502  5.279141768E+01 -1.415247833E+01  4.717602987E+02  4.749157882E+02  0.000000000E+00  0.00000E+00  9.000E+00
#rwgt            1           1   2.9514721071380184E-002           1      110914           0
</event>
<event>
      5   9999  3.19816E-02  2.60619E+02 -1.00000E+00  1.07617E-01
      21    -1     0     0   502   501  0.000000000E+00  0.000000000E+00  1.457570131E+03  1.457570131E+03  0.000000000E+00  0.00000E+00  9.000E+00
       2    -1     0     0   501     0  0.000000000E+00  0.000000000E+00 -2.820589836E+03  2.820589836E+03  0.000000000E+00  0.00000E+00  9.000E+00
      25     1     1     2     0     0 -4.426501748E+02 -5.371678956E+02  1.226466934E+03  1.415745269E+03  1.250000000E+02  0.00000E+00  9.000E+00
      25     1     1     2     0     0  2.788174074E+02  3.344831319E+02 -2.680553761E+02  5.263998450E+02  1.250000000E+02  0.00000E+00  9.000E+00
       2     1     1     2   502     0  1.638327674E+02  2.026847638E+02 -2.321431263E+03  2.336014854E+03  4.315837288E-05  0.00000E+00  9.000E+00
#rwgt            1           1   2.9648856515103152E-002           1      111053           0
</event>
<event>
      5   9999  3.19816E-02  9.02871E+01 -1.00000E+00  1.25857E-01
      21    -1     0     0   502   501  0.000000000E+00  0.000000000E+00  2.533606754E+02  2.533606754E+02  0.000000000E+00  0.00000E+00  9.000E+00
       1    -1     0     0   501     0  0.000000000E+00  0.000000000E+00 -1.107677488E+03  1.107677488E+03  0.000000000E+00  0.00000E+00  9.000E+00
      25     1     1     2     0     0 -4.709957263E+01  3.688368839E+02 -2.692530694E+01  3.932034955E+02  1.250000000E+02  0.00000E+00  9.000E+00
      25     1     1     2     0     0 -4.167452184E+01 -3.852964919E+02 -6.215290641E+02  7.430434240E+02  1.250000000E+02  0.00000E+00  9.000E+00
       1     1     1     2   502     0  8.877409447E+01  1.645960793E+01 -2.058624414E+02  2.247912439E+02  3.814697266E-06  0.00000E+00  9.000E+00
#rwgt            1           1   3.1364034771558795E-002           1      111142           0
</event>
<event>
      5   9999  3.19816E-02  3.12694E+02 -1.00000E+00  1.05010E-01
      21    -1     0     0   502   501  0.000000000E+00  0.000000000E+00  5.347603933E+02  5.347603933E+02  0.000000000E+00  0.00000E+00  9.000E+00
       1    -1     0     0   501     0  0.000000000E+00  0.000000000E+00 -5.132714268E+02  5.132714268E+02  0.000000000E+00  0.00000E+00  9.000E+00
      25     1     1     2     0     0 -3.053118653E+01 -1.557103829E+02  3.135179087E+02  3.729562384E+02  1.250000000E+02  0.00000E+00  9.000E+00
      25     1     1     2     0     0 -2.476931305E+02  1.299084024E+01 -2.196676648E+02  3.541179631E+02  1.250000000E+02  0.00000E+00  9.000E+00
       1     1     1     2   502     0  2.782243171E+02  1.427195426E+02 -7.236127744E+01  3.209576186E+02  6.675720215E-06  0.00000E+00  9.000E+00
#rwgt            2          12   1.7757583684413258E-004           1      111200           0
</event>
<event>
      5   9999  3.19816E-02  5.51572E+01 -1.00000E+00  1.36686E-01
      21    -1     0     0   511   501  0.000000000E+00  0.000000000E+00  1.095683452E+03  1.095683452E+03  0.000000000E+00  0.00000E+00  9.000E+00
      21    -1     0     0   501   502  0.000000000E+00  0.000000000E+00 -4.998341828E+02  4.998341828E+02  0.000000000E+00  0.00000E+00  9.000E+00
      25     1     1     2     0     0 -3.927761615E+02  3.731131381E+02 -1.900756049E+02  5.875714956E+02  1.250000000E+02  0.00000E+00  9.000E+00
      25     1     1     2     0     0  4.417463576E+02 -3.477313877E+02  7.192924705E+02  9.214464827E+02  1.250000000E+02  0.00000E+00  9.000E+00
      21     1     1     2   511   502 -4.897019608E+01 -2.538175046E+01  6.663240382E+01  8.649965664E+01  1.348699152E-06  0.00000E+00  9.000E+00
#rwgt            1           1   2.9800495929609830E-002           1      111264           0
</event>
<event>
      5   9999  3.19816E-02  6.35822E+01 -1.00000E+00  1.33371E-01
      21    -1     0     0   502   512  0.000000000E+00  0.000000000E+00  4.173644234E+02  4.173644234E+02  0.000000000E+00  0.00000E+00  9.000E+00
      21    -1     0     0   501   502  0.000000000E+00  0.000000000E+00 -7.624043392E+02  7.624043392E+02  0.000000000E+00  0.00000E+00  9.000E+00
      25     1     1     2     0     0  3.333589965E+02  2.846722824E+02 -4.655888925E+02  6.515861768E+02  1.250000000E+02  0.00000E+00  9.000E+00
      25     1     1     2     0     0 -3.665147688E+02 -2.304192343E+02  1.080055719E+02  4.633749053E+02  1.250000000E+02  0.00000E+00  9.000E+00
      21     1     1     2   501   512  3.315577228E+01 -5.425304809E+01  1.254340479E+01  6.480768061E+01  6.951036328E-07  0.00000E+00  9.000E+00
#rwgt            1           1   2.9982020188696636E-002           1      111447           0
</event>
<event>
      5   9999  3.19816E-02  2.03354E+01 -1.00000E+00  1.65775E-01
      21    -1     0     0   502   501  0.000000000E+00  0.000000000E+00  1.555998315E+03  1.555998315E+03  0.000000000E+00  0.00000E+00  9.000E+00
      21    -1     0     0   511   502  0.000000000E+00  0.000000000E+00 -1.191977459E+02  1.191977459E+02  0.000000000E+00  0.00000E+00  9.000E+00
      25     1     1     2     0     0  3.354546297E+02 -1.199764286E+02  6.167839389E+02  7.231677394E+02  1.250000000E+02  0.00000E+00  9.000E+00
      25     1     1     2     0     0 -3.479427852E+02  1.360255217E+02  8.372970555E+02  9.253423602E+02  1.250000000E+02  0.00000E+00  9.000E+00
      21     1     1     2   511   501  1.248815550E+01 -1.604909318E+01 -1.728042546E+01  2.668596117E+01  6.307962682E-07  0.00000E+00  9.000E+00
#rwgt            1           1   3.3001954670060063E-002           1      111545           0
</event>
<event>
      5   9999  3.19816E-02  5.12121E+01 -1.00000E+00  1.38485E-01
      21    -1     0     0   502   501  0.000000000E+00  0.000000000E+00  2.458215754E+02  2.458215754E+02  0.000000000E+00  0.00000E+00  9.000E+00
      21    -1     0     0   512   502  0.000000000E+00  0.000000000E+00 -1.601688953E+03  1.601688953E+03  0.000000000E+00  0.00000E+00  9.000E+00
      25     1     1     2     0     0  2.244651878E+02  1.117455327E+02 -3.977715550E+02  4.865376600E+02  1.250000000E+02  0.00000E+00  9.000E+00
      25     1     1     2     0     0 -2.282099289E+02 -6.067048588E+01  1.119611002E+02  2.896911588E+02  1.250000000E+02  0.00000E+00  9.000E+00
      21     1     1     2   512   501  3.744741097E+00 -5.107504686E+01 -1.070056923E+03  1.071281710E+03  0.000000000E+00  0.00000E+00  9.000E+00
#rwgt            1           1   2.9463128399735791E-002           1      111739           0
</event>
<event>
      5   9999  3.19816E-02  2.36955E+01 -1.00000E+00  1.60514E-01
      21    -1     0     0   502   501  0.000000000E+00  0.000000000E+00  1.030012654E+03  1.030012654E+03  0.000000000E+00  0.00000E+00  9.000E+00
       2    -1     0     0   501     0  0.000000000E+00  0.000000000E+00 -2.335824716E+03  2.335824716E+03  0.000000000E+00  0.00000E+00  9.000E+00
      25     1     1     2     0     0 -5.215711631E+02 -3.354881929E+02  7.985614575E+02  1.018780745E+03  1.250000000E+02  0.00000E+00  9.000E+00
      25     1     1     2     0     0  4.978854968E+02  3.348061574E+02 -6.532420854E+02  8.957317417E+02  1.250000000E+02  0.00000E+00  9.000E+00
       2     1     1     2   502     0  2.368566626E+01  6.820355591E-01 -1.451131434E+03  1.451324883E+03  0.000000000E+00  0.00000E+00  9.000E+00
#rwgt            1           1   2.3088018649125797E-002           1      111834           0
</event>
<event>
      5   9999  3.19816E-02  1.20702E+02 -1.00000E+00  1.20261E-01
      21    -1     0     0   502   501  0.000000000E+00  0.000000000E+00  3.118524805E+02  3.118524805E+02  0.000000000E+00  0.00000E+00  9.000E+00
      21    -1     0     0   511   502  0.000000000E+00  0.000000000E+00 -6.786949621E+02  6.786949621E+02  0.000000000E+00  0.00000E+00  9.000E+00
      25     1     1     2     0     0  8.101997640E+01 -7.240199550E+01  7.675326352E+00  1.658016772E+02  1.250000000E+02  0.00000E+00  9.000E+00
      25     1     1     2     0     0 -1.743925290E+02  1.488908970E+02  1.399574427E+02  2.963010954E+02  1.250000000E+02  0.00000E+00  9.000E+00
      21     1     1     2   511   501  9.337255261E+01 -7.648890148E+01 -5.144752507E+02  5.284446700E+02  7.629394531E-06  0.00000E+00  9.000E+00
#rwgt            1           1   2.5736702460826173E-002           1      112058           0
</event>
<event>
      5   9999  3.19816E-02  3.36626E+01 -1.00000E+00  1.49645E-01
      21    -1     0     0   502   501  0.000000000E+00  0.000000000E+00  1.368268723E+03  1.368268723E+03  0.000000000E+00  0.00000E+00  9.000E+00
      21    -1     0     0   512   502  0.000000000E+00  0.000000000E+00 -9.447501067E+01  9.447501067E+01  0.000000000E+00  0.00000E+00  9.000E+00
      25     1     1     2     0     0  1.987263069E+02 -2.119188033E+02  5.554163123E+02  6.391510027E+02  1.250000000E+02  0.00000E+00  9.000E+00
      25     1     1     2     0     0 -1.813042995E+02  1.831152617E+02  7.329433842E+02  7.869138787E+02  1.250000000E+02  0.00000E+00  9.000E+00
      21     1     1     2   512   501 -1.742200741E+01  2.880354160E+01 -1.456598376E+01  3.667885268E+01  8.920806376E-07  0.00000E+00  9.000E+00
#rwgt            1           1   2.8043464609631513E-002           1      112141           0
</event>
<event>
      5   9999  3.19816E-02  2.05283E+01 -1.00000E+00  1.65440E-01
      21    -1     0     0   502   511  0.000000000E+00  0.000000000E+00  1.185355866E+03  1.185355866E+03  0.000000000E+00  0.00000E+00  9.000E+00
      21    -1     0     0   501   502  0.000000000E+00  0.000000000E+00 -2.660454291E+01  2.660454291E+01  0.000000000E+00  0.00000E+00  9.000E+00
      25     1     1     2     0     0 -1.957296902E+01 -1.170586551E+02  6.204476570E+02  6.439457469E+02  1.250000000E+02  0.00000E+00  9.000E+00
      25     1     1     2     0     0  1.991318752E+01  9.653318592E+01  4.490470488E+02  4.764277941E+02  1.250000000E+02  0.00000E+00  9.000E+00
      21     1     1     2   501   511 -3.402184924E-01  2.052546919E+01  8.925661755E+01  9.158686811E+01  1.348699152E-06  0.00000E+00  9.000E+00
#rwgt            1           1   2.8778987750623767E-002           1      112267           0
</event>
<event>
      5   9999  3.19816E-02  1.37995E+02 -1.00000E+00  1.17848E-01
      21    -1     0     0   512   501  0.000000000E+00  0.000000000E+00  2.723636638E+03  2.723636638E+03  0.000000000E+00  0.00000E+00  9.000E+00
      21    -1     0     0   501   502  0.000000000E+00  0.000000000E+00 -1.949029974E+02  1.949029974E+02  0.000000000E+00  0.00000E+00  9.000E+00
      25     1     1     2     0     0 -1.882061117E+02 -2.696422798E+02  4.952254363E+01  3.552548126E+02  1.250000000E+02  0.00000E+00  9.000E+00
      25     1     1     2     0     0  2.963398269E+02  3.553724600E+02  2.202795159E+03  2.254337684E+03  1.250000000E+02  0.00000E+00  9.000E+00
      21     1     1     2   512   502 -1.081337152E+02 -8.573018026E+01  2.764159372E+02  3.089471387E+02  3.814697266E-06  0.00000E+00  9.000E+00
#rwgt            1           1   4.1958864859092233E-002           1      112385           0
</event>
<event>
      5   9999  3.19816E-02  1.11613E+02 -1.00000E+00  1.21719E-01
      21    -1     0     0   502   501  0.000000000E+00  0.000000000E+00  6.349920056E+01  6.349920056E+01  0.000000000E+00  0.00000E+00  9.000E+00
      21    -1     0     0   501   511  0.000000000E+00  0.000000000E+00 -1.379991844E+03  1.379991844E+03  0.000000000E+00  0.00000E+00  9.000E+00
      25     1     1     2     0     0 -1.430987054E+02 -1.815027147E+01 -7.400627230E+02  7.642803843E+02  1.250000000E+02  0.00000E+00  9.000E+00
      25     1     1     2     0     0  1.425574601E+02 -9.346094946E+01 -2.173695330E+02  3.032030547E+02  1.250000000E+02  0.00000E+00  9.000E+00
      21     1     1     2   502   511  5.412453198E-01  1.116112209E+02 -3.590603870E+02  3.760076051E+02  3.814697266E-06  0.00000E+00  9.000E+00
#rwgt            1           1   3.0972737267485013E-002           1      112450           0
</event>
<event>
      5   9999  3.19816E-02  4.27136E+02 -1.00000E+00  1.00835E-01
      -3    -1     0     0     0   501  0.000000000E+00  0.000000000E+00  3.726595173E+02  3.726595173E+02  0.000000000E+00  0.00000E+00  9.000E+00
      21    -1     0     0   501   502  0.000000000E+00  0.000000000E+00 -2.194400367E+03  2.194400367E+03  0.000000000E+00  0.00000E+00  9.000E+00
      25     1     1     2     0     0 -5.956470978E+02  3.492118205E+02 -1.192020015E+03  1.383214039E+03  1.250000000E+02  0.00000E+00  9.000E+00
      25     1     1     2     0     0  4.577293079E+02  5.504548749E+01 -5.836976252E+02  7.542373915E+02  1.250000000E+02  0.00000E+00  9.000E+00
      -3     1     1     2     0   502  1.379177899E+02 -4.042573080E+02 -4.602320929E+01  4.296084538E+02  4.523674479E-06  0.00000E+00  9.000E+00
#rwgt            1           1   2.2055033920760820E-002           1      112503           0
</event>
<event>
      5   9999  3.19816E-02  9.03792E+01 -1.00000E+00  1.25837E-01
       1    -1     0     0   502     0  0.000000000E+00  0.000000000E+00  2.578709222E+03  2.578709222E+03  0.000000000E+00  0.00000E+00  9.000E+00
      21    -1     0     0   501   502  0.000000000E+00  0.000000000E+00 -9.299939863E+02  9.299939863E+02  0.000000000E+00  0.00000E+00  9.000E+00
      25     1     1     2     0     0 -5.342274453E+02 -3.547309812E+02 -7.198285314E+02  9.721168381E+02  1.250000000E+02  0.00000E+00  9.000E+00
      25     1     1     2     0     0  4.452900957E+02  3.708104550E+02  9.816740721E+02  1.146774889E+03  1.250000000E+02  0.00000E+00  9.000E+00
       1     1     1     2   501     0  8.893734957E+01 -1.607947374E+01  1.386869695E+03  1.389811481E+03  2.157918644E-05  0.00000E+00  9.000E+00
#rwgt            1           1   3.1697215637070612E-002           1      112550           0
</event>
<event>
      5   9999  3.19816E-02  5.16375E+01 -1.00000E+00  1.38282E-01
      21    -1     0     0   511   501  0.000000000E+00  0.000000000E+00  4.681965840E+01  4.681965840E+01  0.000000000E+00  0.00000E+00  9.000E+00
      21    -1     0     0   501   502  0.000000000E+00  0.000000000E+00 -3.660109603E+03  3.660109603E+03  0.000000000E+00  0.00000E+00  9.000E+00
      25     1     1     2     0     0 -2.584621383E+02 -3.368124582E+01 -3.040063766E+03  3.053776319E+03  1.250000000E+02  0.00000E+00  9.000E+00
      25     1     1     2     0     0  2.217348764E+02 -2.616727056E+00 -4.163998512E+02  4.880440951E+02  1.250000000E+02  0.00000E+00  9.000E+00
      21     1     1     2   511   502  3.672726186E+01  3.629797288E+01 -1.568263273E+02  1.651088476E+02  1.907348633E-06  0.00000E+00  9.000E+00
#rwgt            1           1   1.9299263152549800E-002           1      112704           0
</event>
<event>
      5   9999  3.19816E-02  4.95915E+01 -1.00000E+00  1.39279E-01
      21    -1     0     0   502   501  0.000000000E+00  0.000000000E+00  3.526936468E+02  3.526936468E+02  0.000000000E+00  0.00000E+00  9.000E+00
       2    -1     0     0   501     0  0.000000000E+00  0.000000000E+00 -2.643548192E+03  2.643548192E+03  0.000000000E+00  0.00000E+00  9.000E+00
      25     1     1     2     0     0 -3.685360906E+02 -2.398216935E+02 -1.255623541E+02  4.740508406E+02  1.250000000E+02  0.00000E+00  9.000E+00
      25     1     1     2     0     0  3.301218808E+02  2.084583178E+02 -5.767308626E+01  4.139885401E+02  1.250000000E+02  0.00000E+00  9.000E+00
       2     1     1     2   502     0  3.841420972E+01  3.136337577E+01 -2.107619105E+03  2.108202458E+03  3.051757812E-05  0.00000E+00  9.000E+00
#rwgt            1           1   2.9569738511337988E-002           1      112807           0
</event>
<event>
      5   9999  3.19816E-02  8.98229E+02  7.55638E-03  9.21243E-02
      -2    -1     0     0     0   501  0.000000000E+00  0.000000000E+00  4.688349862E+02  4.688349862E+02  0.000000000E+00  0.00000E+00  9.000E+00
       2    -1     0     0   502     0  0.000000000E+00  0.000000000E+00 -3.387699016E+03  3.387699016E+03  0.000000000E+00  0.00000E+00  9.000E+00
      25     1     1     2     0     0  9.185447513E+02  7.443536012E+02 -1.546470246E+03  1.950636297E+03  1.250000000E+02  0.00000E+00  9.000E+00
      25     1     1     2     0     0 -9.326118972E+01 -3.897804511E+02 -3.660745597E+02  5.570116990E+02  1.250000000E+02  0.00000E+00  9.000E+00
      21     1     1     2   502   501 -8.252835616E+02 -3.545731501E+02 -1.006319225E+03  1.348886006E+03  0.000000000E+00  0.00000E+00  9.000E+00
#rwgt            3           4   1.9501520140100670E-005           1      113088           0
</event>
<event>
      5   9999  3.19816E-02  2.00095E+02 -1.00000E+00  1.11641E-01
      21    -1     0     0   511   501  0.000000000E+00  0.000000000E+00  1.260333902E+02  1.260333902E+02  0.000000000E+00  0.00000E+00  9.000E+00
      21    -1     0     0   501   502  0.000000000E+00  0.000000000E+00 -9.313790233E+02  9.313790233E+02  0.000000000E+00  0.00000E+00  9.000E+00
      25     1     1     2     0     0  5.653339290E+01 -6.665026485E+00 -1.993921926E+02  2.421212373E+02  1.250000000E+02  0.00000E+00  9.000E+00
      25     1     1     2     0     0 -1.835877940E+02  1.612458902E+02 -5.380125547E+02  6.039761785E+02  1.250000000E+02  0.00000E+00  9.000E+00
      21     1     1     2   511   502  1.270544011E+02 -1.545808637E+02 -6.794088577E+01  2.113149977E+02  9.536743164E-07  0.00000E+00  9.000E+00
#rwgt            1           1   2.5870200072976374E-002           1      113107           0
</event>
<event>
      5   9999  3.19816E-02  1.00706E+02 -1.00000E+00  1.23691E-01
      21    -1     0     0   502   512  0.000000000E+00  0.000000000E+00  1.444115094E+02  1.444115094E+02  0.000000000E+00  0.00000E+00  9.000E+00
      21    -1     0     0   501   502  0.000000000E+00  0.000000000E+00 -9.857734623E+02  9.857734623E+02  0.000000000E+00  0.00000E+00  9.000E+00
      25     1     1     2     0     0 -4.117362559E+01 -1.092351444E+02 -8.317101188E+02  8.491138356E+02  1.250000000E+02  0.00000E+00  9.000E+00
      25     1     1     2     0     0  8.006744885E+01  1.634337834E+01  5.750143402E+01  1.600291139E+02  1.250000000E+02  0.00000E+00  9.000E+00
      21     1     1     2   501   512 -3.889382325E+01  9.289176611E+01 -6.715326818E+01  1.210420221E+02  9.536743164E-07  0.00000E+00  9.000E+00
#rwgt            1           1   2.9793569352751806E-002           1      113158           0
</event>
<event>
      5   9999  3.19816E-02  8.87964E+01 -1.00000E+00  1.26194E-01
      21    -1     0     0   502   501  0.000000000E+00  0.000000000E+00  1.800657702E+02  1.800657702E+02  0.000000000E+00  0.00000E+00  9.000E+00
      21    -1     0     0   501   511  0.000000000E+00  0.000000000E+00 -1.136915435E+03  1.136915435E+03  0.000000000E+00  0.00000E+00  9.000E+00
      25     1     1     2     0     0  2.819544497E+02 -2.223937752E+02 -4.086716295E+02  5.582067750E+02  1.250000000E+02  0.00000E+00  9.000E+00
      25     1     1     2     0     0 -2.312952348E+02  2.953214880E+02 -3.033946406E+02  4.983829601E+02  1.250000000E+02  0.00000E+00  9.000E+00
      21     1     1     2   502   511 -5.065921492E+01 -7.292771284E+01 -2.447833947E+02  2.603914700E+02  3.814697266E-06  0.00000E+00  9.000E+00
#rwgt            1           1   3.0583602560593254E-002           1      113228           0
</event>
<event>
      5   9999  3.19816E-02  6.57297E+01 -1.00000E+00  1.32620E-01
      21    -1     0     0   502   501  0.000000000E+00  0.000000000E+00  1.524020790E+02  1.524020790E+02  0.000000000E+00  0.00000E+00  9.000E+00
      21    -1     0     0   512   502  0.000000000E+00  0.000000000E+00 -2.521854450E+03  2.521854450E+03  0.000000000E+00  0.00000E+00  9.000E+00
      25     1     1     2     0     0  1.350071835E+02 -4.565310741E+02 -4.890942581E+02  6.938917455E+02  1.250000000E+02  0.00000E+00  9.000E+00
      25     1     1     2     0     0 -1.249205966E+02  5.214822018E+02 -1.746507863E+03  1.831246449E+03  1.250000000E+02  0.00000E+00  9.000E+00
      21     1     1     2   512   501 -1.008658688E+01 -6.495112771E+01 -1.338502501E+02  1.491183344E+02  2.697398305E-06  0.00000E+00  9.000E+00
#rwgt            1           1   2.8299960033716952E-002           1      113287           0
</event>
<event>
      5   9999  3.19816E-02  2.30414E+02 -1.00000E+00  1.09455E-01
      21    -1     0     0   511   501  0.000000000E+00  0.000000000E+00  3.656391928E+02  3.656391928E+02  0.000000000E+00  0.00000E+00  9.000E+00
      21    -1     0     0   501   502  0.000000000E+00  0.000000000E+00 -6.723790102E+02  6.723790102E+02  0.000000000E+00  0.00000E+00  9.000E+00
      25     1     1     2     0     0  1.292037699E+02  1.463167335E+02 -2.680795723E+02  3.543922371E+02  1.250000000E+02  0.00000E+00  9.000E+00
      25     1     1     2     0     0 -2.984825491E+02 -3.026340029E+02  2.746191860E+01  4.439125238E+02  1.250000000E+02  0.00000E+00  9.000E+00
      21     1     1     2   511   502  1.692787792E+02  1.563172694E+02 -6.612216380E+01  2.397134421E+02  1.651812370E-06  0.00000E+00  9.000E+00
#rwgt            1           1   2.8091524584504816E-002           1      113400           0
</event>
<event>
      5   9999  3.19816E-02  3.62455E+02 -1.00000E+00  1.02990E-01
      21    -1     0     0   502   512  0.000000000E+00  0.000000000E+00  4.022103865E+02  4.022103865E+02  0.000000000E+00  0.00000E+00  9.000E+00
      21    -1     0     0   501   502  0.000000000E+00  0.000000000E+00 -8.548488881E+02  8.548488881E+02  0.000000000E+00  0.00000E+00  9.000E+00
      25     1     1     2     0     0 -1.496828304E+02 -1.659721869E+02 -5.177489142E+01  2.612610877E+02  1.250000000E+02  0.00000E+00  9.000E+00
      25     1     1     2     0     0  4.806936564E+02  1.830468379E+01 -3.923918346E+02  6.332438745E+02  1.250000000E+02  0.00000E+00  9.000E+00
      21     1     1     2   501   512 -3.310108260E+02  1.476675031E+02 -8.471775552E+00  3.625543124E+02  6.572746635E-06  0.00000E+00  9.000E+00
#rwgt            1           1   2.4862313359986673E-002           1      113473           0
</event>
<event>
      5   9999  3.19816E-02  3.57484E+01 -1.00000E+00  1.47933E-01
      21    -1     0     0   502   501  0.000000000E+00  0.000000000E+00  1.155799141E+03  1.155799141E+03  0.000000000E+00  0.00000E+00  9.000E+00
      21    -1     0     0   501   511  0.000000000E+00  0.000000000E+00 -5.754867519E+02  5.754867519E+02  0.000000000E+00  0.00000E+00  9.000E+00
      25     1     1     2     0     0  2.435700081E+02 -7.134857611E+02  1.445770766E+02  7.777633388E+02  1.250000000E+02  0.00000E+00  9.000E+00
      25     1     1     2     0     0 -2.635117786E+02  7.431551380E+02  4.483419131E+02  9.156164522E+02  1.250000000E+02  0.00000E+00  9.000E+00
      21     1     1     2   502   511  1.994177053E+01 -2.966937685E+01 -1.260660108E+01  3.790610142E+01  3.371747881E-07  0.00000E+00  9.000E+00
#rwgt            1           1   2.7052912635395870E-002           1      113548           0
</event>
<event>
      5   9999  3.19816E-02  1.15534E+02 -1.00000E+00  1.21072E-01
      21    -1     0     0   512   501  0.000000000E+00  0.000000000E+00  2.146736424E+03  2.146736424E+03  0.000000000E+00  0.00000E+00  9.000E+00
      21    -1     0     0   501   502  0.000000000E+00  0.000000000E+00 -4.524854945E+01  4.524854945E+01  0.000000000E+00  0.00000E+00  9.000E+00
      25     1     1     2     0     0  4.531977545E+01 -2.486053833E+02  7.431708812E+02  7.948499715E+02  1.250000000E+02  0.00000E+00  9.000E+00
      25     1     1     2     0     0 -6.648644355E+01  1.350273350E+02  6.290448747E+02  6.587680038E+02  1.250000000E+02  0.00000E+00  9.000E+00
      21     1     1     2   512   502  2.116666810E+01  1.135780483E+02  7.292721191E+02  7.383669986E+02  0.000000000E+00  0.00000E+00  9.000E+00
#rwgt            1           1   2.5704199123200051E-002           1      113711           0
</event>
<event>
      5   9999  3.19816E-02  3.15326E+01 -1.00000E+00  1.51552E-01
      -2    -1     0     0     0   501  0.000000000E+00  0.000000000E+00  6.860193853E+02  6.860193853E+02  0.000000000E+00  0.00000E+00  9.000E+00
      21    -1     0     0   501   502  0.000000000E+00  0.000000000E+00 -1.436448845E+03  1.436448845E+03  0.000000000E+00  0.00000E+00  9.000E+00
      25     1     1     2     0     0 -1.882548441E+02 -8.834626515E+01 -1.346772568E+03  1.368453981E+03  1.250000000E+02  0.00000E+00  9.000E+00
      25     1     1     2     0     0  2.154542174E+02  7.239329313E+01  1.365515139E+02  2.931426694E+02  1.250000000E+02  0.00000E+00  9.000E+00
      -2     1     1     2     0   502 -2.719937332E+01  1.595297201E+01  4.597915941E+02  4.608715799E+02  9.344061824E-06  0.00000E+00  9.000E+00
#rwgt            1           1   2.9658621864906219E-002           1      113771           0
</event>
<event>
      5   9999  3.19816E-02  5.40106E+01 -1.00000E+00  1.37190E-01
      21    -1     0     0   502   511  0.000000000E+00  0.000000000E+00  4.522219810E+02  4.522219810E+02  0.000000000E+00  0.00000E+00  9.000E+00
      21    -1     0     0   501   502  0.000000000E+00  0.000000000E+00 -5.215908052E+02  5.215908052E+02  0.000000000E+00  0.00000E+00  9.000E+00
      25     1     1     2     0     0 -3.462341987E+02 -1.718689612E+01 -3.268707850E+02  4.925880833E+02  1.250000000E+02  0.00000E+00  9.000E+00
      25     1     1     2     0     0  3.190163682E+02  6.383812854E+01  1.979128165E+02  4.008007395E+02  1.250000000E+02  0.00000E+00  9.000E+00
      21     1     1     2   501   511  2.721783049E+01 -4.665123242E+01  5.958914424E+01  8.042396344E+01  1.168007728E-06  0.00000E+00  9.000E+00
#rwgt            1           1   2.4574485293708852E-002           1      113891           0
</event>
<event>
      5   9999  3.19816E-02  2.65967E+02 -1.00000E+00  1.07319E-01
      21    -1     0     0   502   501  0.000000000E+00  0.000000000E+00  3.586028976E+02  3.586028976E+02  0.000000000E+00  0.00000E+00  9.000E+00
      21    -1     0     0   512   502  0.000000000E+00  0.000000000E+00 -8.694142665E+02  8.694142665E+02  0.000000000E+00  0.00000E+00  9.000E+00
      25     1     1     2     0     0 -1.837401502E+02 -4.742510350E+02 -2.650907771E+02  5.870030725E+02  1.250000000E+02  0.00000E+00  9.000E+00
      25     1     1     2     0     0  2.148289723E+02  2.101072171E+02 -1.205465629E+02  3.470634003E+02  1.250000000E+02  0.00000E+00  9.000E+00
      21     1     1     2   512   501 -3.108882210E+01  2.641438179E+02 -1.251740289E+02  2.939506913E+02  3.814697266E-06  0.00000E+00  9.000E+00
#rwgt            1           1   2.7870337525173993E-002           1      113983           0
</event>
<event>
      5   9999  3.19816E-02  1.64037E+02 -1.00000E+00  1.14874E-01
      21    -1     0     0   502   511  0.000000000E+00  0.000000000E+00  1.359498014E+03  1.359498014E+03  0.000000000E+00  0.00000E+00  9.000E+00
      21    -1     0     0   501   502  0.000000000E+00  0.000000000E+00 -6.945983862E+02  6.945983862E+02  0.000000000E+00  0.00000E+00  9.000E+00
      25     1     1     2     0     0  2.311869417E+02 -5.238176437E+02  9.413429977E+01  5.935643118E+02  1.250000000E+02  0.00000E+00  9.000E+00
      25     1     1     2     0     0 -3.938298976E+02  5.024783112E+02 -1.936158666E+02  6.787477774E+02  1.250000000E+02  0.00000E+00  9.000E+00
      21     1     1     2   501   511  1.626429560E+02  2.133933253E+01  7.643811949E+02  7.817843113E+02  1.078959322E-05  0.00000E+00  9.000E+00
#rwgt            2          11   2.5313364030268388E-003           1      114037           0
</event>
<event>
      5   9999  3.19816E-02  1.11774E+02 -1.00000E+00  1.21692E-01
      21    -1     0     0   502   501  0.000000000E+00  0.000000000E+00  2.496595950E+03  2.496595950E+03  0.000000000E+00  0.00000E+00  9.000E+00
      21    -1     0     0   512   502  0.000000000E+00  0.000000000E+00 -7.337900408E+01  7.337900408E+01  0.000000000E+00  0.00000E+00  9.000E+00
      25     1     1     2     0     0  1.617765940E+02 -2.982848545E+01  6.541044591E+02  6.859584888E+02  1.250000000E+02  0.00000E+00  9.000E+00
      25     1     1     2     0     0 -1.611079300E+02 -8.194350072E+01  1.758009811E+03  1.771692410E+03  1.250000000E+02  0.00000E+00  9.000E+00
      21     1     1     2   512   501 -6.686640166E-01  1.117719862E+02  1.110267664E+01  1.123240554E+02  4.765390418E-06  0.00000E+00  9.000E+00
#rwgt            1           1   5.4796455205591926E-002           1      114087           0
</event>
<event>
      5   9999  3.19816E-02  2.99367E+02 -1.00000E+00  1.05622E-01
      21    -1     0     0   502   511  0.000000000E+00  0.000000000E+00  2.255694056E+02  2.255694056E+02  0.000000000E+00  0.00000E+00  9.000E+00
      21    -1     0     0   501   502  0.000000000E+00  0.000000000E+00 -8.897000924E+02  8.897000924E+02  0.000000000E+00  0.00000E+00  9.000E+00
      25     1     1     2     0     0 -1.088565219E+02  1.270539471E+02 -1.641423952E+02  2.656316505E+02  1.250000000E+02  0.00000E+00  9.000E+00
      25     1     1     2     0     0 -1.890434315E+02 -1.566566616E+02 -4.751448374E+02  5.492416090E+02  1.250000000E+02  0.00000E+00  9.000E+00
      21     1     1     2   501   511  2.978999534E+02  2.960271450E+01 -2.484345428E+01  3.003962386E+02  1.907348633E-06  0.00000E+00  9.000E+00
#rwgt            1           1   2.6854002339791377E-002           1      114139           0
</event>
<event>
      5   9999  3.19816E-02  5.71008E+01 -1.00000E+00  1.35863E-01
      21    -1     0     0   502   501  0.000000000E+00  0.000000000E+00  7.213721313E+02  7.213721313E+02  0.000000000E+00  0.00000E+00  9.000E+00
       2    -1     0     0   501     0  0.000000000E+00  0.000000000E+00 -2.507749192E+03  2.507749192E+03  0.000000000E+00  0.00000E+00  9.000E+00
      25     1     1     2     0     0  3.453739947E+02 -1.042685568E+03 -6.227139677E+02  1.268808132E+03  1.250000000E+02  0.00000E+00  9.000E+00
      25     1     1     2     0     0 -3.923160700E+02  1.075196308E+03 -4.371152465E+02  1.231524964E+03  1.250000000E+02  0.00000E+00  9.000E+00
       2     1     1     2   502     0  4.694207534E+01 -3.251073942E+01 -7.265478465E+02  7.287882271E+02  0.000000000E+00  0.00000E+00  9.000E+00
#rwgt            1           1   2.4920790719229962E-002           1      114169           0
</event>
<event>
      5   9999  3.19816E-02  1.78295E+02 -1.00000E+00  1.13495E-01
      21    -1     0     0   502   501  0.000000000E+00  0.000000000E+00  1.920695035E+02  1.920695035E+02  0.000000000E+00  0.00000E+00  9.000E+00
      21    -1     0     0   501   511  0.000000000E+00  0.000000000E+00 -3.353215686E+02  3.353215686E+02  0.000000000E+00  0.00000E+00  9.000E+00
      25     1     1     2     0     0 -3.089420799E+01  7.398109379E+01 -4.957098839E+01  1.565564985E+02  1.250000000E+02  0.00000E+00  9.000E+00
      25     1     1     2     0     0 -1.253283195E+02  1.194634139E+01 -2.240500921E+01  1.788208242E+02  1.250000000E+02  0.00000E+00  9.000E+00
      21     1     1     2   502   511  1.562225274E+02 -8.592743517E+01 -7.127606749E+01  1.920137495E+02  1.651812370E-06  0.00000E+00  9.000E+00
#rwgt            1           1   1.3642659998489855E-002           1      114331           0
</event>
<event>
      5   9999  3.19816E-02  4.88032E+01 -1.00000E+00  1.39678E-01
      21    -1     0     0   502   512  0.000000000E+00  0.000000000E+00  1.635144825E+02  1.635144825E+02  0.000000000E+00  0.00000E+00  9.000E+00
      21    -1     0     0   501   502  0.000000000E+00  0.000000000E+00 -5.887985860E+02  5.887985860E+02  0.000000000E+00  0.00000E+00  9.000E+00
      25     1     1     2     0     0 -6.188532099E+01 -8.386073313E+01 -4.823140232E+02  5.090326438E+02  1.250000000E+02  0.00000E+00  9.000E+00
      25     1     1     2     0     0  1.097723839E+02  7.444879198E+01  6.565301452E+01  1.937212358E+02  1.250000000E+02  0.00000E+00  9.000E+00
      21     1     1     2   501   512 -4.788706294E+01  9.411941143E+00 -8.623094872E+00  4.955918884E+01  9.386548846E-07  0.00000E+00  9.000E+00
#rwgt            1           1   2.7249161476467904E-002           1      114386           0
</event>
<event>
      5   9999  3.19816E-02  1.99694E+01 -1.00000E+00  1.66424E-01
       2    -1     0     0   502     0  0.000000000E+00  0.000000000E+00  4.172250407E+03  4.172250407E+03  0.000000000E+00  0.00000E+00  9.000E+00
      21    -1     0     0   501   502  0.000000000E+00  0.000000000E+00 -4.897521673E+02  4.897521673E+02  0.000000000E+00  0.00000E+00  9.000E+00
      25     1     1     2     0     0  3.167830263E+02 -1.678629369E+02 -4.142373440E+01  3.819298065E+02  1.250000000E+02  0.00000E+00  9.000E+00
      25     1     1     2     0     0 -3.239595349E+02  1.864982300E+02 -1.383655333E+02  4.177336363E+02  1.250000000E+02  0.00000E+00  9.000E+00
       2     1     1     2   501     0  7.176508687E+00 -1.863529306E+01  3.862287508E+03  3.862339132E+03  4.315837288E-05  0.00000E+00  9.000E+00
#rwgt            1           1   2.9093285601926373E-002           1      114470           0
</event>
<event>
      5   9999  3.19816E-02  5.06125E+01 -1.00000E+00  1.38775E-01
      21    -1     0     0   502   511  0.000000000E+00  0.000000000E+00  1.190468089E+03  1.190468089E+03  0.000000000E+00  0.00000E+00  9.000E+00
      21    -1     0     0   501   502  0.000000000E+00  0.000000000E+00 -3.732128815E+02  3.732128815E+02  0.000000000E+00  0.00000E+00  9.000E+00
      25     1     1     2     0     0 -5.747552066E+01 -4.331574547E+02 -8.087150253E+00  4.545538670E+02  1.250000000E+02  0.00000E+00  9.000E+00
      25     1     1     2     0     0  1.030418753E+02  4.551876559E+02  2.739486843E+02  5.554154407E+02  1.250000000E+02  0.00000E+00  9.000E+00
      21     1     1     2   501   511 -4.556635462E+01 -2.203020116E+01  5.513936730E+02  5.537116624E+02  1.078959322E-05  0.00000E+00  9.000E+00
#rwgt            1           1   2.9299100709810771E-002           1      114607           0
</event>
<event>
      5   9999  3.19816E-02  3.00455E+01 -1.00000E+00  1.52994E-01
      21    -1     0     0   502   501  0.000000000E+00  0.000000000E+00  1.947901215E+02  1.947901215E+02  0.000000000E+00  0.00000E+00  9.000E+00
      21    -1     0     0   501   512  0.000000000E+00  0.000000000E+00 -4.541428531E+02  4.541428531E+02  0.000000000E+00  0.00000E+00  9.000E+00
      25     1     1     2     0     0 -1.052899106E+02  2.231127167E+02 -1.899131582E+02  3.354955399E+02  1.250000000E+02  0.00000E+00  9.000E+00
      25     1     1     2     0     0  1.191858468E+02 -1.964737459E+02 -2.920256427E+01  2.632204184E+02  1.250000000E+02  0.00000E+00  9.000E+00
      21     1     1     2   502   512 -1.389593621E+01 -2.663897085E+01 -4.023700914E+01  5.021701619E+01  9.536743164E-07  0.00000E+00  9.000E+00
#rwgt            1           1   3.1039808119352599E-002           1      114801           0
</event>
<event>
      5   9999  3.19816E-02  8.41228E+00 -1.00000E+00  2.04857E-01
      21    -1     0     0   511   501  0.000000000E+00  0.000000000E+00  2.439422874E+02  2.439422874E+02  0.000000000E+00  0.00000E+00  9.000E+00
      21    -1     0     0   501   502  0.000000000E+00  0.000000000E+00 -8.273585814E+02  8.273585814E+02  0.000000000E+00  0.00000E+00  9.000E+00
      25     1     1     2     0     0 -1.837413398E+02  1.405286936E+02 -9.257294915E+01  2.787542728E+02  1.250000000E+02  0.00000E+00  9.000E+00
      25     1     1     2     0     0  1.770933853E+02 -1.456834098E+02 -6.149722766E+02  6.681329388E+02  1.250000000E+02  0.00000E+00  9.000E+00
      21     1     1     2   511   502  6.647954552E+00  5.154716124E+00  1.241289317E+02  1.244136572E+02  1.907348633E-06  0.00000E+00  9.000E+00
#rwgt            1           1   3.2328390790612317E-002           1      114950           0
</event>
<event>
      5   9999  3.19816E-02  2.58058E+01 -1.00000E+00  1.57726E-01
      21    -1     0     0   512   501  0.000000000E+00  0.000000000E+00  1.855975777E+03  1.855975777E+03  0.000000000E+00  0.00000E+00  9.000E+00
      21    -1     0     0   501   502  0.000000000E+00  0.000000000E+00 -6.953547239E+01  6.953547239E+01  0.000000000E+00  0.00000E+00  9.000E+00
      25     1     1     2     0     0  2.233689989E+02  7.904717776E+01  7.030115178E+02  7.523246375E+02  1.250000000E+02  0.00000E+00  9.000E+00
      25     1     1     2     0     0 -2.095102194E+02 -5.727859728E+01  3.068463496E+02  3.961755318E+02  1.250000000E+02  0.00000E+00  9.000E+00
      21     1     1     2   512   502 -1.385877956E+01 -2.176858049E+01  7.765824368E+02  7.770110797E+02  1.078959322E-05  0.00000E+00  9.000E+00
#rwgt            1           1   2.8117142225179498E-002           1      115196           0
</event>
<event>
      5   9999  3.19816E-02  5.18768E+02 -1.00000E+00  9.83995E-02
      21    -1     0     0   511   501  0.000000000E+00  0.000000000E+00  9.099565701E+02  9.099565701E+02  0.000000000E+00  0.00000E+00  9.000E+00
      21    -1     0     0   501   502  0.000000000E+00  0.000000000E+00 -1.322696908E+03  1.322696908E+03  0.000000000E+00  0.00000E+00  9.000E+00
      25     1     1     2     0     0  1.225709883E+02  9.520664710E+02 -7.747784688E+01  9.711241059E+02  1.250000000E+02  0.00000E+00  9.000E+00
      25     1     1     2     0     0 -4.123378079E+02 -5.217698424E+02 -3.039814462E+02  7.418193553E+02  1.250000000E+02  0.00000E+00  9.000E+00
      21     1     1     2   511   502  2.897668196E+02 -4.302966286E+02 -3.128104529E+01  5.197100174E+02  6.217195897E-06  0.00000E+00  9.000E+00
#rwgt            2          11   2.9023953164939525E-003           1      115369           0
</event>
<event>
      5   9999  3.19816E-02  3.75509E+01 -1.00000E+00  1.46563E-01
      21    -1     0     0   502   501  0.000000000E+00  0.000000000E+00  2.066921680E+02  2.066921680E+02  0.000000000E+00  0.00000E+00  9.000E+00
      21    -1     0     0   501   512  0.000000000E+00  0.000000000E+00 -5.471549602E+02  5.471549602E+02  0.000000000E+00  0.00000E+00  9.000E+00
      25     1     1     2     0     0 -2.490474566E+02  4.791013871E+01 -2.638830369E+02  3.867547986E+02  1.250000000E+02  0.00000E+00  9.000E+00
      25     1     1     2     0     0  2.622814004E+02 -8.305179670E+01 -2.489422164E+01  3.032059634E+02  1.250000000E+02  0.00000E+00  9.000E+00
      21     1     1     2   502   512 -1.323394382E+01  3.514165798E+01 -5.168553374E+01  6.388636625E+01  9.536743164E-07  0.00000E+00  9.000E+00
#rwgt            1           1   3.0384999138152870E-002           1      115419           0
</event>
<event>
      5   9999  3.19816E-02  5.11171E+01 -1.00000E+00  1.38530E-01
      21    -1     0     0   511   501  0.000000000E+00  0.000000000E+00  5.604484805E+02  5.604484805E+02  0.000000000E+00  0.00000E+00  9.000E+00
      21    -1     0     0   501   502  0.000000000E+00  0.000000000E+00 -2.335942628E+02  2.335942628E+02  0.000000000E+00  0.00000E+00  9.000E+00
      25     1     1     2     0     0  5.693926135E+01 -2.961963822E+02  1.923629888E+02  3.789497273E+02  1.250000000E+02  0.00000E+00  9.000E+00
      25     1     1     2     0     0 -1.076743094E+02  2.899579727E+02  8.572708354E+01  3.444466805E+02  1.250000000E+02  0.00000E+00  9.000E+00
      21     1     1     2   511   502  5.073504807E+01  6.238409559E+00  4.876414533E+01  7.064633555E+01  9.536743164E-07  0.00000E+00  9.000E+00
#rwgt            1           1   2.5292737810778967E-002           1      115550           0
</event>
<event>
      5   9999  3.19816E-02  4.03682E+02 -1.00000E+00  1.01566E-01
      21    -1     0     0   502   501  0.000000000E+00  0.000000000E+00  7.486261772E+02  7.486261772E+02  0.000000000E+00  0.00000E+00  9.000E+00
      21    -1     0     0   512   502  0.000000000E+00  0.000000000E+00 -2.113441633E+03  2.113441633E+03  0.000000000E+00  0.00000E+00  9.000E+00
      25     1     1     2     0     0  2.029919077E+02  1.081950769E+02 -1.105294826E+03  1.135875672E+03  1.250000000E+02  0.00000E+00  9.000E+00
      25     1     1     2     0     0 -2.252824427E+02 -5.112608978E+02  5.673712229E+02  8.060241865E+02  1.250000000E+02  0.00000E+00  9.000E+00
      21     1     1     2   512   501  2.229053499E+01  4.030658208E+02 -8.268918531E+02  9.201679524E+02  1.078959322E-05  0.00000E+00  9.000E+00
#rwgt            2          11   1.9049001710131502E-003           1      115642           0
</event>
<event>
      5   9999  3.19816E-02  1.24348E+01 -1.00000E+00  1.85417E-01
      21    -1     0     0   511   501  0.000000000E+00  0.000000000E+00  8.593901683E+01  8.593901683E+01  0.000000000E+00  0.00000E+00  9.000E+00
      21    -1     0     0   501   502  0.000000000E+00  0.000000000E+00 -7.577015038E+02  7.577015038E+02  0.000000000E+00  0.00000E+00  9.000E+00
      25     1     1     2     0     0 -4.926892868E+01  5.428554829E+01  4.826954574E-01  1.449123220E+02  1.250000000E+02  0.00000E+00  9.000E+00
      25     1     1     2     0     0  3.701447750E+01 -5.639593142E+01 -6.714045284E+02  6.862649731E+02  1.250000000E+02  0.00000E+00  9.000E+00
      21     1     1     2   511   502  1.225445117E+01  2.110383132E+00 -8.406540946E-01  1.246322550E+01  8.624670582E-08  0.00000E+00  9.000E+00
#rwgt            1           1   3.1364072821710900E-002           1      115707           0
</event>
<event>
      5   9999  3.19816E-02  4.40310E+02 -1.00000E+00  1.00446E-01
       1    -1     0     0   502     0  0.000000000E+00  0.000000000E+00  1.737635514E+03  1.737635514E+03  0.000000000E+00  0.00000E+00  9.000E+00
      21    -1     0     0   501   502  0.000000000E+00  0.000000000E+00 -5.311601234E+02  5.311601234E+02  0.000000000E+00  0.00000E+00  9.000E+00
      25     1     1     2     0     0  9.503467683E+01 -1.602750225E+02  6.874672745E+02  7.231569167E+02  1.250000000E+02  0.00000E+00  9.000E+00
      25     1     1     2     0     0 -4.848932962E+02  3.649278365E+02 -2.430058531E+02  6.655604249E+02  1.250000000E+02  0.00000E+00  9.000E+00
       1     1     1     2   501     0  3.898586194E+02 -2.046528140E+02  7.620139691E+02  8.800782956E+02  1.078959322E-05  0.00000E+00  9.000E+00
#rwgt            1           1   2.1926598249531085E-002           1      115891           0
</event>
<event>
      5   9999  3.19816E-02  1.05346E+01 -1.00000E+00  1.93178E-01
      21    -1     0     0   502   501  0.000000000E+00  0.000000000E+00  4.116397692E+02  4.116397692E+02  0.000000000E+00  0.00000E+00  9.000E+00
      21    -1     0     0   501   511  0.000000000E+00  0.000000000E+00 -2.112296832E+02  2.112296832E+02  0.000000000E+00  0.00000E+00  9.000E+00
      25     1     1     2     0     0  7.492512218E+01  7.296447587E+01  2.830704712E+02  3.266366182E+02  1.250000000E+02  0.00000E+00  9.000E+00
      25     1     1     2     0     0 -8.319593835E+01 -6.643977395E+01  4.331751295E+01  1.698152368E+02  1.250000000E+02  0.00000E+00  9.000E+00
      21     1     1     2   502   511  8.270816167E+00 -6.524701922E+00 -1.259778981E+02  1.264175975E+02  0.000000000E+00  0.00000E+00  9.000E+00
#rwgt            1           1   2.9600910307553314E-002           1      115943           0
</event>
<event>
      5   9999  3.19816E-02  5.95896E+01 -1.00000E+00  1.34863E-01
       2    -1     0     0   502     0  0.000000000E+00  0.000000000E+00  1.011274666E+03  1.011274666E+03  0.000000000E+00  0.00000E+00  9.000E+00
      21    -1     0     0   501   502  0.000000000E+00  0.000000000E+00 -2.696987964E+02  2.696987964E+02  0.000000000E+00  0.00000E+00  9.000E+00
      25     1     1     2     0     0 -2.063473096E+02  1.635681940E+02 -1.086133749E+02  3.110556726E+02  1.250000000E+02  0.00000E+00  9.000E+00
      25     1     1     2     0     0  1.502577670E+02 -1.434465344E+02  1.926033696E+02  3.096374699E+02  1.250000000E+02  0.00000E+00  9.000E+00
       2     1     1     2   501     0  5.608954254E+01 -2.012165956E+01  6.575858749E+02  6.602803199E+02  0.000000000E+00  0.00000E+00  9.000E+00
#rwgt            1           1   2.4854607976282975E-002           1      116062           0
</event>
<event>
      5   9999  3.19816E-02  3.68832E+01 -1.00000E+00  1.47060E-01
      21    -1     0     0   502   501  0.000000000E+00  0.000000000E+00  2.777661800E+02  2.777661800E+02  0.000000000E+00  0.00000E+00  9.000E+00
      21    -1     0     0   501   511  0.000000000E+00  0.000000000E+00 -3.432463606E+02  3.432463606E+02  0.000000000E+00  0.00000E+00  9.000E+00
      25     1     1     2     0     0 -1.271356186E+02  1.780467620E+02  1.850723590E+00  2.519772612E+02  1.250000000E+02  0.00000E+00  9.000E+00
      25     1     1     2     0     0  9.968153174E+01 -1.534165803E+02  6.559593930E+01  2.310863089E+02  1.250000000E+02  0.00000E+00  9.000E+00
      21     1     1     2   502   511  2.745408685E+01 -2.463018167E+01 -1.329268435E+02  1.379489705E+02  1.907348633E-06  0.00000E+00  9.000E+00
#rwgt            1           1   2.7254067850281616E-002           1      116139           0
</event>
<event>
      5   9999  3.19816E-02  1.63151E+02 -1.00000E+00  1.14965E-01
       2    -1     0     0   502     0  0.000000000E+00  0.000000000E+00  1.666846221E+03  1.666846221E+03  0.000000000E+00  0.00000E+00  9.000E+00
      21    -1     0     0   501   502  0.000000000E+00  0.000000000E+00 -1.576122165E+02  1.576122165E+02  0.000000000E+00  0.00000E+00  9.000E+00
      25     1     1     2     0     0  2.763717969E+02  1.884524210E+02  5.217102964E+02  6.322201503E+02  1.250000000E+02  0.00000E+00  9.000E+00
      25     1     1     2     0     0 -4.247614219E+02 -1.206385314E+02  8.921368141E+02  1.003249229E+03  1.250000000E+02  0.00000E+00  9.000E+00
       2     1     1     2   501     0  1.483896250E+02 -6.781388965E+01  9.538689386E+01  1.889890578E+02  3.303624740E-06  0.00000E+00  9.000E+00
#rwgt            1           1   2.8574198413379031E-002           1      116225           0
</event>
<event>
      5   9999  3.19816E-02  1.06483E+02 -1.00000E+00  1.22613E-01
      21    -1     0     0   502   501  0.000000000E+00  0.000000000E+00  1.942061734E+02  1.942061734E+02  0.000000000E+00  0.00000E+00  9.000E+00
       1    -1     0     0   501     0  0.000000000E+00  0.000000000E+00 -6.133933405E+02  6.133933405E+02  0.000000000E+00  0.00000E+00  9.000E+00
      25     1     1     2     0     0  1.650686798E+02  8.186283136E+01  7.027686992E+01  2.334802576E+02  1.250000000E+02  0.00000E+00  9.000E+00
      25     1     1     2     0     0 -7.029982424E+01 -3.330938878E+01 -1.209824219E+02  1.905605601E+02  1.250000000E+02  0.00000E+00  9.000E+00
       1     1     1     2   502     0 -9.476885561E+01 -4.855344258E+01 -3.684816150E+02  3.835586962E+02  0.000000000E+00  0.00000E+00  9.000E+00
#rwgt            1           1   3.1639082594493571E-002           1      116292           0
</event>
<event>
      5   9999  3.19816E-02  9.43803E+00 -1.00000E+00  1.98706E-01
      21    -1     0     0   502   501  0.000000000E+00  0.000000000E+00  6.455193367E+02  6.455193367E+02  0.000000000E+00  0.00000E+00  9.000E+00
      21    -1     0     0   511   502  0.000000000E+00  0.000000000E+00 -1.734922105E+02  1.734922105E+02  0.000000000E+00  0.00000E+00  9.000E+00
      25     1     1     2     0     0  4.657829222E+01 -1.601842322E+02  2.520222063E+02  3.270607253E+02  1.250000000E+02  0.00000E+00  9.000E+00
      25     1     1     2     0     0 -3.898479694E+01  1.657891700E+02  3.244023923E+02  3.871275958E+02  1.250000000E+02  0.00000E+00  9.000E+00
      21     1     1     2   511   501 -7.593495284E+00 -5.604937837E+00 -1.043974724E+02  1.048232261E+02  1.348699152E-06  0.00000E+00  9.000E+00
#rwgt            1           1   2.8951014271558675E-002           1      116477           0
</event>
<event>
      5   9999  3.19816E-02  3.30476E+01 -1.00000E+00  1.50178E-01
      21    -1     0     0   502   501  0.000000000E+00  0.000000000E+00  1.861385674E+02  1.861385674E+02  0.000000000E+00  0.00000E+00  9.000E+00
      21    -1     0     0   501   512  0.000000000E+00  0.000000000E+00 -3.193381845E+02  3.193381845E+02  0.000000000E+00  0.00000E+00  9.000E+00
      25     1     1     2     0     0 -4.928787366E+01 -1.117007328E+02 -1.768782814E+02  2.486307998E+02  1.250000000E+02  0.00000E+00  9.000E+00
      25     1     1     2     0     0  7.839569409E+01  9.605207168E+01  9.173346938E+01  1.985243429E+02  1.250000000E+02  0.00000E+00  9.000E+00
      21     1     1     2   502   512 -2.910782043E+01  1.564866110E+01 -4.805480507E+01  5.832160916E+01  9.536743164E-07  0.00000E+00  9.000E+00
#rwgt            1           1   3.1158486848452377E-002           1      116660           0
</event>
<event>
      5   9999  3.19816E-02  2.12310E+01 -1.00000E+00  1.64257E-01
      21    -1     0     0   502   501  0.000000000E+00  0.000000000E+00  2.254001671E+02  2.254001671E+02  0.000000000E+00  0.00000E+00  9.000E+00
      21    -1     0     0   511   502  0.000000000E+00  0.000000000E+00 -1.544239414E+02  1.544239414E+02  0.000000000E+00  0.00000E+00  9.000E+00
      25     1     1     2     0     0  6.442346585E+01  8.858214092E+01  2.781458990E+01  1.685106230E+02  1.250000000E+02  0.00000E+00  9.000E+00
      25     1     1     2     0     0 -8.175486412E+01 -1.008449982E+02  5.309067004E+01  1.878754660E+02  1.250000000E+02  0.00000E+00  9.000E+00
      21     1     1     2   511   501  1.733139827E+01  1.226285730E+01 -9.929034248E+00  2.343801946E+01  3.153981341E-07  0.00000E+00  9.000E+00
#rwgt            1           1   2.8152587097542835E-002           1      116752           0
</event>
<event>
      5   9999  3.19816E-02  3.40266E+01 -1.00000E+00  1.49335E-01
      21    -1     0     0   502   501  0.000000000E+00  0.000000000E+00  6.636807638E+01  6.636807638E+01  0.000000000E+00  0.00000E+00  9.000E+00
      21    -1     0     0   512   502  0.000000000E+00  0.000000000E+00 -2.370861427E+03  2.370861427E+03  0.000000000E+00  0.00000E+00  9.000E+00
      25     1     1     2     0     0 -6.582887951E+01 -2.133181431E+02 -2.280688741E+02  3.427513427E+02  1.250000000E+02  0.00000E+00  9.000E+00
      25     1     1     2     0     0  4.258467586E+01  1.884682124E+02 -1.554038660E+03  1.570985321E+03  1.250000000E+02  0.00000E+00  9.000E+00
      21     1     1     2   512   501  2.324420366E+01  2.484993071E+01 -5.223858162E+02  5.234928396E+02  1.321449896E-05  0.00000E+00  9.000E+00
#rwgt            1           1   2.9221429696123152E-002           1      117007           0
</event>
<event>
      5   9999  3.19816E-02  4.27665E+01 -1.00000E+00  1.43062E-01
      21    -1     0     0   502   501  0.000000000E+00  0.000000000E+00  2.112417557E+03  2.112417557E+03  0.000000000E+00  0.00000E+00  9.000E+00
      21    -1     0     0   501   511  0.000000000E+00  0.000000000E+00 -1.015473261E+02  1.015473261E+02  0.000000000E+00  0.00000E+00  9.000E+00
      25     1     1     2     0     0 -8.729120452E+01  1.648064860E+02  2.110623046E+02  3.081448176E+02  1.250000000E+02  0.00000E+00  9.000E+00
      25     1     1     2     0     0  1.296822502E+02 -1.591517989E+02  1.834852869E+03  1.850528798E+03  1.250000000E+02  0.00000E+00  9.000E+00
      21     1     1     2   502   511 -4.239104572E+01 -5.654687122E+00 -3.504494279E+01  5.529126747E+01  1.719260824E-06  0.00000E+00  9.000E+00
#rwgt            1           1   2.5192086663747976E-002           1      117186           0
</event>
<event>
      5   9999  3.19816E-02  5.30047E+01 -1.00000E+00  1.37645E-01
      21    -1     0     0   502   501  0.000000000E+00  0.000000000E+00  2.497005948E+02  2.497005948E+02  0.000000000E+00  0.00000E+00  9.000E+00
      21    -1     0     0   512   502  0.000000000E+00  0.000000000E+00 -5.525204085E+02  5.525204085E+02  0.000000000E+00  0.00000E+00  9.000E+00
      25     1     1     2     0     0 -5.162694735E+01  9.317489940E+01 -1.001609672E+02  1.923645573E+02  1.250000000E+02  0.00000E+00  9.000E+00
      25     1     1     2     0     0  1.017034134E+02 -1.105485946E+02  1.542935501E+02  2.489901116E+02  1.250000000E+02  0.00000E+00  9.000E+00
      21     1     1     2   512   501 -5.007646604E+01  1.737369522E+01 -3.569523967E+02  3.608663344E+02  3.814697266E-06  0.00000E+00  9.000E+00
#rwgt            1           1   2.7698300903570037E-002           1      117321           0
</event>
<event>
      5   9999  3.19816E-02  2.08461E+01 -1.00000E+00  1.64898E-01
      21    -1     0     0   502   501  0.000000000E+00  0.000000000E+00  3.203918170E+02  3.203918170E+02  0.000000000E+00  0.00000E+00  9.000E+00
       2    -1     0     0   501     0  0.000000000E+00  0.000000000E+00 -1.646466027E+03  1.646466027E+03  0.000000000E+00  0.00000E+00  9.000E+00
      25     1     1     2     0     0  5.041971760E+02 -1.367417135E+02 -2.038982434E+02  5.745542465E+02  1.250000000E+02  0.00000E+00  9.000E+00
      25     1     1     2     0     0 -4.860436105E+02  1.469890729E+02 -3.718091535E+02  6.416472750E+02  1.250000000E+02  0.00000E+00  9.000E+00
       2     1     1     2   502     0 -1.815356548E+01 -1.024735940E+01 -7.503668126E+02  7.506563220E+02  0.000000000E+00  0.00000E+00  9.000E+00
#rwgt            1           1   3.2680181197912016E-002           1      117420           0
</event>
<event>
      5   9999  3.19816E-02  6.61710E+01 -1.00000E+00  1.32470E-01
      21    -1     0     0   502   501  0.000000000E+00  0.000000000E+00  8.391783247E+02  8.391783247E+02  0.000000000E+00  0.00000E+00  9.000E+00
      21    -1     0     0   511   502  0.000000000E+00  0.000000000E+00 -1.364838557E+02  1.364838557E+02  0.000000000E+00  0.00000E+00  9.000E+00
      25     1     1     2     0     0  4.223175933E+01 -2.390849326E+01  2.896218260E+02  3.191566068E+02  1.250000000E+02  0.00000E+00  9.000E+00
      25     1     1     2     0     0 -1.078907551E+02  3.212388960E+01  5.111920341E+02  5.381585780E+02  1.250000000E+02  0.00000E+00  9.000E+00
      21     1     1     2   511   501  6.565899573E+01 -8.215396345E+00 -9.811939116E+01  1.183469957E+02  2.336015456E-06  0.00000E+00  9.000E+00
#rwgt            2          11   5.4564973120347195E-003           1      117649           0
</event>
<event>
      5   9999  3.19816E-02  1.59497E+01 -1.00000E+00  1.74908E-01
      21    -1     0     0   512   501  0.000000000E+00  0.000000000E+00  9.007381524E+02  9.007381524E+02  0.000000000E+00  0.00000E+00  9.000E+00
      21    -1     0     0   501   502  0.000000000E+00  0.000000000E+00 -2.682405312E+02  2.682405312E+02  0.000000000E+00  0.00000E+00  9.000E+00
      25     1     1     2     0     0 -1.989727647E+02 -3.149287700E+02  4.633427624E+02  6.075210340E+02  1.250000000E+02  0.00000E+00  9.000E+00
      25     1     1     2     0     0  1.839565674E+02  3.095523585E+02 -1.029026677E+01  3.813050890E+02  1.250000000E+02  0.00000E+00  9.000E+00
      21     1     1     2   512   502  1.501619728E+01  5.376411565E+00  1.794451255E+02  1.801525605E+02  2.697398305E-06  0.00000E+00  9.000E+00
#rwgt            1           1   2.5370549575117838E-002           1      117714           0
</event>
<event>
      5   9999  3.19816E-02  3.24574E+01 -1.00000E+00  1.50702E-01
      21    -1     0     0   502   501  0.000000000E+00  0.000000000E+00  3.522749840E+02  3.522749840E+02  0.000000000E+00  0.00000E+00  9.000E+00
       2    -1     0     0   501     0  0.000000000E+00  0.000000000E+00 -2.473962431E+03  2.473962431E+03  0.000000000E+00  0.00000E+00  9.000E+00
      25     1     1     2     0     0 -1.631140491E+02  6.058889096E+02 -1.203221168E+02  6.510068936E+02  1.250000000E+02  0.00000E+00  9.000E+00
      25     1     1     2     0     0  1.325878888E+02 -6.169177448E+02 -1.107386568E+03  1.280662743E+03  1.250000000E+02  0.00000E+00  9.000E+00
       2     1     1     2   502     0  3.052616034E+01  1.102883527E+01 -8.939787630E+02  8.945677785E+02  1.525878906E-05  0.00000E+00  9.000E+00
#rwgt            2          13   1.2508007142020678E-003           1      117977           0
</event>
<event>
      5   9999  3.19816E-02  1.07138E+02 -1.00000E+00  1.22496E-01
      21    -1     0     0   511   501  0.000000000E+00  0.000000000E+00  1.203369465E+03  1.203369465E+03  0.000000000E+00  0.00000E+00  9.000E+00
      21    -1     0     0   501   502  0.000000000E+00  0.000000000E+00 -7.052317456E+02  7.052317456E+02  0.000000000E+00  0.00000E+00  9.000E+00
      25     1     1     2     0     0  4.894307266E+02 -5.586742898E+02 -2.012990615E+01  7.534517976E+02  1.250000000E+02  0.00000E+00  9.000E+00
      25     1     1     2     0     0 -5.960469567E+02  5.481116044E+02  2.351217419E+02  8.524116018E+02  1.250000000E+02  0.00000E+00  9.000E+00
      21     1     1     2   511   502  1.066162300E+02  1.056268540E+01  2.831458837E+02  3.027378111E+02  3.814697266E-06  0.00000E+00  9.000E+00
#rwgt            1           1   3.3203328063390720E-002           1      118011           0
</event>
<event>
      5   9999  3.19816E-02  2.66692E+01 -1.00000E+00  1.56677E-01
      21    -1     0     0   502   512  0.000000000E+00  0.000000000E+00  3.392279989E+02  3.392279989E+02  0.000000000E+00  0.00000E+00  9.000E+00
      21    -1     0     0   501   502  0.000000000E+00  0.000000000E+00 -2.153339419E+02  2.153339419E+02  0.000000000E+00  0.00000E+00  9.000E+00
      25     1     1     2     0     0  1.833393335E+02  1.007381435E+02  1.545964622E+02  2.885940936E+02  1.250000000E+02  0.00000E+00  9.000E+00
      25     1     1     2     0     0 -1.581542177E+02 -9.196564947E+01 -5.670978277E+01  2.287169358E+02  1.250000000E+02  0.00000E+00  9.000E+00
      21     1     1     2   501   512 -2.518511573E+01 -8.772494039E+00  2.600737770E+01  3.725091141E+01  3.371747881E-07  0.00000E+00  9.000E+00
#rwgt            1           1   2.5953278252418634E-002           1      118168           0
</event>
<event>
      5   9999  3.19816E-02  1.41921E+02 -1.00000E+00  1.17355E-01
      -5    -1     0     0     0   501  0.000000000E+00  0.000000000E+00  1.694797120E+02  1.694797120E+02  0.000000000E+00  0.00000E+00  9.000E+00
      21    -1     0     0   501   502  0.000000000E+00  0.000000000E+00 -7.985529887E+02  7.985529887E+02  0.000000000E+00  0.00000E+00  9.000E+00
      25     1     1     2     0     0 -2.023818344E+02  8.364352728E+01 -1.209066557E+02  2.796391710E+02  1.250000000E+02  0.00000E+00  9.000E+00
      25     1     1     2     0     0  6.931188705E+01 -3.430856452E+01  1.364884197E+01  1.476228511E+02  1.250000000E+02  0.00000E+00  9.000E+00
      -5     1     1     2     0   502  1.330699473E+02 -4.933496276E+01 -5.218154630E+02  5.407706786E+02  7.629394531E-06  0.00000E+00  9.000E+00
#rwgt            1           1   2.9946554395207155E-002           1      118287           0
</event>
<event>
      5   9999  3.19816E-02  7.20487E+01 -1.00000E+00  1.30589E-01
      21    -1     0     0   502   511  0.000000000E+00  0.000000000E+00  8.571727050E+02  8.571727050E+02  0.000000000E+00  0.00000E+00  9.000E+00
      21    -1     0     0   501   502  0.000000000E+00  0.000000000E+00 -2.503361479E+03  2.503361479E+03  0.000000000E+00  0.00000E+00  9.000E+00
      25     1     1     2     0     0  5.582092548E+02 -2.305569084E+02 -7.293351044E+02  9.551485511E+02  1.250000000E+02  0.00000E+00  9.000E+00
      25     1     1     2     0     0 -5.530122753E+02  1.586958572E+02 -1.607017007E+03  1.711471768E+03  1.250000000E+02  0.00000E+00  9.000E+00
      21     1     1     2   501   511 -5.196979495E+00  7.186105124E+01  6.901633376E+02  6.939138649E+02  1.078959322E-05  0.00000E+00  9.000E+00
#rwgt            1           1   2.8497246212087782E-002           1      118349           0
</event>
<event>
      5   9999  3.19816E-02  6.26683E+01 -1.00000E+00  1.33701E-01
       2    -1     0     0   502     0  0.000000000E+00  0.000000000E+00  2.281291123E+03  2.281291123E+03  0.000000000E+00  0.00000E+00  9.000E+00
      21    -1     0     0   501   502  0.000000000E+00  0.000000000E+00 -8.388827014E+02  8.388827014E+02  0.000000000E+00  0.00000E+00  9.000E+00
      25     1     1     2     0     0 -3.754777348E+02  5.656447081E+02 -6.033518171E+02  9.168401607E+02  1.250000000E+02  0.00000E+00  9.000E+00
      25     1     1     2     0     0  3.254678024E+02 -6.034114313E+02  1.499951280E+03  1.653938780E+03  1.250000000E+02  0.00000E+00  9.000E+00
       2     1     1     2   501     0  5.000993245E+01  3.776672317E+01  5.458089593E+02  5.493948841E+02  7.629394531E-06  0.00000E+00  9.000E+00
#rwgt            1           1   6.6243437655088055E-002           1      118453           0
</event>
<event>
      5   9999  3.19816E-02  7.16085E+01 -1.00000E+00  1.30723E-01
      21    -1     0     0   502   511  0.000000000E+00  0.000000000E+00  3.809088338E+02  3.809088338E+02  0.000000000E+00  0.00000E+00  9.000E+00
      21    -1     0     0   501   502  0.000000000E+00  0.000000000E+00 -2.908663207E+02  2.908663207E+02  0.000000000E+00  0.00000E+00  9.000E+00
      25     1     1     2     0     0 -1.570791476E+02  1.948368540E+02  1.040039910E+02  2.984578503E+02  1.250000000E+02  0.00000E+00  9.000E+00
      25     1     1     2     0     0  2.166087840E+02 -1.550373897E+02 -4.035246577E+01  2.970004697E+02  1.250000000E+02  0.00000E+00  9.000E+00
      21     1     1     2   501   511 -5.952963648E+01 -3.979946422E+01  2.639098795E+01  7.631683443E+01  8.920806376E-07  0.00000E+00  9.000E+00
#rwgt            1           1   2.9187796259939464E-002           1      118629           0
</event>
<event>
      5   9999  3.19816E-02  3.90338E+02 -1.00000E+00  1.02006E-01
      21    -1     0     0   502   512  0.000000000E+00  0.000000000E+00  1.130061240E+03  1.130061240E+03  0.000000000E+00  0.00000E+00  9.000E+00
      21    -1     0     0   501   502  0.000000000E+00  0.000000000E+00 -1.077583384E+03  1.077583384E+03  0.000000000E+00  0.00000E+00  9.000E+00
      25     1     1     2     0     0  5.199334956E+02 -1.295589079E+02  4.355598601E+02  7.017504843E+02  1.250000000E+02  0.00000E+00  9.000E+00
      25     1     1     2     0     0 -9.004741676E+02  2.164636377E+02 -5.466573959E+02  1.082667789E+03  1.250000000E+02  0.00000E+00  9.000E+00
      21     1     1     2   501   512  3.805406720E+02 -8.690472985E+01  1.635753920E+02  4.232263508E+02  1.078959322E-05  0.00000E+00  9.000E+00
#rwgt            2          11   4.4040733169966552E-003           1      118713           0
</event>
<event>
      5   9999  3.19816E-02  4.42913E+01 -1.00000E+00  1.42148E-01
      21    -1     0     0   502   501  0.000000000E+00  0.000000000E+00  7.989633512E+02  7.989633512E+02  0.000000000E+00  0.00000E+00  9.000E+00
      21    -1     0     0   511   502  0.000000000E+00  0.000000000E+00 -3.263872022E+02  3.263872022E+02  0.000000000E+00  0.00000E+00  9.000E+00
      25     1     1     2     0     0  4.939341443E+01 -3.027398196E+02  6.301997277E+02  7.119464900E+02  1.250000000E+02  0.00000E+00  9.000E+00
      25     1     1     2     0     0 -9.213714581E+01  2.911341985E+02 -1.643165253E+02  3.686099506E+02  1.250000000E+02  0.00000E+00  9.000E+00
      21     1     1     2   511   501  4.274373138E+01  1.160562104E+01  6.692946528E+00  4.479411284E+01  8.596304120E-07  0.00000E+00  9.000E+00
#rwgt            1           1   2.8219757325117171E-002           1      118778           0
</event>
<event>
      5   9999  3.19816E-02  7.83948E+01 -1.00000E+00  1.28777E-01
      21    -1     0     0   502   501  0.000000000E+00  0.000000000E+00  1.765890102E+02  1.765890102E+02  0.000000000E+00  0.00000E+00  9.000E+00
      21    -1     0     0   501   512  0.000000000E+00  0.000000000E+00 -2.476928692E+03  2.476928692E+03  0.000000000E+00  0.00000E+00  9.000E+00
      25     1     1     2     0     0 -2.043035373E+02  3.276775648E+02 -1.086329575E+02  4.201650167E+02  1.250000000E+02  0.00000E+00  9.000E+00
      25     1     1     2     0     0  1.355925987E+02 -2.899344229E+02 -1.600467567E+03  1.636938837E+03  1.250000000E+02  0.00000E+00  9.000E+00
      21     1     1     2   502   512  6.871093859E+01 -3.774314195E+01 -5.912391572E+02  5.964138486E+02  7.629394531E-06  0.00000E+00  9.000E+00
#rwgt            1           1   3.0316683448146347E-002           1      119023           0
</event>
<event>
      5   9999  3.19816E-02  4.05546E+01 -1.00000E+00  1.44470E-01
      21    -1     0     0   502   511  0.000000000E+00  0.000000000E+00  1.352194402E+03  1.352194402E+03  0.000000000E+00  0.00000E+00  9.000E+00
      21    -1     0     0   501   502  0.000000000E+00  0.000000000E+00 -9.256790462E+01  9.256790462E+01  0.000000000E+00  0.00000E+00  9.000E+00
      25     1     1     2     0     0 -3.466949691E+01 -2.705128223E+02  8.104347479E+02  8.641809079E+02  1.250000000E+02  0.00000E+00  9.000E+00
      25     1     1     2     0     0  1.842910355E+01  2.333520601E+02  2.111772113E+02  3.391365955E+02  1.250000000E+02  0.00000E+00  9.000E+00
      21     1     1     2   501   511  1.624039336E+01  3.716076214E+01  2.380145385E+02  2.414448035E+02  2.697398305E-06  0.00000E+00  9.000E+00
#rwgt            1           1   3.2611648953534099E-002           1      119158           0
</event>
<event>
      5   9999  3.19816E-02  2.62648E+02 -1.00000E+00  1.07503E-01
      -3    -1     0     0     0   501  0.000000000E+00  0.000000000E+00  4.355241794E+02  4.355241794E+02  0.000000000E+00  0.00000E+00  9.000E+00
      21    -1     0     0   501   502  0.000000000E+00  0.000000000E+00 -1.068356030E+03  1.068356030E+03  0.000000000E+00  0.00000E+00  9.000E+00
      25     1     1     2     0     0  1.110633459E+02  8.149603115E+01 -8.747376634E+01  2.055561473E+02  1.250000000E+02  0.00000E+00  9.000E+00
      25     1     1     2     0     0 -2.338003017E+02  1.507100328E+02 -8.458971971E+02  8.991902820E+02  1.250000000E+02  0.00000E+00  9.000E+00
      -3     1     1     2     0   502  1.227369558E+02 -2.322060639E+02  3.005391126E+02  3.991337804E+02  5.394796609E-06  0.00000E+00  9.000E+00
#rwgt            1           1   2.5791951251571261E-002           1      119298           0
</event>
<event>
      5   9999  3.19816E-02  9.24496E+01 -1.00000E+00  1.25381E-01
      21    -1     0     0   502   501  0.000000000E+00  0.000000000E+00  8.915577884E+02  8.915577884E+02  0.000000000E+00  0.00000E+00  9.000E+00
      21    -1     0     0   501   511  0.000000000E+00  0.000000000E+00 -3.791664116E+02  3.791664116E+02  0.000000000E+00  0.00000E+00  9.000E+00
      25     1     1     2     0     0  8.957084408E+01  6.984520832E+01 -2.900493976E+01  1.713697049E+02  1.250000000E+02  0.00000E+00  9.000E+00
      25     1     1     2     0     0  2.749765101E+00 -7.472799201E+01  8.060047789E+02  8.190607655E+02  1.250000000E+02  0.00000E+00  9.000E+00
      21     1     1     2   502   511 -9.232060918E+01  4.882783681E+00 -2.646084624E+02  2.802937295E+02  3.814697266E-06  0.00000E+00  9.000E+00
#rwgt            1           1   2.5872308041387553E-002           1      119333           0
</event>
<event>
      5   9999  3.19816E-02  4.50593E+01 -1.00000E+00  1.41704E-01
      21    -1     0     0   502   501  0.000000000E+00  0.000000000E+00  1.008134982E+03  1.008134982E+03  0.000000000E+00  0.00000E+00  9.000E+00
      21    -1     0     0   512   502  0.000000000E+00  0.000000000E+00 -3.068136684E+02  3.068136684E+02  0.000000000E+00  0.00000E+00  9.000E+00
      25     1     1     2     0     0 -1.364230557E+02 -3.157637976E+02 -1.304412375E+02  3.885330648E+02  1.250000000E+02  0.00000E+00  9.000E+00
      25     1     1     2     0     0  1.009328895E+02  2.880007646E+02  8.134863302E+02  8.777909193E+02  1.250000000E+02  0.00000E+00  9.000E+00
      21     1     1     2   512   501  3.549016616E+01  2.776303296E+01  1.827622045E+01  4.862466583E+01  6.307962682E-07  0.00000E+00  9.000E+00
#rwgt            1           1   3.0539207312923183E-002           1      119392           0
</event>
<event>
      5   9999  3.19816E-02  6.44186E+02 -1.00000E+00  9.58232E-02
       1    -1     0     0   502     0  0.000000000E+00  0.000000000E+00  2.467976861E+03  2.467976861E+03  0.000000000E+00  0.00000E+00  9.000E+00
      21    -1     0     0   501   502  0.000000000E+00  0.000000000E+00 -2.752792484E+02  2.752792484E+02  0.000000000E+00  0.00000E+00  9.000E+00
      25     1     1     2     0     0 -4.732059178E+01  5.935160706E+02  5.143259591E+02  7.966534734E+02  1.250000000E+02  0.00000E+00  9.000E+00
      25     1     1     2     0     0  1.460454816E+02  4.306001129E+01  6.189116649E+01  2.064920428E+02  1.250000000E+02  0.00000E+00  9.000E+00
       1     1     1     2   501     0 -9.872488978E+01 -6.365760819E+02  1.616480487E+03  1.740110593E+03  2.157918644E-05  0.00000E+00  9.000E+00
#rwgt            2          17   7.0139297385835573E-004           1      119567           0
</event>
<event>
      5   9999  3.19816E-02  9.03966E+01 -1.00000E+00  1.25833E-01
      21    -1     0     0   502   501  0.000000000E+00  0.000000000E+00  4.425865244E+02  4.425865244E+02  0.000000000E+00  0.00000E+00  9.000E+00
      -1    -1     0     0     0   502  0.000000000E+00  0.000000000E+00 -5.717737863E+02  5.717737863E+02  0.000000000E+00  0.00000E+00  9.000E+00
      25     1     1     2     0     0  1.710110092E+02 -1.492329925E+02  3.432740325E+02  4.300898891E+02  1.250000000E+02  0.00000E+00  9.000E+00
      25     1     1     2     0     0 -1.991231192E+02  6.331880598E+01 -2.762483896E+02  3.682356047E+02  1.250000000E+02  0.00000E+00  9.000E+00
      -1     1     1     2     0   501  2.811210993E+01  8.591418651E+01 -1.962129047E+02  2.160348170E+02  2.697398305E-06  0.00000E+00  9.000E+00
#rwgt            1           1   2.9124373998443226E-002           1      119601           0
</event>
<event>
      5   9999  3.19816E-02  1.87827E+02 -1.00000E+00  1.12650E-01
      21    -1     0     0   502   501  0.000000000E+00  0.000000000E+00  3.580643556E+02  3.580643556E+02  0.000000000E+00  0.00000E+00  9.000E+00
      -3    -1     0     0     0   502  0.000000000E+00  0.000000000E+00 -5.932483064E+02  5.932483064E+02  0.000000000E+00  0.00000E+00  9.000E+00
      25     1     1     2     0     0  3.675113064E+01  8.258006087E+01 -7.213620299E+01  1.702901754E+02  1.250000000E+02  0.00000E+00  9.000E+00
      25     1     1     2     0     0 -5.370904381E+01 -2.696395497E+02 -3.856034520E+02  4.898011539E+02  1.250000000E+02  0.00000E+00  9.000E+00
      -3     1     1     2     0   501  1.695791317E+01  1.870594888E+02  2.225557042E+02  2.912213327E+02  2.697398305E-06  0.00000E+00  9.000E+00
#rwgt            1           1   2.7718800636739687E-002           1      119666           0
</event>
<event>
      5   9999  3.19816E-02  1.78301E+02 -1.00000E+00  1.13494E-01
       1    -1     0     0   502     0  0.000000000E+00  0.000000000E+00  8.480486442E+02  8.480486442E+02  0.000000000E+00  0.00000E+00  9.000E+00
      21    -1     0     0   501   502  0.000000000E+00  0.000000000E+00 -3.532043808E+02  3.532043808E+02  0.000000000E+00  0.00000E+00  9.000E+00
      25     1     1     2     0     0  1.781068125E+00 -6.338501929E+01  3.340437435E+02  3.622582717E+02  1.250000000E+02  0.00000E+00  9.000E+00
      25     1     1     2     0     0  9.913079713E+01  2.103814007E+02 -2.670143443E+02  3.755115294E+02  1.250000000E+02  0.00000E+00  9.000E+00
       1     1     1     2   501     0 -1.009118653E+02 -1.469963814E+02  4.278148642E+02  4.634832238E+02  7.629394531E-06  0.00000E+00  9.000E+00
#rwgt            2          17   3.8641218316717542E-004           1      119725           0
</event>
<event>
      5   9999  3.19816E-02  4.41889E+01 -1.00000E+00  1.42208E-01
      21    -1     0     0   511   501  0.000000000E+00  0.000000000E+00  1.413546490E+02  1.413546490E+02  0.000000000E+00  0.00000E+00  9.000E+00
      21    -1     0     0   501   502  0.000000000E+00  0.000000000E+00 -2.871331608E+02  2.871331608E+02  0.000000000E+00  0.00000E+00  9.000E+00
      25     1     1     2     0     0  4.182061282E+01  4.689621152E+01 -1.984797827E+02  2.428321281E+02  1.250000000E+02  0.00000E+00  9.000E+00
      25     1     1     2     0     0 -3.979166856E+01 -2.753938283E+00  5.288466622E+01  1.414664235E+02  1.250000000E+02  0.00000E+00  9.000E+00
      21     1     1     2   511   502 -2.028944257E+00 -4.414227323E+01 -1.833953408E-01  4.418925814E+01  6.881005482E-07  0.00000E+00  9.000E+00
#rwgt            1           1   3.1045216535235249E-002           1      119759           0
</event>
<event>
      5   9999  3.19816E-02  1.27576E+02 -1.00000E+00  1.19250E-01
      21    -1     0     0   502   501  0.000000000E+00  0.000000000E+00  1.126376906E+03  1.126376906E+03  0.000000000E+00  0.00000E+00  9.000E+00
      21    -1     0     0   512   502  0.000000000E+00  0.000000000E+00 -3.184021026E+02  3.184021026E+02  0.000000000E+00  0.00000E+00  9.000E+00
      25     1     1     2     0     0  3.199541348E+02 -8.143417472E+01  9.112874431E+02  9.772778403E+02  1.250000000E+02  0.00000E+00  9.000E+00
      25     1     1     2     0     0 -2.105892779E+02  1.471221173E+02 -1.605093636E+02  3.276904288E+02  1.250000000E+02  0.00000E+00  9.000E+00
      21     1     1     2   512   501 -1.093648570E+02 -6.568794258E+01  5.719672425E+01  1.398107399E+02  9.536743164E-07  0.00000E+00  9.000E+00
#rwgt            1           1   2.9700882018222532E-002           1      119954           0
</event>
<event>
      5   9999  3.19816E-02  2.71655E+01 -1.00000E+00  1.56095E-01
      21    -1     0     0   502   511  0.000000000E+00  0.000000000E+00  2.916115129E+02  2.916115129E+02  0.000000000E+00  0.00000E+00  9.000E+00
      21    -1     0     0   501   502  0.000000000E+00  0.000000000E+00 -5.654113579E+02  5.654113579E+02  0.000000000E+00  0.00000E+00  9.000E+00
      25     1     1     2     0     0 -3.304666594E+02  2.865470018E+01 -2.014660674E+02  4.077289309E+02  1.250000000E+02  0.00000E+00  9.000E+00
      25     1     1     2     0     0  3.534401029E+02 -1.415702439E+01 -1.204640542E+02  3.940265423E+02  1.250000000E+02  0.00000E+00  9.000E+00
      21     1     1     2   501   511 -2.297344352E+01 -1.449767579E+01  4.813027656E+01  5.526739755E+01  6.743495762E-07  0.00000E+00  9.000E+00
#rwgt            1           1   2.8406815873581719E-002           1      120020           0
</event>
<event>
      5   9999  3.19816E-02  8.75103E+01 -1.00000E+00  1.26491E-01
      21    -1     0     0   502   501  0.000000000E+00  0.000000000E+00  6.839812022E+01  6.839812022E+01  0.000000000E+00  0.00000E+00  9.000E+00
       2    -1     0     0   501     0  0.000000000E+00  0.000000000E+00 -4.027653846E+03  4.027653846E+03  0.000000000E+00  0.00000E+00  9.000E+00
      25     1     1     2     0     0  7.399643354E+01  1.071582166E+02 -1.009026495E+02  2.067962772E+02  1.250000000E+02  0.00000E+00  9.000E+00
      25     1     1     2     0     0 -8.735695856E+01 -2.067380177E+01 -3.824600971E+02  4.122612887E+02  1.250000000E+02  0.00000E+00  9.000E+00
       2     1     1     2   502     0  1.336052502E+01 -8.648441484E+01 -3.475892979E+03  3.476994401E+03  0.000000000E+00  0.00000E+00  9.000E+00
#rwgt            1           1   3.4600819026539754E-002           1      120186           0
</event>
<event>
      5   9999  3.19816E-02  3.32658E+01 -1.00000E+00  1.49987E-01
      21    -1     0     0   511   501  0.000000000E+00  0.000000000E+00  3.682337852E+02  3.682337852E+02  0.000000000E+00  0.00000E+00  9.000E+00
      21    -1     0     0   501   502  0.000000000E+00  0.000000000E+00 -4.728896628E+02  4.728896628E+02  0.000000000E+00  0.00000E+00  9.000E+00
      25     1     1     2     0     0  1.663216035E+02  1.326311002E+02 -3.343335397E+02  4.155211189E+02  1.250000000E+02  0.00000E+00  9.000E+00
      25     1     1     2     0     0 -1.374985351E+02 -1.160225265E+02  2.759747504E+01  2.208023877E+02  1.250000000E+02  0.00000E+00  9.000E+00
      21     1     1     2   511   502 -2.882306843E+01 -1.660857369E+01  2.020801870E+02  2.047999414E+02  4.672030912E-06  0.00000E+00  9.000E+00
#rwgt            1           1   2.7689880215520605E-002           1      120241           0
</event>
<event>
      5   9999  3.19816E-02  5.98158E+01 -1.00000E+00  1.34775E-01
      21    -1     0     0   502   501  0.000000000E+00  0.000000000E+00  1.505388313E+03  1.505388313E+03  0.000000000E+00  0.00000E+00  9.000E+00
      -2    -1     0     0     0   502  0.000000000E+00  0.000000000E+00 -7.104710460E+01  7.104710460E+01  0.000000000E+00  0.00000E+00  9.000E+00
      25     1     1     2     0     0  2.279180130E+01 -1.587453984E+02  6.820951107E+02  7.117571972E+02  1.250000000E+02  0.00000E+00  9.000E+00
      25     1     1     2     0     0 -6.910456660E+01  1.966011014E+02  7.657272450E+02  8.033620902E+02  1.250000000E+02  0.00000E+00  9.000E+00
      -2     1     1     2     0   501  4.631276530E+01 -3.785570299E+01 -1.348114738E+01  6.131613013E+01  2.329924141E-06  0.00000E+00  9.000E+00
#rwgt            1           1   4.1847475213849634E-002           1      120369           0
</event>
<event>
      5   9999  3.19816E-02  1.29830E+02 -1.00000E+00  1.18935E-01
      21    -1     0     0   502   501  0.000000000E+00  0.000000000E+00  2.587330088E+03  2.587330088E+03  0.000000000E+00  0.00000E+00  9.000E+00
      21    -1     0     0   501   511  0.000000000E+00  0.000000000E+00 -1.678994133E+02  1.678994133E+02  0.000000000E+00  0.00000E+00  9.000E+00
      25     1     1     2     0     0 -7.427347202E+01 -2.441743130E+02  1.578323089E+03  1.603703968E+03  1.250000000E+02  0.00000E+00  9.000E+00
      25     1     1     2     0     0  1.485420723E+02  3.506641367E+02  9.172596082E+02  1.001009627E+03  1.250000000E+02  0.00000E+00  9.000E+00
      21     1     1     2   502   511 -7.426860028E+01 -1.064898237E+02 -7.615202267E+01  1.505159065E+02  7.136645101E-06  0.00000E+00  9.000E+00
#rwgt            2          11   1.4684080069049307E-002           1      120455           0
</event>
<event>
      5   9999  3.19816E-02  2.29962E+01 -1.00000E+00  1.61518E-01
      21    -1     0     0   502   501  0.000000000E+00  0.000000000E+00  1.709138416E+03  1.709138416E+03  0.000000000E+00  0.00000E+00  9.000E+00
      21    -1     0     0   501   512  0.000000000E+00  0.000000000E+00 -1.592731478E+02  1.592731478E+02  0.000000000E+00  0.00000E+00  9.000E+00
      25     1     1     2     0     0  1.010923343E+02 -2.249829959E+02  1.540530066E+03  1.565150118E+03  1.250000000E+02  0.00000E+00  9.000E+00
      25     1     1     2     0     0 -7.975233418E+01  2.335520085E+02 -4.010626447E+00  2.766732018E+02  1.250000000E+02  0.00000E+00  9.000E+00
      21     1     1     2   502   512 -2.134000011E+01 -8.569012569E+00  1.334582947E+01  2.658824450E+01  1.685873940E-07  0.00000E+00  9.000E+00
#rwgt            1           1   2.4067596957799961E-002           1      120490           0
</event>
<event>
      5   9999  3.27934E-02  3.28369E+01 -1.00000E+00  1.50363E-01
      21    -1     0     0   502   501  0.000000000E+00  0.000000000E+00  2.230880124E+02  2.230880124E+02  0.000000000E+00  0.00000E+00  9.000E+00
      21    -1     0     0   511   502  0.000000000E+00  0.000000000E+00 -1.792305105E+02  1.792305105E+02  0.000000000E+00  0.00000E+00  9.000E+00
      25     1     1     2     0     0 -9.467671464E+01  1.785943991E+01 -4.842990583E+01  1.650851164E+02  1.250000000E+02  0.00000E+00  9.000E+00
      25     1     1     2     0     0  1.086874651E+02  1.183838961E+01  1.107052529E+02  1.995839812E+02  1.250000000E+02  0.00000E+00  9.000E+00
      21     1     1     2   511   501 -1.401075042E+01 -2.969782952E+01 -1.841784514E+01  3.764942530E+01  6.743495762E-07  0.00000E+00  9.000E+00
#rwgt            1           1   3.0504245502470224E-002           1      120658           0
</event>
<event>
      5   9999  3.19816E-02  7.99774E+01 -1.00000E+00  1.28355E-01
      21    -1     0     0   512   501  0.000000000E+00  0.000000000E+00  1.602824063E+03  1.602824063E+03  0.000000000E+00  0.00000E+00  9.000E+00
      21    -1     0     0   501   502  0.000000000E+00  0.000000000E+00 -1.208445468E+02  1.208445468E+02  0.000000000E+00  0.00000E+00  9.000E+00
      25     1     1     2     0     0  3.309357944E+02  2.927326158E+01  2.818965649E+02  4.532836829E+02  1.250000000E+02  0.00000E+00  9.000E+00
      25     1     1     2     0     0 -2.641221008E+02  1.468483319E+01  6.288473044E+02  6.935777251E+02  1.250000000E+02  0.00000E+00  9.000E+00
      21     1     1     2   512   502 -6.681369358E+01 -4.395809478E+01  5.712356467E+02  5.768072016E+02  1.078959322E-05  0.00000E+00  9.000E+00
#rwgt            1           1   3.0659348706337936E-002           1      120772           0
</event>
<event>
      5   9999  3.19816E-02  1.50537E+02 -1.00000E+00  1.16332E-01
       2    -1     0     0   502     0  0.000000000E+00  0.000000000E+00  2.108211733E+03  2.108211733E+03  0.000000000E+00  0.00000E+00  9.000E+00
      21    -1     0     0   501   502  0.000000000E+00  0.000000000E+00 -5.243142003E+01  5.243142003E+01  0.000000000E+00  0.00000E+00  9.000E+00
      25     1     1     2     0     0  2.241149703E+01  1.216903657E+02  9.306195831E+02  9.470948362E+02  1.250000000E+02  0.00000E+00  9.000E+00
      25     1     1     2     0     0  5.597752867E+01 -2.502066524E+02  8.876086561E+02  9.323148497E+02  1.250000000E+02  0.00000E+00  9.000E+00
       2     1     1     2   501     0 -7.838902570E+01  1.285162867E+02  2.375520742E+02  2.812334675E+02  7.136645101E-06  0.00000E+00  9.000E+00
#rwgt            1           1   2.8984895713704453E-002           1      120889           0
</event>
<event>
      5   9999  3.19816E-02  1.12558E+01 -1.00000E+00  1.90000E-01
      21    -1     0     0   502   501  0.000000000E+00  0.000000000E+00  2.339795885E+02  2.339795885E+02  0.000000000E+00  0.00000E+00  9.000E+00
      21    -1     0     0   501   511  0.000000000E+00  0.000000000E+00 -3.518277298E+02  3.518277298E+02  0.000000000E+00  0.00000E+00  9.000E+00
      25     1     1     2     0     0 -8.000643731E+01 -7.344921023E+00  1.874654631E+02  2.392138744E+02  1.250000000E+02  0.00000E+00  9.000E+00
      25     1     1     2     0     0  7.739756173E+01 -3.604405227E+00 -2.491798457E+02  2.893423056E+02  1.250000000E+02  0.00000E+00  9.000E+00
      21     1     1     2   502   511  2.608875583E+00  1.094932625E+01 -5.613375866E+01  5.725113832E+01  6.743495762E-07  0.00000E+00  9.000E+00
#rwgt            1           1   2.6166608411915728E-002           1      120937           0
</event>
<event>
      5   9999  3.19816E-02  2.63824E+02 -1.00000E+00  1.07438E-01
      21    -1     0     0   502   512  0.000000000E+00  0.000000000E+00  1.735071402E+03  1.735071402E+03  0.000000000E+00  0.00000E+00  9.000E+00
      21    -1     0     0   501   502  0.000000000E+00  0.000000000E+00 -1.872543853E+02  1.872543853E+02  0.000000000E+00  0.00000E+00  9.000E+00
      25     1     1     2     0     0 -2.649119140E+02  1.192449144E+02  1.055321132E+02  3.334062068E+02  1.250000000E+02  0.00000E+00  9.000E+00
      25     1     1     2     0     0  1.444362215E+02 -3.539544808E+02  8.360496990E+02  9.277659704E+02  1.250000000E+02  0.00000E+00  9.000E+00
      21     1     1     2   501   512  1.204756925E+02  2.347095664E+02  6.062352047E+02  6.611536103E+02  1.078959322E-05  0.00000E+00  9.000E+00
#rwgt            2          11   2.5002631756064039E-003           1      121171           0
</event>
<event>
      5   9999  3.19816E-02  6.40174E+01 -1.00000E+00  1.33216E-01
      21    -1     0     0   511   501  0.000000000E+00  0.000000000E+00  6.107495791E+02  6.107495791E+02  0.000000000E+00  0.00000E+00  9.000E+00
      21    -1     0     0   501   502  0.000000000E+00  0.000000000E+00 -3.065736689E+02  3.065736689E+02  0.000000000E+00  0.00000E+00  9.000E+00
      25     1     1     2     0     0 -2.670104961E+02  1.591180464E+02  6.577268815E+01  3.414150029E+02  1.250000000E+02  0.00000E+00  9.000E+00
      25     1     1     2     0     0  2.030268818E+02 -1.611967554E+02 -3.970529557E+01  2.905267960E+02  1.250000000E+02  0.00000E+00  9.000E+00
      21     1     1     2   511   502  6.398361427E+01  2.078708975E+00  2.781085176E+02  2.853814491E+02  3.814697266E-06  0.00000E+00  9.000E+00
#rwgt            1           1   2.7228560989226377E-002           1      121191           0
</event>
<event>
      5   9999  3.19816E-02  2.08138E+01 -1.00000E+00  1.64952E-01
      21    -1     0     0   502   512  0.000000000E+00  0.000000000E+00  9.921996936E+01  9.921996936E+01  0.000000000E+00  0.00000E+00  9.000E+00
      21    -1     0     0   501   502  0.000000000E+00  0.000000000E+00 -1.329495791E+03  1.329495791E+03  0.000000000E+00  0.00000E+00  9.000E+00
      25     1     1     2     0     0  1.487060626E+02  1.023329633E+02 -1.128723077E+03  1.149881000E+03  1.250000000E+02  0.00000E+00  9.000E+00
      25     1     1     2     0     0 -1.608708495E+02 -1.192218169E+02 -1.038745647E+02  2.578918321E+02  1.250000000E+02  0.00000E+00  9.000E+00
      21     1     1     2   501   512  1.216478692E+01  1.688885362E+01  2.321820053E+00  2.094292878E+01  3.264680848E-07  0.00000E+00  9.000E+00
#rwgt            1           1   2.8562150946948389E-002           1      121293           0
</event>
<event>
      5   9999  3.19816E-02  2.19242E+02 -1.00000E+00  1.10215E-01
      21    -1     0     0   502   501  0.000000000E+00  0.000000000E+00  3.297435363E+02  3.297435363E+02  0.000000000E+00  0.00000E+00  9.000E+00
       1    -1     0     0   501     0  0.000000000E+00  0.000000000E+00 -3.840714324E+02  3.840714324E+02  0.000000000E+00  0.00000E+00  9.000E+00
      25     1     1     2     0     0  8.574545696E+01 -2.469565793E+01 -2.013148041E+02  2.532090228E+02  1.250000000E+02  0.00000E+00  9.000E+00
      25     1     1     2     0     0  1.185922216E+02  1.041523308E+02  1.322107045E+02  2.408661317E+02  1.250000000E+02  0.00000E+00  9.000E+00
       1     1     1     2   502     0 -2.043376785E+02 -7.945667284E+01  1.477620347E+01  2.197398141E+02  3.158483815E-06  0.00000E+00  9.000E+00
#rwgt            2          12   9.7181025169913995E-005           1      121662           0
</event>
<event>
      5   9999  3.19816E-02  3.35765E+01 -1.00000E+00  1.49718E-01
      21    -1     0     0   502   501  0.000000000E+00  0.000000000E+00  8.549671992E+02  8.549671992E+02  0.000000000E+00  0.00000E+00  9.000E+00
      21    -1     0     0   511   502  0.000000000E+00  0.000000000E+00 -5.987902418E+02  5.987902418E+02  0.000000000E+00  0.00000E+00  9.000E+00
      25     1     1     2     0     0 -3.917543494E+02 -1.611721663E+02  6.001119219E+02  7.451223096E+02  1.250000000E+02  0.00000E+00  9.000E+00
      25     1     1     2     0     0  3.596025864E+02  1.708490535E+02 -5.865865048E+01  4.213896730E+02  1.250000000E+02  0.00000E+00  9.000E+00
      21     1     1     2   511   501  3.215176307E+01 -9.676887138E+00 -2.852763141E+02  2.872454584E+02  5.394796609E-06  0.00000E+00  9.000E+00
#rwgt            1           1   3.0344831922193238E-002           1      121801           0
</event>
<event>
      5   9999  3.19816E-02  7.08258E+01 -1.00000E+00  1.30963E-01
      21    -1     0     0   502   501  0.000000000E+00  0.000000000E+00  1.102109420E+03  1.102109420E+03  0.000000000E+00  0.00000E+00  9.000E+00
       1    -1     0     0   501     0  0.000000000E+00  0.000000000E+00 -3.609410124E+02  3.609410124E+02  0.000000000E+00  0.00000E+00  9.000E+00
      25     1     1     2     0     0 -1.129097681E+01 -2.688879380E+01  8.253869644E+02  8.353078081E+02  1.250000000E+02  0.00000E+00  9.000E+00
      25     1     1     2     0     0  5.401328090E+01  8.337862372E+01  2.442036704E+02  2.917702213E+02  1.250000000E+02  0.00000E+00  9.000E+00
       1     1     1     2   502     0 -4.272230409E+01 -5.648982992E+01 -3.284222272E+02  3.359724029E+02  3.814697266E-06  0.00000E+00  9.000E+00
#rwgt            1           1   3.0699697428069009E-002           1      121970           0
</event>
<event>
      5   9999  3.19816E-02  7.49708E+02 -1.00000E+00  9.40986E-02
      21    -1     0     0   502   501  0.000000000E+00  0.000000000E+00  2.162324520E+03  2.162324520E+03  0.000000000E+00  0.00000E+00  9.000E+00
      21    -1     0     0   511   502  0.000000000E+00  0.000000000E+00 -7.669842702E+02  7.669842702E+02  0.000000000E+00  0.00000E+00  9.000E+00
      25     1     1     2     0     0  8.700510252E+02  3.682995196E+02  1.360423952E+03  1.661027288E+03  1.250000000E+02  0.00000E+00  9.000E+00
      25     1     1     2     0     0 -3.809516177E+02  1.998942168E+02 -1.884219774E+02  4.860140682E+02  1.250000000E+02  0.00000E+00  9.000E+00
      21     1     1     2   511   501 -4.890994074E+02 -5.681937364E+02  2.233382744E+02  7.822674333E+02  3.814697266E-06  0.00000E+00  9.000E+00
#rwgt            2          11   1.4324956324851467E-003           1      122086           0
</event>
<event>
      5   9999  3.19816E-02  1.14626E+02 -1.00000E+00  1.21219E-01
      21    -1     0     0   502   501  0.000000000E+00  0.000000000E+00  5.834439349E+02  5.834439349E+02  0.000000000E+00  0.00000E+00  9.000E+00
      21    -1     0     0   512   502  0.000000000E+00  0.000000000E+00 -1.023137070E+03  1.023137070E+03  0.000000000E+00  0.00000E+00  9.000E+00
      25     1     1     2     0     0 -7.243375836E+02 -2.128083659E+02 -2.371782470E+02  8.011434681E+02  1.250000000E+02  0.00000E+00  9.000E+00
      25     1     1     2     0     0  6.097826217E+02  2.168507890E+02 -1.364272445E+02  6.731244338E+02  1.250000000E+02  0.00000E+00  9.000E+00
      21     1     1     2   512   501  1.145549620E+02 -4.042423151E+00 -6.608764313E+01  1.323131024E+02  2.697398305E-06  0.00000E+00  9.000E+00
#rwgt            1           1   3.0447795931267133E-002           1      122106           0
</event>
<event>
      5   9999  3.19816E-02  1.66722E+02 -1.00000E+00  1.14603E-01
       2    -1     0     0   502     0  0.000000000E+00  0.000000000E+00  5.228191103E+02  5.228191103E+02  0.000000000E+00  0.00000E+00  9.000E+00
      21    -1     0     0   501   502  0.000000000E+00  0.000000000E+00 -1.385744196E+03  1.385744196E+03  0.000000000E+00  0.00000E+00  9.000E+00
      25     1     1     2     0     0 -1.320108892E+02 -3.444354712E+01 -1.282157517E+03  1.295440516E+03  1.250000000E+02  0.00000E+00  9.000E+00
      25     1     1     2     0     0  1.742674017E+02 -1.268349928E+02  1.344377694E+02  2.831161538E+02  1.250000000E+02  0.00000E+00  9.000E+00
       2     1     1     2   501     0 -4.225651245E+01  1.612785399E+02  2.847946621E+02  3.300066361E+02  3.814697266E-06  0.00000E+00  9.000E+00
#rwgt            1           1   3.1035820870162323E-002           1      122203           0
</event>
<event>
      5   9999  3.19816E-02  2.76726E+01 -1.00000E+00  1.55516E-01
      21    -1     0     0   502   501  0.000000000E+00  0.000000000E+00  4.784314125E+02  4.784314125E+02  0.000000000E+00  0.00000E+00  9.000E+00
       4    -1     0     0   501     0  0.000000000E+00  0.000000000E+00 -7.561188423E+02  7.561188423E+02  0.000000000E+00  0.00000E+00  9.000E+00
      25     1     1     2     0     0  2.407386313E+02  3.896352110E+01  3.635493431E+02  4.552651639E+02  1.250000000E+02  0.00000E+00  9.000E+00
      25     1     1     2     0     0 -2.159575495E+02 -5.127903028E+01 -1.677980869E+02  3.050383584E+02  1.250000000E+02  0.00000E+00  9.000E+00
       4     1     1     2   502     0 -2.478108180E+01  1.231550918E+01 -4.734386861E+02  4.742467324E+02  5.394796609E-06  0.00000E+00  9.000E+00
#rwgt            1           1   2.8053520553929880E-002           1      122268           0
</event>
<event>
      5   9999  3.19816E-02  2.15391E+02 -1.00000E+00  1.10488E-01
       1    -1     0     0   502     0  0.000000000E+00  0.000000000E+00  1.847132094E+03  1.847132094E+03  0.000000000E+00  0.00000E+00  9.000E+00
      21    -1     0     0   501   502  0.000000000E+00  0.000000000E+00 -1.238731490E+02  1.238731490E+02  0.000000000E+00  0.00000E+00  9.000E+00
      25     1     1     2     0     0 -2.936961663E+02 -5.742918769E+01  2.400246945E+02  4.034754065E+02  1.250000000E+02  0.00000E+00  9.000E+00
      25     1     1     2     0     0  1.582039953E+02 -1.100075952E+02  3.844699301E+02  4.478529918E+02  1.250000000E+02  0.00000E+00  9.000E+00
       1     1     1     2   501     0  1.354921711E+02  1.674367829E+02  1.098764321E+03  1.119676845E+03  2.157918644E-05  0.00000E+00  9.000E+00
#rwgt            2          17   6.1891378488176864E-004           1      122359           0
</event>
<event>
      5   9999  3.19816E-02  3.49492E+02 -1.00000E+00  1.03481E-01
      21    -1     0     0   502   511  0.000000000E+00  0.000000000E+00  5.508180133E+02  5.508180133E+02  0.000000000E+00  0.00000E+00  9.000E+00
      21    -1     0     0   501   502  0.000000000E+00  0.000000000E+00 -1.106067730E+03  1.106067730E+03  0.000000000E+00  0.00000E+00  9.000E+00
      25     1     1     2     0     0 -5.433573521E+02 -5.073782330E+01 -6.968357754E+02  8.938773052E+02  1.250000000E+02  0.00000E+00  9.000E+00
      25     1     1     2     0     0  2.443480517E+02 -1.301991136E+02  2.538986785E+02  3.959132714E+02  1.250000000E+02  0.00000E+00  9.000E+00
      21     1     1     2   501   511  2.990093004E+02  1.809369369E+02 -1.123126197E+02  3.670951666E+02  5.878843310E-06  0.00000E+00  9.000E+00
#rwgt            2          11   3.5562880566483166E-003           1      122423           0
</event>
<event>
      5   9999  3.19816E-02  5.60590E+01 -1.00000E+00  1.36299E-01
      21    -1     0     0   502   512  0.000000000E+00  0.000000000E+00  4.488888355E+02  4.488888355E+02  0.000000000E+00  0.00000E+00  9.000E+00
      21    -1     0     0   501   502  0.000000000E+00  0.000000000E+00 -1.018647075E+03  1.018647075E+03  0.000000000E+00  0.00000E+00  9.000E+00
      25     1     1     2     0     0  1.352677396E+02  2.819648119E+02 -5.771848248E+02  6.682580628E+02  1.250000000E+02  0.00000E+00  9.000E+00
      25     1     1     2     0     0 -1.683719607E+02 -2.367240508E+02 -3.300918142E+02  4.571356464E+02  1.250000000E+02  0.00000E+00  9.000E+00
      21     1     1     2   501   512  3.310422112E+01 -4.524076101E+01  3.375183995E+02  3.421422013E+02  0.000000000E+00  0.00000E+00  9.000E+00
#rwgt            1           1   2.9332186497534111E-002           1      122458           0
</event>
<event>
      5   9999  3.19816E-02  4.15883E+01 -1.00000E+00  1.43799E-01
      21    -1     0     0   502   511  0.000000000E+00  0.000000000E+00  3.566701340E+02  3.566701340E+02  0.000000000E+00  0.00000E+00  9.000E+00
      21    -1     0     0   501   502  0.000000000E+00  0.000000000E+00 -7.128365637E+02  7.128365637E+02  0.000000000E+00  0.00000E+00  9.000E+00
      25     1     1     2     0     0 -1.883379070E+02 -1.293850673E+01  2.812537465E+02  3.610640415E+02  1.250000000E+02  0.00000E+00  9.000E+00
      25     1     1     2     0     0  1.855592528E+02 -2.855683213E+01 -6.258832454E+02  6.652838235E+02  1.250000000E+02  0.00000E+00  9.000E+00
      21     1     1     2   501   511  2.778654189E+00  4.149533886E+01 -1.153693075E+01  4.315883267E+01  4.129530925E-07  0.00000E+00  9.000E+00
#rwgt            1           1   2.9575716931052112E-002           1      122562           0
</event>
<event>
      5   9999  3.19816E-02  1.37134E+02 -1.00000E+00  1.17958E-01
      21    -1     0     0   502   512  0.000000000E+00  0.000000000E+00  8.075844813E+02  8.075844813E+02  0.000000000E+00  0.00000E+00  9.000E+00
      21    -1     0     0   501   502  0.000000000E+00  0.000000000E+00 -4.138712752E+02  4.138712752E+02  0.000000000E+00  0.00000E+00  9.000E+00
      25     1     1     2     0     0 -3.388554435E+02 -2.195693662E+02 -2.525922964E+01  4.234344658E+02  1.250000000E+02  0.00000E+00  9.000E+00
      25     1     1     2     0     0  2.972992161E+02  8.888317270E+01 -2.294185920E+01  3.353183133E+02  1.250000000E+02  0.00000E+00  9.000E+00
      21     1     1     2   501   512  4.155622736E+01  1.306861935E+02  4.419142950E+02  4.627029774E+02  0.000000000E+00  0.00000E+00  9.000E+00
#rwgt            1           1   2.8853297282323130E-002           1      122703           0
</event>
<event>
      5   9999  3.19816E-02  2.87386E+01 -1.00000E+00  1.54347E-01
       2    -1     0     0   502     0  0.000000000E+00  0.000000000E+00  1.965877816E+03  1.965877816E+03  0.000000000E+00  0.00000E+00  9.000E+00
      21    -1     0     0   501   502  0.000000000E+00  0.000000000E+00 -1.174570250E+02  1.174570250E+02  0.000000000E+00  0.00000E+00  9.000E+00
      25     1     1     2     0     0  1.972255130E+02  1.988139140E+02  3.393116614E+02  4.573644924E+02  1.250000000E+02  0.00000E+00  9.000E+00
      25     1     1     2     0     0 -2.185683611E+02 -2.180594605E+02  4.179964732E+02  5.344792872E+02  1.250000000E+02  0.00000E+00  9.000E+00
       2     1     1     2   501     0  2.134284806E+01  1.924554654E+01  1.091112656E+03  1.091491061E+03  0.000000000E+00  0.00000E+00  9.000E+00
#rwgt            1           1   2.8116447822047971E-002           1      122749           0
</event>
<event>
      5   9999  3.19816E-02  2.76120E+02 -1.00000E+00  1.06776E-01
       2    -1     0     0   502     0  0.000000000E+00  0.000000000E+00  1.039313124E+03  1.039313124E+03  0.000000000E+00  0.00000E+00  9.000E+00
      21    -1     0     0   501   502  0.000000000E+00  0.000000000E+00 -3.645313156E+02  3.645313156E+02  0.000000000E+00  0.00000E+00  9.000E+00
      25     1     1     2     0     0 -2.602646736E+02  1.456319604E+02  3.512902922E+02  4.774685724E+02  1.250000000E+02  0.00000E+00  9.000E+00
      25     1     1     2     0     0  5.358039920E+02 -1.635283824E+02  1.280578562E+02  5.880912040E+02  1.250000000E+02  0.00000E+00  9.000E+00
       2     1     1     2   501     0 -2.755393184E+02  1.789642199E+01  1.954336602E+02  3.382846633E+02  5.394796609E-06  0.00000E+00  9.000E+00
#rwgt            1           1   2.9782383759544919E-002           1      122878           0
</event>
<event>
      5   9999  3.19816E-02  2.56118E+02 -1.00000E+00  1.07873E-01
      21    -1     0     0   502   501  0.000000000E+00  0.000000000E+00  4.415638703E+02  4.415638703E+02  0.000000000E+00  0.00000E+00  9.000E+00
      21    -1     0     0   511   502  0.000000000E+00  0.000000000E+00 -1.060249969E+03  1.060249969E+03  0.000000000E+00  0.00000E+00  9.000E+00
      25     1     1     2     0     0  1.888294361E+02 -3.561400670E+02 -6.476557299E+00  4.220891482E+02  1.250000000E+02  0.00000E+00  9.000E+00
      25     1     1     2     0     0 -4.431954475E+02  3.262304520E+02 -2.084858543E+02  6.016143814E+02  1.250000000E+02  0.00000E+00  9.000E+00
      21     1     1     2   511   501  2.543660113E+02  2.990961492E+01 -4.037236875E+02  4.781103101E+02  5.394796609E-06  0.00000E+00  9.000E+00
#rwgt            2          11   2.9877693939385844E-003           1      123040           0
</event>
<event>
      5   9999  3.19816E-02  1.17392E+02 -1.00000E+00  1.20775E-01
      21    -1     0     0   502   512  0.000000000E+00  0.000000000E+00  1.268093924E+02  1.268093924E+02  0.000000000E+00  0.00000E+00  9.000E+00
      21    -1     0     0   501   502  0.000000000E+00  0.000000000E+00 -1.009389195E+03  1.009389195E+03  0.000000000E+00  0.00000E+00  9.000E+00
      25     1     1     2     0     0  1.209387126E+02 -1.125583231E+02 -6.217472116E+02  6.553549751E+02  1.250000000E+02  0.00000E+00  9.000E+00
      25     1     1     2     0     0 -2.375105016E+02  9.870918690E+01 -1.965526247E+02  3.470052971E+02  1.250000000E+02  0.00000E+00  9.000E+00
      21     1     1     2   501   512  1.165717890E+02  1.384913622E+01 -6.427996649E+01  1.338383153E+02  1.651812370E-06  0.00000E+00  9.000E+00
#rwgt            1           1   2.7450016736235604E-002           1      123075           0
</event>
<event>
      5   9999  3.19816E-02  6.96512E+01 -1.00000E+00  1.31331E-01
      21    -1     0     0   502   511  0.000000000E+00  0.000000000E+00  1.352601257E+03  1.352601257E+03  0.000000000E+00  0.00000E+00  9.000E+00
      21    -1     0     0   501   502  0.000000000E+00  0.000000000E+00 -7.952546108E+02  7.952546108E+02  0.000000000E+00  0.00000E+00  9.000E+00
      25     1     1     2     0     0  8.271162627E+02 -8.834508452E+01  2.616420359E+02  8.809130042E+02  1.250000000E+02  0.00000E+00  9.000E+00
      25     1     1     2     0     0 -8.504862969E+02  1.539586120E+02 -8.730239513E+01  8.776542050E+02  1.250000000E+02  0.00000E+00  9.000E+00
      21     1     1     2   501   511  2.337003416E+01 -6.561352752E+01  3.830070049E+02  3.892886581E+02  5.394796609E-06  0.00000E+00  9.000E+00
#rwgt            1           1   2.9394202403157477E-002           1      123199           0
</event>
<event>
      5   9999  3.19816E-02  4.49401E+01 -1.00000E+00  1.41772E-01
      21    -1     0     0   502   512  0.000000000E+00  0.000000000E+00  1.314431598E+03  1.314431598E+03  0.000000000E+00  0.00000E+00  9.000E+00
      21    -1     0     0   501   502  0.000000000E+00  0.000000000E+00 -2.714456480E+03  2.714456480E+03  0.000000000E+00  0.00000E+00  9.000E+00
      25     1     1     2     0     0  1.440384601E+03 -9.404440810E+02 -1.381140305E+03  2.209596436E+03  1.250000000E+02  0.00000E+00  9.000E+00
      25     1     1     2     0     0 -1.413309334E+03  9.763124240E+02 -1.014725325E+02  1.725268356E+03  1.250000000E+02  0.00000E+00  9.000E+00
      21     1     1     2   501   512 -2.707526667E+01 -3.586834305E+01  8.258795542E+01  9.402328690E+01  1.907348633E-06  0.00000E+00  9.000E+00
#rwgt            1           1   6.7886638561953450E-003           1      123307           0
</event>
<event>
      5   9999  3.19816E-02  4.04766E+02 -1.00000E+00  1.01531E-01
      21    -1     0     0   502   511  0.000000000E+00  0.000000000E+00  4.298515369E+02  4.298515369E+02  0.000000000E+00  0.00000E+00  9.000E+00
      21    -1     0     0   501   502  0.000000000E+00  0.000000000E+00 -6.799590383E+02  6.799590383E+02  0.000000000E+00  0.00000E+00  9.000E+00
      25     1     1     2     0     0  4.451402870E+02  6.103192774E+01 -3.169585544E+02  5.638816334E+02  1.250000000E+02  0.00000E+00  9.000E+00
      25     1     1     2     0     0 -4.971180255E+01  2.540919781E+01  2.254507522E+01  1.387449857E+02  1.250000000E+02  0.00000E+00  9.000E+00
      21     1     1     2   501   511 -3.954284844E+02 -8.644112556E+01  4.430597782E+01  4.071839561E+02  9.524814775E-06  0.00000E+00  9.000E+00
#rwgt            2          11   3.4737133981972749E-003           1      123435           0
</event>
<event>
      5   9999  3.19816E-02  8.10843E+01 -1.00000E+00  1.28067E-01
      21    -1     0     0   512   501  0.000000000E+00  0.000000000E+00  6.155133141E+01  6.155133141E+01  0.000000000E+00  0.00000E+00  9.000E+00
      21    -1     0     0   501   502  0.000000000E+00  0.000000000E+00 -2.494541939E+03  2.494541939E+03  0.000000000E+00  0.00000E+00  9.000E+00
      25     1     1     2     0     0 -1.802968720E+02  1.970492959E+02 -6.755569227E+02  7.371143350E+02  1.250000000E+02  0.00000E+00  9.000E+00
      25     1     1     2     0     0  2.183262447E+02 -2.686623251E+02 -1.601187362E+03  1.642946062E+03  1.250000000E+02  0.00000E+00  9.000E+00
      21     1     1     2   512   502 -3.802937265E+01  7.161302922E+01 -1.562463231E+02  1.760328737E+02  0.000000000E+00  0.00000E+00  9.000E+00
#rwgt            1           1   7.8258124457261755E-002           1      123455           0
</event>
<event>
      5   9999  3.19816E-02  1.13631E+01 -1.00000E+00  1.89553E-01
      21    -1     0     0   502   501  0.000000000E+00  0.000000000E+00  2.070526026E+02  2.070526026E+02  0.000000000E+00  0.00000E+00  9.000E+00
      21    -1     0     0   501   511  0.000000000E+00  0.000000000E+00 -2.133781481E+02  2.133781481E+02  0.000000000E+00  0.00000E+00  9.000E+00
      25     1     1     2     0     0 -1.265784199E+02 -6.516202721E+01 -5.408607370E+01  1.970240836E+02  1.250000000E+02  0.00000E+00  9.000E+00
      25     1     1     2     0     0  1.369799031E+02  6.058716969E+01  6.244586245E+01  2.048384356E+02  1.250000000E+02  0.00000E+00  9.000E+00
      21     1     1     2   502   511 -1.040148320E+01  4.574857527E+00 -1.468533430E+01  1.856823141E+01  1.685873940E-07  0.00000E+00  9.000E+00
#rwgt            1           1   2.7947718899049324E-002           1      123538           0
</event>
<event>
      5   9999  3.19816E-02  1.07040E+01 -1.00000E+00  1.92402E-01
      21    -1     0     0   502   512  0.000000000E+00  0.000000000E+00  7.190746624E+01  7.190746624E+01  0.000000000E+00  0.00000E+00  9.000E+00
      21    -1     0     0   501   502  0.000000000E+00  0.000000000E+00 -1.092778770E+03  1.092778770E+03  0.000000000E+00  0.00000E+00  9.000E+00
      25     1     1     2     0     0  1.495169851E+02  2.326851650E+01 -5.759621949E+02  6.084851705E+02  1.250000000E+02  0.00000E+00  9.000E+00
      25     1     1     2     0     0 -1.391642168E+02 -2.054886060E+01 -4.820858879E+02  5.175139981E+02  1.250000000E+02  0.00000E+00  9.000E+00
      21     1     1     2   501   512 -1.035276825E+01 -2.719655903E+00  3.717677883E+01  3.868706790E+01  2.286830675E-06  0.00000E+00  9.000E+00
#rwgt            1           1   3.2447891977672512E-002           1      123739           0
</event>
<event>
      5   9999  3.19816E-02  3.37315E+02 -1.00000E+00  1.03964E-01
      21    -1     0     0   502   501  0.000000000E+00  0.000000000E+00  3.975877433E+02  3.975877433E+02  0.000000000E+00  0.00000E+00  9.000E+00
      21    -1     0     0   501   511  0.000000000E+00  0.000000000E+00 -3.036642082E+03  3.036642082E+03  0.000000000E+00  0.00000E+00  9.000E+00
      25     1     1     2     0     0  6.118017317E+02  1.805337599E+02 -1.214259874E+02  6.612586996E+02  1.250000000E+02  0.00000E+00  9.000E+00
      25     1     1     2     0     0 -6.303186537E+02 -5.173403809E+02 -1.782070199E+03  1.963757080E+03  1.250000000E+02  0.00000E+00  9.000E+00
      21     1     1     2   502   511  1.851692208E+01  3.368066210E+02 -7.355581522E+02  8.092140456E+02  1.078959322E-05  0.00000E+00  9.000E+00
#rwgt            1           1   2.7922036195773447E-002           1      123934           0
</event>
<event>
      5   9999  3.19816E-02  7.24344E+01 -1.00000E+00  1.30473E-01
      21    -1     0     0   502   512  0.000000000E+00  0.000000000E+00  1.855863463E+02  1.855863463E+02  0.000000000E+00  0.00000E+00  9.000E+00
      21    -1     0     0   501   502  0.000000000E+00  0.000000000E+00 -6.721762439E+02  6.721762439E+02  0.000000000E+00  0.00000E+00  9.000E+00
      25     1     1     2     0     0  1.066846597E+02 -5.986538837E+01 -5.670837074E+02  5.934428469E+02  1.250000000E+02  0.00000E+00  9.000E+00
      25     1     1     2     0     0 -5.828786483E+01  1.137587531E+02  6.510461834E+01  1.902686007E+02  1.250000000E+02  0.00000E+00  9.000E+00
      21     1     1     2   501   512 -4.839679484E+01 -5.389336472E+01  1.538919141E+01  7.405114262E+01  8.085167388E-07  0.00000E+00  9.000E+00
#rwgt            1           1   2.6879267847806376E-002           1      123984           0
</event>
<event>
      5   9999  3.19816E-02  5.07677E+01 -1.00000E+00  1.38699E-01
       2    -1     0     0   502     0  0.000000000E+00  0.000000000E+00  4.873923134E+02  4.873923134E+02  0.000000000E+00  0.00000E+00  9.000E+00
      21    -1     0     0   501   502  0.000000000E+00  0.000000000E+00 -3.399581991E+02  3.399581991E+02  0.000000000E+00  0.00000E+00  9.000E+00
      25     1     1     2     0     0  2.389730078E+02 -1.134584084E+02 -3.865701736E+01  2.951275553E+02  1.250000000E+02  0.00000E+00  9.000E+00
      25     1     1     2     0     0 -2.580125726E+02  6.639621636E+01 -4.314598291E+01  2.974315400E+02  1.250000000E+02  0.00000E+00  9.000E+00
       2     1     1     2   501     0  1.903956480E+01  4.706219199E+01  2.292371145E+02  2.347914173E+02  3.814697266E-06  0.00000E+00  9.000E+00
#rwgt            1           1   2.5029014418348761E-002           1      124066           0
</event>
<event>
      5   9999  3.19816E-02  9.18923E+01 -1.00000E+00  1.25502E-01
      21    -1     0     0   502   501  0.000000000E+00  0.000000000E+00  1.543512410E+03  1.543512410E+03  0.000000000E+00  0.00000E+00  9.000E+00
      21    -1     0     0   501   511  0.000000000E+00  0.000000000E+00 -2.156434397E+02  2.156434397E+02  0.000000000E+00  0.00000E+00  9.000E+00
      25     1     1     2     0     0  4.433297090E+01  3.467587219E+02  1.979566890E+02  4.207361100E+02  1.250000000E+02  0.00000E+00  9.000E+00
      25     1     1     2     0     0 -4.733804069E+01 -4.386018496E+02  1.155402410E+03  1.243057602E+03  1.250000000E+02  0.00000E+00  9.000E+00
      21     1     1     2   502   511  3.005069786E+00  9.184312766E+01 -2.549012922E+01  9.536213730E+01  1.507891493E-06  0.00000E+00  9.000E+00
#rwgt            1           1   2.5712292921147750E-002           1      124147           0
</event>
<event>
      5   9999  3.19816E-02  8.36645E+01 -1.00000E+00  1.27415E-01
      21    -1     0     0   502   501  0.000000000E+00  0.000000000E+00  4.257659624E+02  4.257659624E+02  0.000000000E+00  0.00000E+00  9.000E+00
      21    -1     0     0   512   502  0.000000000E+00  0.000000000E+00 -8.561406231E+02  8.561406231E+02  0.000000000E+00  0.00000E+00  9.000E+00
      25     1     1     2     0     0 -5.233759818E+01  2.540819578E+02  2.834842724E+02  4.040856322E+02  1.250000000E+02  0.00000E+00  9.000E+00
      25     1     1     2     0     0 -1.216678054E+01 -2.008002995E+02 -9.801761399E+01  2.563225380E+02  1.250000000E+02  0.00000E+00  9.000E+00
      21     1     1     2   512   501  6.450437873E+01 -5.328165824E+01 -6.158413191E+02  6.214984154E+02  0.000000000E+00  0.00000E+00  9.000E+00
#rwgt            1           1   2.8872433922472077E-002           1      124237           0
</event>
<event>
      5   9999  3.19816E-02  2.26661E+02 -1.00000E+00  1.09705E-01
      21    -1     0     0   511   501  0.000000000E+00  0.000000000E+00  5.852748187E+02  5.852748187E+02  0.000000000E+00  0.00000E+00  9.000E+00
      21    -1     0     0   501   502  0.000000000E+00  0.000000000E+00 -2.028392770E+03  2.028392770E+03  0.000000000E+00  0.00000E+00  9.000E+00
      25     1     1     2     0     0  7.188057190E+02  2.575227326E+02 -4.879730994E+01  7.752456365E+02  1.250000000E+02  0.00000E+00  9.000E+00
      25     1     1     2     0     0 -7.662590522E+02 -4.791608007E+02 -1.310404096E+03  1.596725368E+03  1.250000000E+02  0.00000E+00  9.000E+00
      21     1     1     2   511   502  4.745333326E+01  2.216380681E+02 -8.391654581E+01  2.416965840E+02  2.861022949E-06  0.00000E+00  9.000E+00
#rwgt            1           1   3.7089890144897317E-002           1      124304           0
</event>
<event>
      5   9999  3.19816E-02  1.86191E+01 -1.00000E+00  1.68974E-01
      21    -1     0     0   512   501  0.000000000E+00  0.000000000E+00  6.667987662E+01  6.667987662E+01  0.000000000E+00  0.00000E+00  9.000E+00
      21    -1     0     0   501   502  0.000000000E+00  0.000000000E+00 -4.135224425E+02  4.135224425E+02  0.000000000E+00  0.00000E+00  9.000E+00
      25     1     1     2     0     0  2.185545690E+01  5.433321038E+01 -2.541058704E+02  2.891791004E+02  1.250000000E+02  0.00000E+00  9.000E+00
      25     1     1     2     0     0 -3.605622197E+01 -6.637517442E+01 -9.153783018E+01  1.723655687E+02  1.250000000E+02  0.00000E+00  9.000E+00
      21     1     1     2   512   502  1.420076507E+01  1.204196405E+01 -1.198865348E+00  1.865765004E+01  4.110668368E-07  0.00000E+00  9.000E+00
#rwgt            1           1   6.8165026115524774E-002           1      124397           0
</event>
<event>
      5   9999  3.19816E-02  1.59667E+01 -1.00000E+00  1.74866E-01
      21    -1     0     0   502   501  0.000000000E+00  0.000000000E+00  7.345742489E+02  7.345742489E+02  0.000000000E+00  0.00000E+00  9.000E+00
      21    -1     0     0   501   511  0.000000000E+00  0.000000000E+00 -9.030836234E+02  9.030836234E+02  0.000000000E+00  0.00000E+00  9.000E+00
      25     1     1     2     0     0 -5.956736069E+02 -4.769834650E+02  1.243214001E+02  7.832120290E+02  1.250000000E+02  0.00000E+00  9.000E+00
      25     1     1     2     0     0  6.007934006E+02  4.921070684E+02 -2.891017664E+02  8.380494665E+02  1.250000000E+02  0.00000E+00  9.000E+00
      21     1     1     2   502   511 -5.119793787E+00 -1.512360344E+01 -3.729008304E+00  1.639637681E+01  7.300048300E-08  0.00000E+00  9.000E+00
#rwgt            1           1   3.2652371899678338E-002           1      124555           0
</event>
<event>
      5   9999  3.19816E-02  6.90459E+01 -1.00000E+00  1.31523E-01
       2    -1     0     0   502     0  0.000000000E+00  0.000000000E+00  5.681938692E+03  5.681938692E+03  0.000000000E+00  0.00000E+00  9.000E+00
      21    -1     0     0   501   502  0.000000000E+00  0.000000000E+00 -1.401760938E+03  1.401760938E+03  0.000000000E+00  0.00000E+00  9.000E+00
      25     1     1     2     0     0  1.319678781E+03 -9.604530190E+02  5.567670651E+01  1.637909333E+03  1.250000000E+02  0.00000E+00  9.000E+00
      25     1     1     2     0     0 -1.290663449E+03  1.023106376E+03  5.071904483E+02  1.727838519E+03  1.250000000E+02  0.00000E+00  9.000E+00
       2     1     1     2   501     0 -2.901533217E+01 -6.265335736E+01  3.717310599E+03  3.717951778E+03  6.103515625E-05  0.00000E+00  9.000E+00
#rwgt            1           1   2.5163749485179285E-002           1      124804           0
</event>
<event>
      5   9999  3.19816E-02  5.23123E+01 -1.00000E+00  1.37964E-01
      21    -1     0     0   502   511  0.000000000E+00  0.000000000E+00  1.983935445E+02  1.983935445E+02  0.000000000E+00  0.00000E+00  9.000E+00
      21    -1     0     0   501   502  0.000000000E+00  0.000000000E+00 -1.418653979E+03  1.418653979E+03  0.000000000E+00  0.00000E+00  9.000E+00
      25     1     1     2     0     0  3.896667987E+02 -4.337645737E+01 -1.011695192E+03  1.092187664E+03  1.250000000E+02  0.00000E+00  9.000E+00
      25     1     1     2     0     0 -3.752283750E+02 -6.903861890E+00 -2.411077316E+02  4.632514813E+02  1.250000000E+02  0.00000E+00  9.000E+00
      21     1     1     2   501   511 -1.443842370E+01  5.028031926E+01  3.254248981E+01  6.160837789E+01  4.768371582E-07  0.00000E+00  9.000E+00
#rwgt            1           1   2.8668024294035976E-002           1      124941           0
</event>
<event>
      5   9999  3.19816E-02  4.23267E+01 -1.00000E+00  1.43334E-01
      21    -1     0     0   502   512  0.000000000E+00  0.000000000E+00  3.564642819E+02  3.564642819E+02  0.000000000E+00  0.00000E+00  9.000E+00
      21    -1     0     0   501   502  0.000000000E+00  0.000000000E+00 -3.788715387E+02  3.788715387E+02  0.000000000E+00  0.00000E+00  9.000E+00
      25     1     1     2     0     0  5.279280735E+00 -5.307669948E+01 -5.546055522E+01  1.467851492E+02  1.250000000E+02  0.00000E+00  9.000E+00
      25     1     1     2     0     0 -2.692925343E+01  1.670597874E+01 -2.611843104E+02  2.912842571E+02  1.250000000E+02  0.00000E+00  9.000E+00
      21     1     1     2   501   512  2.164997269E+01  3.637072074E+01  2.942376088E+02  2.972664143E+02  7.629394531E-06  0.00000E+00  9.000E+00
#rwgt            1           1   4.7385142265462497E-002           1      125029           0
</event>
<event>
      5   9999  3.19816E-02  3.79658E+01 -1.00000E+00  1.46260E-01
      21    -1     0     0   502   501  0.000000000E+00  0.000000000E+00  1.109806109E+02  1.109806109E+02  0.000000000E+00  0.00000E+00  9.000E+00
      21    -1     0     0   511   502  0.000000000E+00  0.000000000E+00 -3.743399018E+02  3.743399018E+02  0.000000000E+00  0.00000E+00  9.000E+00
      25     1     1     2     0     0 -2.659834559E+01 -1.180514821E+02 -5.696372444E+01  1.830669012E+02  1.250000000E+02  0.00000E+00  9.000E+00
      25     1     1     2     0     0  4.784693806E+01  8.658885119E+01 -9.734537913E+01  1.867835150E+02  1.250000000E+02  0.00000E+00  9.000E+00
      21     1     1     2   511   501 -2.124859247E+01  3.146263088E+01 -1.090501874E+02  1.154700965E+02  0.000000000E+00  0.00000E+00  9.000E+00
#rwgt            1           1   2.9085881381755451E-002           1      125134           0
</event>
<event>
      5   9999  3.19816E-02  4.36968E+01 -1.00000E+00  1.42499E-01
      21    -1     0     0   502   501  0.000000000E+00  0.000000000E+00  1.588849224E+03  1.588849224E+03  0.000000000E+00  0.00000E+00  9.000E+00
      21    -1     0     0   512   502  0.000000000E+00  0.000000000E+00 -1.623494978E+02  1.623494978E+02  0.000000000E+00  0.00000E+00  9.000E+00
      25     1     1     2     0     0  1.365191582E+02  1.848617258E+02  7.690101510E+02  8.122887113E+02  1.250000000E+02  0.00000E+00  9.000E+00
      25     1     1     2     0     0 -1.478657176E+02 -2.270596534E+02  7.659248838E+02  8.220013895E+02  1.250000000E+02  0.00000E+00  9.000E+00
      21     1     1     2   512   501  1.134655934E+01  4.219792756E+01 -1.084353086E+02  1.169086210E+02  2.336015456E-06  0.00000E+00  9.000E+00
#rwgt            1           1   3.6227516305783823E-002           1      125224           0
</event>
<event>
      5   9999  3.19816E-02  6.73563E+01 -1.00000E+00  1.32073E-01
      21    -1     0     0   502   501  0.000000000E+00  0.000000000E+00  5.536889905E+02  5.536889905E+02  0.000000000E+00  0.00000E+00  9.000E+00
      -1    -1     0     0     0   502  0.000000000E+00  0.000000000E+00 -8.795824179E+02  8.795824179E+02  0.000000000E+00  0.00000E+00  9.000E+00
      25     1     1     2     0     0 -4.773127820E+02  4.326929442E+02 -4.234830701E+01  6.576237944E+02  1.250000000E+02  0.00000E+00  9.000E+00
      25     1     1     2     0     0  4.181052253E+02 -4.005784800E+02 -1.278510521E+02  6.060082422E+02  1.250000000E+02  0.00000E+00  9.000E+00
      -1     1     1     2     0   501  5.920755666E+01 -3.211446420E+01 -1.556940683E+02  1.696393719E+02  1.907348633E-06  0.00000E+00  9.000E+00
#rwgt            1           1   3.0263227156209459E-002           1      125332           0
</event>
<event>
      5   9999  3.19816E-02  1.85788E+02 -1.00000E+00  1.12826E-01
      21    -1     0     0   502   511  0.000000000E+00  0.000000000E+00  1.309350437E+03  1.309350437E+03  0.000000000E+00  0.00000E+00  9.000E+00
      21    -1     0     0   501   502  0.000000000E+00  0.000000000E+00 -2.344773968E+02  2.344773968E+02  0.000000000E+00  0.00000E+00  9.000E+00
      25     1     1     2     0     0 -1.202681763E+02  1.200175425E+02 -1.050702669E+02  2.356552688E+02  1.250000000E+02  0.00000E+00  9.000E+00
      25     1     1     2     0     0  2.482747391E+02  1.463529871E+01  3.016890950E+02  4.104824577E+02  1.250000000E+02  0.00000E+00  9.000E+00
      21     1     1     2   501   511 -1.280065628E+02 -1.346528412E+02  8.782542125E+02  8.976901077E+02  1.078959322E-05  0.00000E+00  9.000E+00
#rwgt            2          11   1.9994994299372833E-003           1      125437           0
</event>
<event>
      5   9999  3.19816E-02  7.19033E+01 -1.00000E+00  1.30633E-01
      21    -1     0     0   502   512  0.000000000E+00  0.000000000E+00  1.900027256E+03  1.900027256E+03  0.000000000E+00  0.00000E+00  9.000E+00
      21    -1     0     0   501   502  0.000000000E+00  0.000000000E+00 -7.656267966E+02  7.656267966E+02  0.000000000E+00  0.00000E+00  9.000E+00
      25     1     1     2     0     0  6.002227573E+02  4.217664573E+00  1.560855669E+03  1.676955743E+03  1.250000000E+02  0.00000E+00  9.000E+00
      25     1     1     2     0     0 -5.658979636E+02  5.896380775E+01 -5.782084359E+02  8.207723382E+02  1.250000000E+02  0.00000E+00  9.000E+00
      21     1     1     2   501   512 -3.432479370E+01 -6.318147232E+01  1.517532269E+02  1.679259711E+02  1.907348633E-06  0.00000E+00  9.000E+00
#rwgt            1           1   7.4710971069911369E-002           1      125457           0
</event>
<event>
      5   9999  3.19816E-02  1.33029E+01 -1.00000E+00  1.82441E-01
      21    -1     0     0   502   501  0.000000000E+00  0.000000000E+00  3.169931968E+03  3.169931968E+03  0.000000000E+00  0.00000E+00  9.000E+00
      21    -1     0     0   501   511  0.000000000E+00  0.000000000E+00 -2.095810611E+02  2.095810611E+02  0.000000000E+00  0.00000E+00  9.000E+00
      25     1     1     2     0     0  3.752862163E+01 -4.771548723E+02  2.337571546E+03  2.389341102E+03  1.250000000E+02  0.00000E+00  9.000E+00
      25     1     1     2     0     0 -5.082929829E+01  4.769114996E+02  7.298750202E+02  8.822532183E+02  1.250000000E+02  0.00000E+00  9.000E+00
      21     1     1     2   502   511  1.330067666E+01  2.433727010E-01 -1.070956598E+02  1.079187082E+02  0.000000000E+00  0.00000E+00  9.000E+00
#rwgt            1           1   4.2102802447867516E-002           1      125590           0
</event>
<event>
      5   9999  3.19816E-02  5.10251E+01 -1.00000E+00  1.38574E-01
      21    -1     0     0   512   501  0.000000000E+00  0.000000000E+00  2.507012462E+02  2.507012462E+02  0.000000000E+00  0.00000E+00  9.000E+00
      21    -1     0     0   501   502  0.000000000E+00  0.000000000E+00 -6.251321332E+02  6.251321332E+02  0.000000000E+00  0.00000E+00  9.000E+00
      25     1     1     2     0     0 -2.282748890E+02  7.839506804E+01  9.421544828E+01  2.876747509E+02  1.250000000E+02  0.00000E+00  9.000E+00
      25     1     1     2     0     0  2.290532513E+02 -1.294142775E+02 -4.451713057E+02  5.319924234E+02  1.250000000E+02  0.00000E+00  9.000E+00
      21     1     1     2   512   502 -7.783622973E-01  5.101920942E+01 -2.347502957E+01  5.616620506E+01  7.539457465E-07  0.00000E+00  9.000E+00
#rwgt            1           1   2.8261112993268403E-002           1      125852           0
</event>
<event>
      5   9999  3.19816E-02  3.77910E+01 -1.00000E+00  1.46387E-01
      21    -1     0     0   511   501  0.000000000E+00  0.000000000E+00  9.011770559E+02  9.011770559E+02  0.000000000E+00  0.00000E+00  9.000E+00
      21    -1     0     0   501   502  0.000000000E+00  0.000000000E+00 -5.600239355E+02  5.600239355E+02  0.000000000E+00  0.00000E+00  9.000E+00
      25     1     1     2     0     0  7.096591575E+01 -5.688168037E+02 -1.776168569E+02  6.129938542E+02  1.250000000E+02  0.00000E+00  9.000E+00
      25     1     1     2     0     0 -7.093085767E+01  6.066077739E+02  4.470055725E+02  7.671004887E+02  1.250000000E+02  0.00000E+00  9.000E+00
      21     1     1     2   511   502 -3.505808581E-02 -3.779097018E+01  7.176440477E+01  8.110664861E+01  0.000000000E+00  0.00000E+00  9.000E+00
#rwgt            1           1   3.5433868764769859E-002           1      125924           0
</event>
<event>
      5   9999  3.19816E-02  9.21620E+01 -1.00000E+00  1.25444E-01
      21    -1     0     0   502   501  0.000000000E+00  0.000000000E+00  1.402914424E+02  1.402914424E+02  0.000000000E+00  0.00000E+00  9.000E+00
      21    -1     0     0   512   502  0.000000000E+00  0.000000000E+00 -6.454405704E+02  6.454405704E+02  0.000000000E+00  0.00000E+00  9.000E+00
      25     1     1     2     0     0 -1.191296906E+02  1.584156481E+02 -4.699034476E+01  2.389989399E+02  1.250000000E+02  0.00000E+00  9.000E+00
      25     1     1     2     0     0  1.478606783E+02 -7.084640887E+01 -3.148759396E+02  3.763693016E+02  1.250000000E+02  0.00000E+00  9.000E+00
      21     1     1     2   512   501 -2.873098768E+01 -8.756923925E+01 -1.432828436E+02  1.703637713E+02  0.000000000E+00  0.00000E+00  9.000E+00
#rwgt            1           1   2.8176665069740894E-002           1      126134           0
</event>
<event>
      5   9999  3.19816E-02  2.27022E+01 -1.00000E+00  1.61952E-01
      21    -1     0     0   502   501  0.000000000E+00  0.000000000E+00  2.296163401E+02  2.296163401E+02  0.000000000E+00  0.00000E+00  9.000E+00
      21    -1     0     0   511   502  0.000000000E+00  0.000000000E+00 -6.214468603E+02  6.214468603E+02  0.000000000E+00  0.00000E+00  9.000E+00
      25     1     1     2     0     0 -5.777371599E+01 -2.526590468E+02  7.785828429E+01  2.980961399E+02  1.250000000E+02  0.00000E+00  9.000E+00
      25     1     1     2     0     0  5.508753235E+01  2.301163405E+02 -4.155625993E+02  4.942726376E+02  1.250000000E+02  0.00000E+00  9.000E+00
      21     1     1     2   511   501  2.686183636E+00  2.254270623E+01 -5.412620518E+01  5.869442285E+01  0.000000000E+00  0.00000E+00  9.000E+00
#rwgt            1           1   3.4595834378926327E-002           1      126191           0
</event>
<event>
      5   9999  3.19816E-02  2.46705E+01 -1.00000E+00  1.59184E-01
      21    -1     0     0   502   501  0.000000000E+00  0.000000000E+00  1.988242935E+01  1.988242935E+01  0.000000000E+00  0.00000E+00  9.000E+00
       2    -1     0     0   501     0  0.000000000E+00  0.000000000E+00 -2.291482832E+03  2.291482832E+03  0.000000000E+00  0.00000E+00  9.000E+00
      25     1     1     2     0     0 -3.103887448E+01  5.027746967E+01 -5.346405889E+02  5.522289335E+02  1.250000000E+02  0.00000E+00  9.000E+00
      25     1     1     2     0     0  3.615229267E+01 -7.441221134E+01 -5.013217697E+02  5.232520255E+02  1.250000000E+02  0.00000E+00  9.000E+00
       2     1     1     2   502     0 -5.113418185E+00  2.413474168E+01 -1.235638044E+03  1.235884302E+03  2.157918644E-05  0.00000E+00  9.000E+00
#rwgt            1           1   3.9299405045235269E-002           1      126339           0
</event>
<event>
      5   9999  3.19816E-02  4.57476E+01 -1.00000E+00  1.41314E-01
      21    -1     0     0   502   501  0.000000000E+00  0.000000000E+00  1.204672558E+02  1.204672558E+02  0.000000000E+00  0.00000E+00  9.000E+00
      21    -1     0     0   501   511  0.000000000E+00  0.000000000E+00 -8.575774590E+02  8.575774590E+02  0.000000000E+00  0.00000E+00  9.000E+00
      25     1     1     2     0     0 -7.313135398E+01 -1.374327784E+01  6.159226613E+01  1.579736683E+02  1.250000000E+02  0.00000E+00  9.000E+00
      25     1     1     2     0     0  4.052887882E+01  4.583562523E+01 -5.608577261E+02  5.778666658E+02  1.250000000E+02  0.00000E+00  9.000E+00
      21     1     1     2   502   511  3.260247516E+01 -3.209234739E+01 -2.378447432E+02  2.422043807E+02  3.814697266E-06  0.00000E+00  9.000E+00
#rwgt            1           1   2.7536272882745134E-002           1      126420           0
</event>
<event>
      5   9999  3.19816E-02  1.12021E+01 -1.00000E+00  1.90226E-01
      21    -1     0     0   512   501  0.000000000E+00  0.000000000E+00  1.409847348E+03  1.409847348E+03  0.000000000E+00  0.00000E+00  9.000E+00
      21    -1     0     0   501   502  0.000000000E+00  0.000000000E+00 -4.424355790E+01  4.424355790E+01  0.000000000E+00  0.00000E+00  9.000E+00
      25     1     1     2     0     0 -5.485367766E+01  2.319551857E+01  1.136815869E+03  1.145217132E+03  1.250000000E+02  0.00000E+00  9.000E+00
      25     1     1     2     0     0  5.198548305E+01 -3.402416713E+01  8.247666192E+01  1.621343090E+02  1.250000000E+02  0.00000E+00  9.000E+00
      21     1     1     2   512   502  2.868194603E+00  1.082864856E+01  1.463112590E+02  1.467394653E+02  0.000000000E+00  0.00000E+00  9.000E+00
#rwgt            1           1   3.9723480143938665E-002           1      126594           0
</event>
<event>
      5   9999  3.19816E-02  3.25635E+01 -1.00000E+00  1.50607E-01
      -2    -1     0     0     0   501  0.000000000E+00  0.000000000E+00  3.785621481E+02  3.785621481E+02  0.000000000E+00  0.00000E+00  9.000E+00
      21    -1     0     0   501   502  0.000000000E+00  0.000000000E+00 -3.577074171E+02  3.577074171E+02  0.000000000E+00  0.00000E+00  9.000E+00
      25     1     1     2     0     0  1.675315192E+01 -1.887088390E+01 -3.221813681E+02  3.465005228E+02  1.250000000E+02  0.00000E+00  9.000E+00
      25     1     1     2     0     0 -1.578855018E+00 -9.940993499E+00  1.571552453E+02  2.010574228E+02  1.250000000E+02  0.00000E+00  9.000E+00
      -2     1     1     2     0   502 -1.517429690E+01  2.881187740E+01  1.858808538E+02  1.887116196E+02  2.697398305E-06  0.00000E+00  9.000E+00
#rwgt            1           1   2.8411989706542663E-002           1      126772           0
</event>
<event>
      5   9999  3.19816E-02  2.63411E+01 -1.00000E+00  1.57070E-01
      21    -1     0     0   502   501  0.000000000E+00  0.000000000E+00  3.158087158E+03  3.158087158E+03  0.000000000E+00  0.00000E+00  9.000E+00
      21    -1     0     0   511   502  0.000000000E+00  0.000000000E+00 -6.156933140E+01  6.156933140E+01  0.000000000E+00  0.00000E+00  9.000E+00
      25     1     1     2     0     0 -1.417404242E+01  3.937524687E+02  1.983664155E+03  2.026275004E+03  1.250000000E+02  0.00000E+00  9.000E+00
      25     1     1     2     0     0  3.327431466E+01 -3.756132408E+02  1.083030298E+03  1.153590964E+03  1.250000000E+02  0.00000E+00  9.000E+00
      21     1     1     2   511   501 -1.910027224E+01 -1.813922790E+01  2.982337361E+01  3.979052151E+01  8.259061849E-07  0.00000E+00  9.000E+00
#rwgt            1           1   4.5657559118437066E-002           1      126870           0
</event>
<event>
      5   9999  3.19816E-02  7.34539E+01 -1.00000E+00  1.30170E-01
      21    -1     0     0   502   501  0.000000000E+00  0.000000000E+00  1.001637601E+03  1.001637601E+03  0.000000000E+00  0.00000E+00  9.000E+00
      21    -1     0     0   501   512  0.000000000E+00  0.000000000E+00 -4.514047096E+02  4.514047096E+02  0.000000000E+00  0.00000E+00  9.000E+00
      25     1     1     2     0     0 -4.905038279E+01 -1.479538337E+02  8.573207895E+02  8.802955260E+02  1.250000000E+02  0.00000E+00  9.000E+00
      25     1     1     2     0     0  1.075988720E+02  1.923109124E+02  3.720175436E+00  2.533768813E+02  1.250000000E+02  0.00000E+00  9.000E+00
      21     1     1     2   502   512 -5.854848919E+01 -4.435707872E+01 -3.108080740E+02  3.193699029E+02  6.607249480E-06  0.00000E+00  9.000E+00
#rwgt            1           1   3.1017007887179072E-002           1      127030           0
</event>
<event>
      5   9999  3.19816E-02  5.62857E+02 -1.00000E+00  9.74126E-02
       1    -1     0     0   502     0  0.000000000E+00  0.000000000E+00  1.180999063E+03  1.180999063E+03  0.000000000E+00  0.00000E+00  9.000E+00
      21    -1     0     0   501   502  0.000000000E+00  0.000000000E+00 -3.293654963E+02  3.293654963E+02  0.000000000E+00  0.00000E+00  9.000E+00
      25     1     1     2     0     0 -5.222454345E+01  9.229687391E+01  2.246051335E+02  2.780621907E+02  1.250000000E+02  0.00000E+00  9.000E+00
      25     1     1     2     0     0  4.612477364E+00  4.685425567E+02  1.947156074E+02  5.225825965E+02  1.250000000E+02  0.00000E+00  9.000E+00
       1     1     1     2   501     0  4.761206609E+01 -5.608394306E+02  4.323128261E+02  7.097197724E+02  5.394796609E-06  0.00000E+00  9.000E+00
#rwgt            2          17   6.2683291471677478E-004           1      127372           0
</event>
<event>
      5   9999  3.19816E-02  2.35234E+02 -1.00000E+00  1.09141E-01
       2    -1     0     0   502     0  0.000000000E+00  0.000000000E+00  2.277982418E+03  2.277982418E+03  0.000000000E+00  0.00000E+00  9.000E+00
      21    -1     0     0   501   502  0.000000000E+00  0.000000000E+00 -1.602457100E+02  1.602457100E+02  0.000000000E+00  0.00000E+00  9.000E+00
      25     1     1     2     0     0  2.056005326E+02  2.994342089E+02  2.143102986E+02  4.398708090E+02  1.250000000E+02  0.00000E+00  9.000E+00
      25     1     1     2     0     0 -1.733933835E+01 -1.583920772E+02  2.217614442E+02  3.003195646E+02  1.250000000E+02  0.00000E+00  9.000E+00
       2     1     1     2   501     0 -1.882611942E+02 -1.410421318E+02  1.681664965E+03  1.698037754E+03  0.000000000E+00  0.00000E+00  9.000E+00
#rwgt            2          18   2.1330140680455921E-003           1      127436           0
</event>
<event>
      5   9999  3.19816E-02  3.21468E+02 -1.00000E+00  1.04626E-01
      21    -1     0     0   502   501  0.000000000E+00  0.000000000E+00  4.102268502E+02  4.102268502E+02  0.000000000E+00  0.00000E+00  9.000E+00
       2    -1     0     0   501     0  0.000000000E+00  0.000000000E+00 -1.249822521E+03  1.249822521E+03  0.000000000E+00  0.00000E+00  9.000E+00
      25     1     1     2     0     0 -5.229774414E+02 -4.309254717E+01 -1.477952236E+02  5.593127926E+02  1.250000000E+02  0.00000E+00  9.000E+00
      25     1     1     2     0     0  2.363290208E+02 -1.024223733E+02  5.150475419E+01  2.908942906E+02  1.250000000E+02  0.00000E+00  9.000E+00
       2     1     1     2   502     0  2.866484206E+02  1.455149205E+02 -7.433052014E+02  8.098422881E+02  1.078959322E-05  0.00000E+00  9.000E+00
#rwgt            2          13   1.2930038593139816E-003           1      127485           0
</event>
<event>
      5   9999  3.19816E-02  1.33817E+01 -1.00000E+00  1.82186E-01
      21    -1     0     0   502   501  0.000000000E+00  0.000000000E+00  2.230773580E+02  2.230773580E+02  0.000000000E+00  0.00000E+00  9.000E+00
      21    -1     0     0   511   502  0.000000000E+00  0.000000000E+00 -4.060447128E+02  4.060447128E+02  0.000000000E+00  0.00000E+00  9.000E+00
      25     1     1     2     0     0 -3.453509519E+01  1.323914934E+02 -8.361747738E+01  2.033151810E+02  1.250000000E+02  0.00000E+00  9.000E+00
      25     1     1     2     0     0  2.196212957E+01 -1.278100468E+02  1.132648924E+02  2.127714244E+02  1.250000000E+02  0.00000E+00  9.000E+00
      21     1     1     2   511   501  1.257296562E+01 -4.581446554E+00 -2.126147698E+02  2.130354653E+02  2.697398305E-06  0.00000E+00  9.000E+00
#rwgt            1           1   2.6303232747326082E-002           1      127504           0
</event>
<event>
      5   9999  3.19816E-02  4.46422E+01 -1.00000E+00  1.41944E-01
      21    -1     0     0   512   501  0.000000000E+00  0.000000000E+00  3.484301228E+02  3.484301228E+02  0.000000000E+00  0.00000E+00  9.000E+00
      21    -1     0     0   501   502  0.000000000E+00  0.000000000E+00 -1.029583888E+03  1.029583888E+03  0.000000000E+00  0.00000E+00  9.000E+00
      25     1     1     2     0     0 -1.641388026E+02  2.871122422E+02 -5.270222067E+02  6.346277590E+02  1.250000000E+02  0.00000E+00  9.000E+00
      25     1     1     2     0     0  1.216045153E+02 -3.006679275E+02 -3.789287334E+02  5.141992276E+02  1.250000000E+02  0.00000E+00  9.000E+00
      21     1     1     2   512   502  4.253428731E+01  1.355568530E+01  2.247971749E+02  2.291870241E+02  2.697398305E-06  0.00000E+00  9.000E+00
#rwgt            1           1   2.8381378882993628E-002           1      127705           0
</event>
<event>
      5   9999  3.19816E-02  3.84431E+01 -1.00000E+00  1.45918E-01
      21    -1     0     0   502   501  0.000000000E+00  0.000000000E+00  2.495058286E+03  2.495058286E+03  0.000000000E+00  0.00000E+00  9.000E+00
      21    -1     0     0   511   502  0.000000000E+00  0.000000000E+00 -2.373325034E+02  2.373325034E+02  0.000000000E+00  0.00000E+00  9.000E+00
      25     1     1     2     0     0 -5.122958169E+02 -4.515177581E+02  9.179923825E+02  1.150934535E+03  1.250000000E+02  0.00000E+00  9.000E+00
      25     1     1     2     0     0  5.507070575E+02  4.530815330E+02  1.357961567E+03  1.538910575E+03  1.250000000E+02  0.00000E+00  9.000E+00
      21     1     1     2   511   501 -3.841124066E+01 -1.563774838E+00 -1.822816687E+01  4.254567978E+01  1.469710828E-06  0.00000E+00  9.000E+00
#rwgt            1           1   3.9832931765831546E-002           1      127818           0
</event>
<event>
      5   9999  3.19816E-02  1.10547E+02 -1.00000E+00  1.21900E-01
      21    -1     0     0   502   501  0.000000000E+00  0.000000000E+00  4.692056290E+02  4.692056290E+02  0.000000000E+00  0.00000E+00  9.000E+00
       3    -1     0     0   501     0  0.000000000E+00  0.000000000E+00 -7.345464464E+02  7.345464464E+02  0.000000000E+00  0.00000E+00  9.000E+00
      25     1     1     2     0     0  2.391950850E+01 -1.200341253E+02  4.021101751E+02  4.385178754E+02  1.250000000E+02  0.00000E+00  9.000E+00
      25     1     1     2     0     0 -2.716869054E+01  2.305336460E+02 -4.622597170E+02  5.321587598E+02  1.250000000E+02  0.00000E+00  9.000E+00
       3     1     1     2   502     0  3.249182040E+00 -1.104995206E+02 -2.051912755E+02  2.330754401E+02  2.697398305E-06  0.00000E+00  9.000E+00
#rwgt            1           1   3.1858919041092927E-002           1      127973           0
</event>
<event>
      5   9999  3.19816E-02  1.38506E+01 -1.00000E+00  1.80709E-01
      21    -1     0     0   502   501  0.000000000E+00  0.000000000E+00  6.576132718E+02  6.576132718E+02  0.000000000E+00  0.00000E+00  9.000E+00
      21    -1     0     0   511   502  0.000000000E+00  0.000000000E+00 -9.515660481E+01  9.515660481E+01  0.000000000E+00  0.00000E+00  9.000E+00
      25     1     1     2     0     0  3.420609162E+01  1.993687995E+02  2.431510804E+02  3.400961964E+02  1.250000000E+02  0.00000E+00  9.000E+00
      25     1     1     2     0     0 -2.152633355E+01 -2.049420852E+02  3.176316490E+02  3.987223417E+02  1.250000000E+02  0.00000E+00  9.000E+00
      21     1     1     2   511   501 -1.267975807E+01  5.573285723E+00  1.673937593E+00  1.395133849E+01  1.618680431E-07  0.00000E+00  9.000E+00
#rwgt            1           1   2.7695354843544819E-002           1      128036           0
</event>
<event>
      5   9999  3.19816E-02  5.00649E+01 -1.00000E+00  1.39043E-01
      21    -1     0     0   502   501  0.000000000E+00  0.000000000E+00  2.069401462E+02  2.069401462E+02  0.000000000E+00  0.00000E+00  9.000E+00
      21    -1     0     0   512   502  0.000000000E+00  0.000000000E+00 -4.144744164E+02  4.144744164E+02  0.000000000E+00  0.00000E+00  9.000E+00
      25     1     1     2     0     0 -1.223451554E+02  9.000123352E+01  1.027211535E+02  2.219125829E+02  1.250000000E+02  0.00000E+00  9.000E+00
      25     1     1     2     0     0  9.266141922E+01 -4.968539642E+01 -1.197651675E+02  2.025425204E+02  1.250000000E+02  0.00000E+00  9.000E+00
      21     1     1     2   512   501  2.968373621E+01 -4.031583709E+01 -1.904902562E+02  1.969594593E+02  0.000000000E+00  0.00000E+00  9.000E+00
#rwgt            1           1   2.6106345894589395E-002           1      128205           0
</event>
<event>
      5   9999  3.19816E-02  2.02042E+02 -1.00000E+00  1.11488E-01
      21    -1     0     0   502   501  0.000000000E+00  0.000000000E+00  9.881016023E+02  9.881016023E+02  0.000000000E+00  0.00000E+00  9.000E+00
       1    -1     0     0   501     0  0.000000000E+00  0.000000000E+00 -9.126338523E+02  9.126338523E+02  0.000000000E+00  0.00000E+00  9.000E+00
      25     1     1     2     0     0 -8.922887744E+01 -1.806366287E+01  1.498703162E+02  2.153466976E+02  1.250000000E+02  0.00000E+00  9.000E+00
      25     1     1     2     0     0  2.465657610E+02 -1.086889459E+02  7.657183505E+02  8.213145279E+02  1.250000000E+02  0.00000E+00  9.000E+00
       1     1     1     2   502     0 -1.573368835E+02  1.267526088E+02 -8.401209167E+02  8.640742291E+02  1.078959322E-05  0.00000E+00  9.000E+00
#rwgt            1           1   3.2347076781230326E-002           1      128300           0
</event>
<event>
      5   9999  3.19816E-02  1.23853E+02 -1.00000E+00  1.19789E-01
      21    -1     0     0   502   501  0.000000000E+00  0.000000000E+00  6.159047252E+02  6.159047252E+02  0.000000000E+00  0.00000E+00  9.000E+00
      21    -1     0     0   501   511  0.000000000E+00  0.000000000E+00 -4.691423731E+02  4.691423731E+02  0.000000000E+00  0.00000E+00  9.000E+00
      25     1     1     2     0     0 -2.471010620E+02  1.475016800E+02  4.845110436E+02  5.772275390E+02  1.250000000E+02  0.00000E+00  9.000E+00
      25     1     1     2     0     0  1.546126134E+02 -6.512820033E+01 -3.205411112E+02  3.827771501E+02  1.250000000E+02  0.00000E+00  9.000E+00
      21     1     1     2   502   511  9.248844857E+01 -8.237347963E+01 -1.720758028E+01  1.250424091E+02  2.050954167E-06  0.00000E+00  9.000E+00
#rwgt            1           1   2.6178456667479214E-002           1      128397           0
</event>
<event>
      5   9999  3.19816E-02  1.48134E+01 -1.00000E+00  1.77897E-01
      21    -1     0     0   502   501  0.000000000E+00  0.000000000E+00  1.210109657E+03  1.210109657E+03  0.000000000E+00  0.00000E+00  9.000E+00
      21    -1     0     0   512   502  0.000000000E+00  0.000000000E+00 -1.188954915E+02  1.188954915E+02  0.000000000E+00  0.00000E+00  9.000E+00
      25     1     1     2     0     0 -7.522784100E+01  1.143237558E+02  1.121797384E+03  1.137006386E+03  1.250000000E+02  0.00000E+00  9.000E+00
      25     1     1     2     0     0  6.771849046E+01 -1.015548147E+02 -2.739964696E+01  1.768471515E+02  1.250000000E+02  0.00000E+00  9.000E+00
      21     1     1     2   512   501  7.509350537E+00 -1.276894106E+01 -3.183571784E+00  1.515161149E+01  4.193558478E-07  0.00000E+00  9.000E+00
#rwgt            1           1   3.3001065918093597E-002           1      128480           0
</event>
<event>
      5   9999  3.19816E-02  1.22879E+02 -1.00000E+00  1.19933E-01
      21    -1     0     0   511   501  0.000000000E+00  0.000000000E+00  9.240691689E+02  9.240691689E+02  0.000000000E+00  0.00000E+00  9.000E+00
      21    -1     0     0   501   502  0.000000000E+00  0.000000000E+00 -1.758564180E+02  1.758564180E+02  0.000000000E+00  0.00000E+00  9.000E+00
      25     1     1     2     0     0 -8.859689387E+01  3.665316539E+01 -1.021733331E+02  1.877691512E+02  1.250000000E+02  0.00000E+00  9.000E+00
      25     1     1     2     0     0  7.888963240E+01  8.584211804E+01  2.749862164E+02  3.237821220E+02  1.250000000E+02  0.00000E+00  9.000E+00
      21     1     1     2   511   502  9.707261472E+00 -1.224952834E+02  5.753998676E+02  5.883743137E+02  1.078959322E-05  0.00000E+00  9.000E+00
#rwgt            1           1   2.6070413917751625E-002           1      128667           0
</event>
<event>
      5   9999  3.19816E-02  1.36877E+02 -1.00000E+00  1.17991E-01
      21    -1     0     0   512   501  0.000000000E+00  0.000000000E+00  2.094432188E+03  2.094432188E+03  0.000000000E+00  0.00000E+00  9.000E+00
      21    -1     0     0   501   502  0.000000000E+00  0.000000000E+00 -9.164372409E+02  9.164372409E+02  0.000000000E+00  0.00000E+00  9.000E+00
      25     1     1     2     0     0  7.293836329E+02  4.103330174E+02 -3.918665745E+02  9.325009820E+02  1.250000000E+02  0.00000E+00  9.000E+00
      25     1     1     2     0     0 -7.463741430E+02 -2.745146271E+02  3.970770033E+02  8.976234113E+02  1.250000000E+02  0.00000E+00  9.000E+00
      21     1     1     2   512   502  1.699051011E+01 -1.358183903E+02  1.172784518E+03  1.180745035E+03  0.000000000E+00  0.00000E+00  9.000E+00
#rwgt            1           1   3.2198929094174406E-002           1      128711           0
</event>
<event>
      5   9999  3.19816E-02  2.68557E+01 -1.00000E+00  1.56456E-01
      21    -1     0     0   502   511  0.000000000E+00  0.000000000E+00  2.476277739E+03  2.476277739E+03  0.000000000E+00  0.00000E+00  9.000E+00
      21    -1     0     0   501   502  0.000000000E+00  0.000000000E+00 -1.198995311E+03  1.198995311E+03  0.000000000E+00  0.00000E+00  9.000E+00
      25     1     1     2     0     0  4.123128505E+02  7.429149800E+02 -8.603026814E+02  1.215594611E+03  1.250000000E+02  0.00000E+00  9.000E+00
      25     1     1     2     0     0 -4.074206259E+02 -7.693213002E+02  1.041039940E+03  1.362804456E+03  1.250000000E+02  0.00000E+00  9.000E+00
      21     1     1     2   501   511 -4.892224628E+00  2.640632018E+01  1.096545169E+03  1.096873984E+03  0.000000000E+00  0.00000E+00  9.000E+00
#rwgt            1           1   6.1691296266402788E-002           1      128801           0
</event>
<event>
      5   9999  3.19816E-02  2.27254E+01 -1.00000E+00  1.61918E-01
      21    -1     0     0   512   501  0.000000000E+00  0.000000000E+00  2.112532334E+02  2.112532334E+02  0.000000000E+00  0.00000E+00  9.000E+00
      21    -1     0     0   501   502  0.000000000E+00  0.000000000E+00 -1.864474119E+02  1.864474119E+02  0.000000000E+00  0.00000E+00  9.000E+00
      25     1     1     2     0     0 -5.762907450E+01  1.727177412E+01  7.557113233E+01  1.579728472E+02  1.250000000E+02  0.00000E+00  9.000E+00
      25     1     1     2     0     0  3.544705888E+01 -1.233196447E+01 -1.135262741E+02  1.729791498E+02  1.250000000E+02  0.00000E+00  9.000E+00
      21     1     1     2   512   502  2.218201561E+01 -4.939809650E+00  6.276096330E+01  6.674864831E+01  6.743495762E-07  0.00000E+00  9.000E+00
#rwgt            1           1   2.4217340780869744E-002           1      129090           0
</event>
<event>
      5   9999  3.19816E-02  3.02455E+01 -1.00000E+00  1.52794E-01
      21    -1     0     0   502   511  0.000000000E+00  0.000000000E+00  3.954978769E+02  3.954978769E+02  0.000000000E+00  0.00000E+00  9.000E+00
      21    -1     0     0   501   502  0.000000000E+00  0.000000000E+00 -1.394395978E+03  1.394395978E+03  0.000000000E+00  0.00000E+00  9.000E+00
      25     1     1     2     0     0  1.112768159E+01  4.405389597E+02 -1.189035757E+03  1.274217184E+03  1.250000000E+02  0.00000E+00  9.000E+00
      25     1     1     2     0     0 -2.678048197E+01 -4.146588632E+02  2.073095306E+02  4.808964634E+02  1.250000000E+02  0.00000E+00  9.000E+00
      21     1     1     2   501   511  1.565280038E+01 -2.588009650E+01 -1.717187445E+01  3.478020740E+01  3.371747881E-07  0.00000E+00  9.000E+00
#rwgt            1           1   3.4270294956427944E-002           1      129255           0
</event>
<event>
      5   9999  3.26902E-02  5.70087E+01 -1.00000E+00  1.35901E-01
      21    -1     0     0   502   501  0.000000000E+00  0.000000000E+00  3.000683088E+02  3.000683088E+02  0.000000000E+00  0.00000E+00  9.000E+00
      21    -1     0     0   501   512  0.000000000E+00  0.000000000E+00 -9.626390484E+02  9.626390484E+02  0.000000000E+00  0.00000E+00  9.000E+00
      25     1     1     2     0     0  4.481936597E+01 -1.716602956E+02 -3.065906912E+02  3.756313147E+02  1.250000000E+02  0.00000E+00  9.000E+00
      25     1     1     2     0     0 -1.448230188E+01  2.199268432E+02  2.033239842E+02  3.248741232E+02  1.250000000E+02  0.00000E+00  9.000E+00
      21     1     1     2   502   512 -3.033706409E+01 -4.826654762E+01 -5.593040326E+02  5.622019192E+02  0.000000000E+00  0.00000E+00  9.000E+00
#rwgt            1           1   3.2254710917184029E-002           1      129454           0
</event>
<event>
      5   9999  3.19816E-02  2.95277E+01 -1.00000E+00  1.53520E-01
      21    -1     0     0   511   501  0.000000000E+00  0.000000000E+00  6.644627048E+02  6.644627048E+02  0.000000000E+00  0.00000E+00  9.000E+00
      21    -1     0     0   501   502  0.000000000E+00  0.000000000E+00 -1.810108550E+03  1.810108550E+03  0.000000000E+00  0.00000E+00  9.000E+00
      25     1     1     2     0     0 -9.964428589E+02  3.442312849E+02 -4.958980088E+02  1.171722400E+03  1.250000000E+02  0.00000E+00  9.000E+00
      25     1     1     2     0     0  1.001554128E+03 -3.151493300E+02 -6.826834765E+02  1.258614914E+03  1.250000000E+02  0.00000E+00  9.000E+00
      21     1     1     2   511   502 -5.111269091E+00 -2.908195499E+01  3.293563983E+01  4.423394114E+01  6.743495762E-07  0.00000E+00  9.000E+00
#rwgt            1           1   2.5712464474048746E-002           1      129546           0
</event>
<event>
      5   9999  3.19816E-02  1.16532E+02 -1.00000E+00  1.20911E-01
      21    -1     0     0   512   501  0.000000000E+00  0.000000000E+00  7.886693430E+02  7.886693430E+02  0.000000000E+00  0.00000E+00  9.000E+00
      21    -1     0     0   501   502  0.000000000E+00  0.000000000E+00 -2.386229290E+02  2.386229290E+02  0.000000000E+00  0.00000E+00  9.000E+00
      25     1     1     2     0     0 -8.507065926E+01  3.048822633E+02 -9.282959338E+00  3.404429245E+02  1.250000000E+02  0.00000E+00  9.000E+00
      25     1     1     2     0     0  1.457037385E+02 -2.053668680E+02  3.728889734E+02  4.669864199E+02  1.250000000E+02  0.00000E+00  9.000E+00
      21     1     1     2   512   502 -6.063307927E+01 -9.951539526E+01  1.864403999E+02  2.198629275E+02  3.814697266E-06  0.00000E+00  9.000E+00
#rwgt            1           1   2.9625523457842549E-002           1      129716           0
</event>
<event>
      5   9999  3.19816E-02  1.75128E+02 -1.00000E+00  1.13789E-01
      21    -1     0     0   511   501  0.000000000E+00  0.000000000E+00  8.020747469E+02  8.020747469E+02  0.000000000E+00  0.00000E+00  9.000E+00
      21    -1     0     0   501   502  0.000000000E+00  0.000000000E+00 -1.680661193E+03  1.680661193E+03  0.000000000E+00  0.00000E+00  9.000E+00
      25     1     1     2     0     0 -4.944956205E+02  1.303498570E+01  2.015872909E+02  5.485966327E+02  1.250000000E+02  0.00000E+00  9.000E+00
      25     1     1     2     0     0  4.275372173E+02  1.487872539E+02 -1.450424533E+03  1.524559624E+03  1.250000000E+02  0.00000E+00  9.000E+00
      21     1     1     2   511   502  6.695840328E+01 -1.618222396E+02  3.702507963E+02  4.095796835E+02  7.629394531E-06  0.00000E+00  9.000E+00
#rwgt            2          11   4.5672622314762755E-003           1      129835           0
</event>
<event>
      5   9999  3.19816E-02  6.18399E+01 -1.00000E+00  1.34006E-01
      21    -1     0     0   512   501  0.000000000E+00  0.000000000E+00  1.210762833E+03  1.210762833E+03  0.000000000E+00  0.00000E+00  9.000E+00
      21    -1     0     0   501   502  0.000000000E+00  0.000000000E+00 -3.290323711E+02  3.290323711E+02  0.000000000E+00  0.00000E+00  9.000E+00
      25     1     1     2     0     0  5.759011812E+01  8.016358139E+01  7.252645959E+02  7.425473423E+02  1.250000000E+02  0.00000E+00  9.000E+00
      25     1     1     2     0     0 -2.952338860E+01 -2.505975629E+01 -3.048790434E+02  3.317768120E+02  1.250000000E+02  0.00000E+00  9.000E+00
      21     1     1     2   512   502 -2.806672952E+01 -5.510382511E+01  4.613449095E+02  4.654710500E+02  7.629394531E-06  0.00000E+00  9.000E+00
#rwgt            1           1   3.0494696716697706E-002           1      129855           0
</event>
<event>
      5   9999  3.19816E-02  7.04230E+01 -1.00000E+00  1.31088E-01
      21    -1     0     0   502   511  0.000000000E+00  0.000000000E+00  1.889959042E+03  1.889959042E+03  0.000000000E+00  0.00000E+00  9.000E+00
      21    -1     0     0   501   502  0.000000000E+00  0.000000000E+00 -4.593530192E+02  4.593530192E+02  0.000000000E+00  0.00000E+00  9.000E+00
      25     1     1     2     0     0  1.897261817E+02  1.107012237E+02  5.121935726E+01  2.578744026E+02  1.250000000E+02  0.00000E+00  9.000E+00
      25     1     1     2     0     0 -1.845047058E+02 -4.047204544E+01 -3.191957029E+02  3.913960521E+02  1.250000000E+02  0.00000E+00  9.000E+00
      21     1     1     2   501   511 -5.221475939E+00 -7.022917824E+01  1.698582369E+03  1.700041607E+03  2.157918644E-05  0.00000E+00  9.000E+00
#rwgt            1           1   2.7624762314894948E-002           1      129998           0
</event>
<event>
      5   9999  3.19816E-02  1.27110E+02 -1.00000E+00  1.19317E-01
      21    -1     0     0   512   501  0.000000000E+00  0.000000000E+00  8.530213305E+02  8.530213305E+02  0.000000000E+00  0.00000E+00  9.000E+00
      21    -1     0     0   501   502  0.000000000E+00  0.000000000E+00 -1.666257957E+03  1.666257957E+03  0.000000000E+00  0.00000E+00  9.000E+00
      25     1     1     2     0     0  1.023543701E+02  2.440762477E+01 -1.000437000E+02  1.915878158E+02  1.250000000E+02  0.00000E+00  9.000E+00
      25     1     1     2     0     0 -1.028126900E+01  6.322462466E+01 -1.512163708E+03  1.518672821E+03  1.250000000E+02  0.00000E+00  9.000E+00
      21     1     1     2   512   502 -9.207310114E+01 -8.763224943E+01  7.989707816E+02  8.090186506E+02  1.078959322E-05  0.00000E+00  9.000E+00
#rwgt            1           1   3.1935620723318701E-002           1      130103           0
</event>
<event>
      5   9999  3.19816E-02  5.50408E+01 -1.00000E+00  1.36737E-01
      21    -1     0     0   511   501  0.000000000E+00  0.000000000E+00  6.096009135E+02  6.096009135E+02  0.000000000E+00  0.00000E+00  9.000E+00
      21    -1     0     0   501   502  0.000000000E+00  0.000000000E+00 -4.826562586E+02  4.826562586E+02  0.000000000E+00  0.00000E+00  9.000E+00
      25     1     1     2     0     0  3.327735985E+02  1.261381102E+02 -2.258144124E+02  4.396205632E+02  1.250000000E+02  0.00000E+00  9.000E+00
      25     1     1     2     0     0 -2.779698910E+02 -1.312413367E+02  3.904108178E+01  3.341268544E+02  1.250000000E+02  0.00000E+00  9.000E+00
      21     1     1     2   511   502 -5.480370748E+01  5.103226491E+00  3.137179855E+02  3.185097545E+02  0.000000000E+00  0.00000E+00  9.000E+00
#rwgt            1           1   2.6481644777487358E-002           1      130163           0
</event>
<event>
      5   9999  3.19816E-02  7.46305E+02 -1.00000E+00  9.41494E-02
      21    -1     0     0   502   501  0.000000000E+00  0.000000000E+00  3.107027329E+02  3.107027329E+02  0.000000000E+00  0.00000E+00  9.000E+00
      21    -1     0     0   512   502  0.000000000E+00  0.000000000E+00 -3.626371933E+03  3.626371933E+03  0.000000000E+00  0.00000E+00  9.000E+00
      25     1     1     2     0     0 -2.077426013E+02  5.511766665E+02 -2.115954929E+03  2.199964311E+03  1.250000000E+02  0.00000E+00  9.000E+00
      25     1     1     2     0     0 -2.949448454E+02  4.356046745E-01  4.518866226E+00  3.203717712E+02  1.250000000E+02  0.00000E+00  9.000E+00
      21     1     1     2   512   501  5.026874468E+02 -5.516122711E+02 -1.204233137E+03  1.416738584E+03  0.000000000E+00  0.00000E+00  9.000E+00
#rwgt            2          11   3.1104208778478772E-004           1      130283           0
</event>
<event>
      5   9999  3.19816E-02  1.68564E+02 -1.00000E+00  1.14420E-01
      21    -1     0     0   502   511  0.000000000E+00  0.000000000E+00  2.248464036E+02  2.248464036E+02  0.000000000E+00  0.00000E+00  9.000E+00
      21    -1     0     0   501   502  0.000000000E+00  0.000000000E+00 -5.377238012E+02  5.377238012E+02  0.000000000E+00  0.00000E+00  9.000E+00
      25     1     1     2     0     0 -1.804474155E+02 -1.407135543E+02 -1.074121595E+01  2.609634991E+02  1.250000000E+02  0.00000E+00  9.000E+00
      25     1     1     2     0     0  7.499877113E+01  9.205544420E+00 -2.992771871E+02  3.330186067E+02  1.250000000E+02  0.00000E+00  9.000E+00
      21     1     1     2   501   511  1.054486443E+02  1.315080099E+02 -2.858994500E+00  1.685880990E+02  3.123704230E-06  0.00000E+00  9.000E+00
#rwgt            1           1   2.9132085022509031E-002           1      130318           0
</event>
<event>
      5   9999  3.19816E-02  3.60492E+02 -1.00000E+00  1.03063E-01
      21    -1     0     0   502   501  0.000000000E+00  0.000000000E+00  2.477757987E+03  2.477757987E+03  0.000000000E+00  0.00000E+00  9.000E+00
      21    -1     0     0   501   512  0.000000000E+00  0.000000000E+00 -1.142810490E+03  1.142810490E+03  0.000000000E+00  0.00000E+00  9.000E+00
      25     1     1     2     0     0  4.551095261E+02 -1.699775201E+02  2.319179252E+03  2.372811505E+03  1.250000000E+02  0.00000E+00  9.000E+00
      25     1     1     2     0     0 -1.046424349E+02  8.555407336E+01 -8.392448409E+02  8.592010484E+02  1.250000000E+02  0.00000E+00  9.000E+00
      21     1     1     2   502   512 -3.504670913E+02  8.442344675E+01 -1.449869143E+02  3.885559235E+02  6.607249480E-06  0.00000E+00  9.000E+00
#rwgt            2          11   1.4219124704717853E-002           1      130525           0
</event>
<event>
      5   9999  3.19816E-02  4.11129E+01 -1.00000E+00  1.44105E-01
      21    -1     0     0   502   501  0.000000000E+00  0.000000000E+00  5.739859114E+02  5.739859114E+02  0.000000000E+00  0.00000E+00  9.000E+00
      21    -1     0     0   511   502  0.000000000E+00  0.000000000E+00 -2.919722040E+02  2.919722040E+02  0.000000000E+00  0.00000E+00  9.000E+00
      25     1     1     2     0     0 -1.962738075E+02 -1.333805128E+02 -1.371665459E+02  3.012530996E+02  1.250000000E+02  0.00000E+00  9.000E+00
      25     1     1     2     0     0  1.646804406E+02  1.070722039E+02  4.543951248E+02  5.105722612E+02  1.250000000E+02  0.00000E+00  9.000E+00
      21     1     1     2   511   501  3.159336692E+01  2.630830883E+01 -3.521487156E+01  5.413275465E+01  0.000000000E+00  0.00000E+00  9.000E+00
#rwgt            1           1   2.7463775508115715E-002           1      130545           0
</event>
<event>
      5   9999  3.19816E-02  1.16524E+02 -1.00000E+00  1.20913E-01
       4    -1     0     0   502     0  0.000000000E+00  0.000000000E+00  4.967423408E+02  4.967423408E+02  0.000000000E+00  0.00000E+00  9.000E+00
      21    -1     0     0   501   502  0.000000000E+00  0.000000000E+00 -7.035329133E+02  7.035329133E+02  0.000000000E+00  0.00000E+00  9.000E+00
      25     1     1     2     0     0 -1.468812623E+02 -1.616404585E+02 -4.813809339E+02  5.431890524E+02  1.250000000E+02  0.00000E+00  9.000E+00
      25     1     1     2     0     0  3.035777480E+01  1.619937106E+02 -1.244335557E+02  2.413964924E+02  1.250000000E+02  0.00000E+00  9.000E+00
       4     1     1     2   501     0  1.165234875E+02 -3.532520508E-01  3.990239172E+02  4.156897093E+02  0.000000000E+00  0.00000E+00  9.000E+00
#rwgt            1           1   3.5640642457842570E-002           1      130698           0
</event>
<event>
      5   9999  3.73140E-02  1.28253E+02 -1.00000E+00  1.19155E-01
      21    -1     0     0   502   501  0.000000000E+00  0.000000000E+00  3.242760385E+02  3.242760385E+02  0.000000000E+00  0.00000E+00  9.000E+00
      21    -1     0     0   511   502  0.000000000E+00  0.000000000E+00 -8.962584592E+02  8.962584592E+02  0.000000000E+00  0.00000E+00  9.000E+00
      25     1     1     2     0     0  2.370801066E+01  1.938761241E+02 -2.152349583E+02  3.163875923E+02  1.250000000E+02  0.00000E+00  9.000E+00
      25     1     1     2     0     0  1.253490408E+01 -3.169020614E+02  1.565115359E+02  3.751065198E+02  1.250000000E+02  0.00000E+00  9.000E+00
      21     1     1     2   511   501 -3.624291473E+01  1.230259373E+02 -5.132589984E+02  5.290403855E+02  7.629394531E-06  0.00000E+00  9.000E+00
#rwgt            1           1   3.4495219265312280E-002           1      130783           0
</event>
<event>
      5   9999  3.19816E-02  7.73547E+01 -1.00000E+00  1.29060E-01
      21    -1     0     0   502   501  0.000000000E+00  0.000000000E+00  1.671921023E+03  1.671921023E+03  0.000000000E+00  0.00000E+00  9.000E+00
      21    -1     0     0   501   512  0.000000000E+00  0.000000000E+00 -2.895549112E+02  2.895549112E+02  0.000000000E+00  0.00000E+00  9.000E+00
      25     1     1     2     0     0 -2.552047003E+02  4.289323874E+02  1.313066044E+02  5.310168136E+02  1.250000000E+02  0.00000E+00  9.000E+00
      25     1     1     2     0     0  3.274236711E+02 -4.012164009E+02  1.243408313E+03  1.352726910E+03  1.250000000E+02  0.00000E+00  9.000E+00
      21     1     1     2   502   512 -7.221897077E+01 -2.771598646E+01  7.651193677E+00  7.773220960E+01  1.327458468E-06  0.00000E+00  9.000E+00
#rwgt            1           1   3.0661348773162431E-002           1      130831           0
</event>
<event>
      5   9999  3.19816E-02  3.75232E+02 -1.00000E+00  1.02528E-01
       2    -1     0     0   502     0  0.000000000E+00  0.000000000E+00  2.475436472E+03  2.475436472E+03  0.000000000E+00  0.00000E+00  9.000E+00
      21    -1     0     0   501   502  0.000000000E+00  0.000000000E+00 -7.334889800E+02  7.334889800E+02  0.000000000E+00  0.00000E+00  9.000E+00
      25     1     1     2     0     0 -1.594482321E+02  5.730880740E+02  4.267724733E+02  7.427068219E+02  1.250000000E+02  0.00000E+00  9.000E+00
      25     1     1     2     0     0  5.313576899E+02 -6.229088246E+02 -2.432777063E+02  8.632296570E+02  1.250000000E+02  0.00000E+00  9.000E+00
       2     1     1     2   501     0 -3.719094578E+02  4.982075068E+01  1.558452725E+03  1.602988973E+03  0.000000000E+00  0.00000E+00  9.000E+00
#rwgt            1           1   3.0814559124406671E-002           1      131073           0
</event>
<event>
      5   9999  3.19816E-02  2.82825E+02 -1.00000E+00  1.06431E-01
      21    -1     0     0   502   501  0.000000000E+00  0.000000000E+00  7.660027312E+02  7.660027312E+02  0.000000000E+00  0.00000E+00  9.000E+00
      21    -1     0     0   511   502  0.000000000E+00  0.000000000E+00 -1.135425939E+03  1.135425939E+03  0.000000000E+00  0.00000E+00  9.000E+00
      25     1     1     2     0     0  7.399366400E+01  2.482470890E+02  4.385925859E+02  5.244903583E+02  1.250000000E+02  0.00000E+00  9.000E+00
      25     1     1     2     0     0 -2.183030636E+02 -4.914848379E+02 -3.434049969E+01  5.531887954E+02  1.250000000E+02  0.00000E+00  9.000E+00
      21     1     1     2   511   501  1.443093996E+02  2.432377488E+02 -7.736752939E+02  8.237495163E+02  1.078959322E-05  0.00000E+00  9.000E+00
#rwgt            2          11   3.0274841225609865E-003           1      131107           0
</event>
<event>
      5   9999  3.19816E-02  2.30295E+02 -1.00000E+00  1.09463E-01
      21    -1     0     0   502   501  0.000000000E+00  0.000000000E+00  2.584731973E+03  2.584731973E+03  0.000000000E+00  0.00000E+00  9.000E+00
      21    -1     0     0   501   512  0.000000000E+00  0.000000000E+00 -1.020223793E+03  1.020223793E+03  0.000000000E+00  0.00000E+00  9.000E+00
      25     1     1     2     0     0  1.933800707E+02  1.711522020E+02  2.187032943E+03  2.205771298E+03  1.250000000E+02  0.00000E+00  9.000E+00
      25     1     1     2     0     0 -4.211242696E+02 -2.053313581E+02  2.151050312E+02  5.304731770E+02  1.250000000E+02  0.00000E+00  9.000E+00
      21     1     1     2   502   512  2.277441989E+02  3.417915611E+01 -8.376297942E+02  8.687112909E+02  1.078959322E-05  0.00000E+00  9.000E+00
#rwgt            2          11   3.4590375688323245E-002           1      131157           0
</event>
<event>
      5   9999  3.19816E-02  1.08236E+02 -1.00000E+00  1.22301E-01
      21    -1     0     0   511   501  0.000000000E+00  0.000000000E+00  1.849903730E+02  1.849903730E+02  0.000000000E+00  0.00000E+00  9.000E+00
      21    -1     0     0   501   502  0.000000000E+00  0.000000000E+00 -5.833023726E+02  5.833023726E+02  0.000000000E+00  0.00000E+00  9.000E+00
      25     1     1     2     0     0 -1.062901580E+02  2.002720897E+02 -7.016254137E+01  2.682429679E+02  1.250000000E+02  0.00000E+00  9.000E+00
      25     1     1     2     0     0  5.402938491E+01 -1.054883849E+02 -3.495768916E+02  3.897126851E+02  1.250000000E+02  0.00000E+00  9.000E+00
      21     1     1     2   511   502  5.226077311E+01 -9.478370484E+01  2.142743342E+01  1.103370926E+02  1.846782373E-06  0.00000E+00  9.000E+00
#rwgt            1           1   2.8158165094320169E-002           1      131177           0
</event>
<event>
      5   9999  3.19816E-02  2.62337E+01 -1.00000E+00  1.57200E-01
      21    -1     0     0   502   501  0.000000000E+00  0.000000000E+00  3.893131949E+02  3.893131949E+02  0.000000000E+00  0.00000E+00  9.000E+00
      21    -1     0     0   501   512  0.000000000E+00  0.000000000E+00 -2.523130188E+02  2.523130188E+02  0.000000000E+00  0.00000E+00  9.000E+00
      25     1     1     2     0     0  2.448899278E+02 -7.480409581E+01  6.264888315E+01  2.917475142E+02  1.250000000E+02  0.00000E+00  9.000E+00
      25     1     1     2     0     0 -2.413307258E+02  4.881294556E+01  1.169292825E+02  2.998677708E+02  1.250000000E+02  0.00000E+00  9.000E+00
      21     1     1     2   502   512 -3.559202039E+00  2.599115026E+01 -4.257798942E+01  5.001092875E+01  0.000000000E+00  0.00000E+00  9.000E+00
#rwgt            1           1   2.7175688882632113E-002           1      131227           0
</event>
<event>
      5   9999  3.19816E-02  3.00252E+01 -1.00000E+00  1.53014E-01
      21    -1     0     0   502   511  0.000000000E+00  0.000000000E+00  2.917668515E+03  2.917668515E+03  0.000000000E+00  0.00000E+00  9.000E+00
      21    -1     0     0   501   502  0.000000000E+00  0.000000000E+00 -1.213440940E+02  1.213440940E+02  0.000000000E+00  0.00000E+00  9.000E+00
      25     1     1     2     0     0  4.364770562E+02 -3.486785939E+02  1.386261172E+03  1.499811328E+03  1.250000000E+02  0.00000E+00  9.000E+00
      25     1     1     2     0     0 -4.146356018E+02  3.692811576E+02  1.213225461E+03  1.340086667E+03  1.250000000E+02  0.00000E+00  9.000E+00
      21     1     1     2   501   511 -2.184145437E+01 -2.060256376E+01  1.968377876E+02  1.991146137E+02  0.000000000E+00  0.00000E+00  9.000E+00
#rwgt            1           1   4.5022803767508064E-002           1      131333           0
</event>
<event>
      5   9999  3.19816E-02  1.80498E+02 -1.00000E+00  1.13295E-01
       2    -1     0     0   502     0  0.000000000E+00  0.000000000E+00  3.121311635E+03  3.121311635E+03  0.000000000E+00  0.00000E+00  9.000E+00
      21    -1     0     0   501   502  0.000000000E+00  0.000000000E+00 -1.143794092E+03  1.143794092E+03  0.000000000E+00  0.00000E+00  9.000E+00
      25     1     1     2     0     0 -3.012542411E+02 -6.945067379E+02 -1.239785632E+02  7.772318901E+02  1.250000000E+02  0.00000E+00  9.000E+00
      25     1     1     2     0     0  1.943041010E+02  8.399066749E+02 -4.150034512E+02  9.649094106E+02  1.250000000E+02  0.00000E+00  9.000E+00
       2     1     1     2   501     0  1.069501401E+02 -1.453999370E+02  2.516499558E+03  2.522964427E+03  3.051757812E-05  0.00000E+00  9.000E+00
#rwgt            1           1   3.1414863337189271E-002           1      131477           0
</event>
<event>
      5   9999  3.74335E-02  3.85641E+01 -1.00000E+00  1.45832E-01
      21    -1     0     0   502   511  0.000000000E+00  0.000000000E+00  3.343543454E+02  3.343543454E+02  0.000000000E+00  0.00000E+00  9.000E+00
      21    -1     0     0   501   502  0.000000000E+00  0.000000000E+00 -2.143798547E+02  2.143798547E+02  0.000000000E+00  0.00000E+00  9.000E+00
      25     1     1     2     0     0  1.019608555E+02 -2.378445974E+01 -5.207546792E+01  1.711682533E+02  1.250000000E+02  0.00000E+00  9.000E+00
      25     1     1     2     0     0 -7.830787950E+01  5.424304731E+01 -3.989174269E+01  1.621443286E+02  1.250000000E+02  0.00000E+00  9.000E+00
      21     1     1     2   501   511 -2.365297603E+01 -3.045858758E+01  2.119417013E+02  2.154216182E+02  0.000000000E+00  0.00000E+00  9.000E+00
#rwgt            1           1  0.10182907974992549                1      131574           0
</event>
<event>
      5   9999  3.19816E-02  8.90012E+01 -1.00000E+00  1.26148E-01
      21    -1     0     0   512   501  0.000000000E+00  0.000000000E+00  7.854398643E+01  7.854398643E+01  0.000000000E+00  0.00000E+00  9.000E+00
      21    -1     0     0   501   502  0.000000000E+00  0.000000000E+00 -1.108054310E+03  1.108054310E+03  0.000000000E+00  0.00000E+00  9.000E+00
      25     1     1     2     0     0  8.639555799E+01  6.380987910E+01 -1.816934901E+02  2.453027058E+02  1.250000000E+02  0.00000E+00  9.000E+00
      25     1     1     2     0     0 -1.494680090E+02 -1.015896977E+00 -8.273316452E+02  8.499672752E+02  1.250000000E+02  0.00000E+00  9.000E+00
      21     1     1     2   512   502  6.307245098E+01 -6.279398212E+01 -2.048518824E+01  9.132831544E+01  1.862108630E-06  0.00000E+00  9.000E+00
#rwgt            2          11   3.0091793341162779E-003           1      131748           0
</event>
<event>
      5   9999  3.19816E-02  1.79603E+02 -1.00000E+00  1.13376E-01
      21    -1     0     0   502   511  0.000000000E+00  0.000000000E+00  1.973103244E+03  1.973103244E+03  0.000000000E+00  0.00000E+00  9.000E+00
      21    -1     0     0   501   502  0.000000000E+00  0.000000000E+00 -2.530696126E+02  2.530696126E+02  0.000000000E+00  0.00000E+00  9.000E+00
      25     1     1     2     0     0  1.003487192E+02 -6.508003997E+01  1.177532231E+03  1.190173278E+03  1.250000000E+02  0.00000E+00  9.000E+00
      25     1     1     2     0     0 -2.210170605E+02  1.981080058E+02 -1.244676802E+02  3.452716704E+02  1.250000000E+02  0.00000E+00  9.000E+00
      21     1     1     2   501   511  1.206683413E+02 -1.330279658E+02  6.669690804E+02  6.907279077E+02  1.078959322E-05  0.00000E+00  9.000E+00
#rwgt            1           1   3.0363348220854347E-002           1      131768           0
</event>
<event>
      5   9999  3.19816E-02  1.38459E+02 -1.00000E+00  1.17788E-01
      21    -1     0     0   512   501  0.000000000E+00  0.000000000E+00  6.643936368E+02  6.643936368E+02  0.000000000E+00  0.00000E+00  9.000E+00
      21    -1     0     0   501   502  0.000000000E+00  0.000000000E+00 -7.803557501E+02  7.803557501E+02  0.000000000E+00  0.00000E+00  9.000E+00
      25     1     1     2     0     0  2.064627561E+02  2.841885977E+01 -6.847337517E+02  7.265809054E+02  1.250000000E+02  0.00000E+00  9.000E+00
      25     1     1     2     0     0 -2.465368195E+02  1.041143649E+02  4.337677274E+02  5.247853329E+02  1.250000000E+02  0.00000E+00  9.000E+00
      21     1     1     2   512   502  4.007406340E+01 -1.325332246E+02  1.350039110E+02  1.933831486E+02  2.697398305E-06  0.00000E+00  9.000E+00
#rwgt            1           1   2.6933058866927574E-002           1      131830           0
</event>
<event>
      5   9999  3.19816E-02  2.08484E+02 -1.00000E+00  1.10995E-01
       2    -1     0     0   502     0  0.000000000E+00  0.000000000E+00  4.255300606E+03  4.255300606E+03  0.000000000E+00  0.00000E+00  9.000E+00
      21    -1     0     0   501   502  0.000000000E+00  0.000000000E+00 -8.294987884E+01  8.294987884E+01  0.000000000E+00  0.00000E+00  9.000E+00
      25     1     1     2     0     0 -2.712403517E+01 -3.079545898E+02  4.457435448E+02  5.566723007E+02  1.250000000E+02  0.00000E+00  9.000E+00
      25     1     1     2     0     0  1.286127934E+02  1.258405017E+02  4.727799181E+02  5.210786250E+02  1.250000000E+02  0.00000E+00  9.000E+00
       2     1     1     2   501     0 -1.014887582E+02  1.821140881E+02  3.253827264E+03  3.260499559E+03  0.000000000E+00  0.00000E+00  9.000E+00
#rwgt            1           1   2.7614817876479000E-002           1      131900           0
</event>
<event>
      5   9999  3.19816E-02  7.96463E+01 -1.00000E+00  1.28443E-01
       2    -1     0     0   502     0  0.000000000E+00  0.000000000E+00  1.015003621E+03  1.015003621E+03  0.000000000E+00  0.00000E+00  9.000E+00
      21    -1     0     0   501   502  0.000000000E+00  0.000000000E+00 -1.000227852E+02  1.000227852E+02  0.000000000E+00  0.00000E+00  9.000E+00
      25     1     1     2     0     0 -8.052044939E+01 -7.282329048E+01 -2.423652026E+00  1.655827542E+02  1.250000000E+02  0.00000E+00  9.000E+00
      25     1     1     2     0     0  1.012031143E+02 -4.090714002E+00  5.275592042E+02  5.515455722E+02  1.250000000E+02  0.00000E+00  9.000E+00
       2     1     1     2   501     0 -2.068266489E+01  7.691400448E+01  3.898452838E+02  3.978980799E+02  0.000000000E+00  0.00000E+00  9.000E+00
#rwgt            1           1   2.7291422979526008E-002           1      131927           0
</event>
<event>
      5   9999  3.19816E-02  2.29785E+02 -1.00000E+00  1.09496E-01
      21    -1     0     0   511   501  0.000000000E+00  0.000000000E+00  2.857694580E+02  2.857694580E+02  0.000000000E+00  0.00000E+00  9.000E+00
      21    -1     0     0   501   502  0.000000000E+00  0.000000000E+00 -9.327401615E+02  9.327401615E+02  0.000000000E+00  0.00000E+00  9.000E+00
      25     1     1     2     0     0  1.464753484E+02  6.334102089E+01  5.288583534E+01  2.094970744E+02  1.250000000E+02  0.00000E+00  9.000E+00
      25     1     1     2     0     0  6.533006353E+01 -1.524459335E+02 -7.462327739E+02  7.745941729E+02  1.250000000E+02  0.00000E+00  9.000E+00
      21     1     1     2   511   502 -2.118054119E+02  8.910491257E+01  4.637623510E+01  2.344183720E+02  5.519789173E-06  0.00000E+00  9.000E+00
#rwgt            1           1   2.7031895860616859E-002           1      131988           0
</event>
<event>
      5   9999  3.19816E-02  6.76683E+00 -1.00000E+00  2.17654E-01
      21    -1     0     0   512   501  0.000000000E+00  0.000000000E+00  1.437051968E+03  1.437051968E+03  0.000000000E+00  0.00000E+00  9.000E+00
      21    -1     0     0   501   502  0.000000000E+00  0.000000000E+00 -4.776898906E+02  4.776898906E+02  0.000000000E+00  0.00000E+00  9.000E+00
      25     1     1     2     0     0  4.746891513E+02  6.285284849E+02  2.493595175E+02  8.355734651E+02  1.250000000E+02  0.00000E+00  9.000E+00
      25     1     1     2     0     0 -4.701854195E+02 -6.335788643E+02  6.819848551E+02  1.050345109E+03  1.250000000E+02  0.00000E+00  9.000E+00
      21     1     1     2   512   502 -4.503731757E+00  5.050379330E+00  2.801770497E+01  2.882328438E+01  5.840038640E-07  0.00000E+00  9.000E+00
#rwgt            1           1   2.7450174976487086E-002           1      132018           0
</event>
<event>
      5   9999  3.19816E-02  4.80737E+01 -1.00000E+00  1.40056E-01
      21    -1     0     0   502   501  0.000000000E+00  0.000000000E+00  1.424218006E+02  1.424218006E+02  0.000000000E+00  0.00000E+00  9.000E+00
      21    -1     0     0   501   511  0.000000000E+00  0.000000000E+00 -4.789979538E+02  4.789979538E+02  0.000000000E+00  0.00000E+00  9.000E+00
      25     1     1     2     0     0  2.940917539E+01  6.184911745E+01  6.845389259E+01  1.581175143E+02  1.250000000E+02  0.00000E+00  9.000E+00
      25     1     1     2     0     0 -7.309615626E+01 -8.191232206E+01 -3.635458447E+02  3.998040242E+02  1.250000000E+02  0.00000E+00  9.000E+00
      21     1     1     2   502   511  4.368698087E+01  2.006320460E+01 -4.148420110E+01  6.349821586E+01  8.259061849E-07  0.00000E+00  9.000E+00
#rwgt            1           1   2.7631495841935035E-002           1      132345           0
</event>
<event>
      5   9999  3.95320E-02  1.51874E+02 -1.00000E+00  1.16180E-01
      21    -1     0     0   512   501  0.000000000E+00  0.000000000E+00  8.922782900E+01  8.922782900E+01  0.000000000E+00  0.00000E+00  9.000E+00
      21    -1     0     0   501   502  0.000000000E+00  0.000000000E+00 -9.384402562E+02  9.384402562E+02  0.000000000E+00  0.00000E+00  9.000E+00
      25     1     1     2     0     0 -5.703332783E+01 -1.804218890E+02 -6.026578225E+02  6.439148309E+02  1.250000000E+02  0.00000E+00  9.000E+00
      25     1     1     2     0     0  5.090898682E+00  3.770644117E+01 -6.166202167E+01  1.444814793E+02  1.250000000E+02  0.00000E+00  9.000E+00
      21     1     1     2   512   502  5.194242915E+01  1.427154479E+02 -1.848925830E+02  2.392717749E+02  2.697398305E-06  0.00000E+00  9.000E+00
#rwgt            1           1   3.6145458723961375E-002           1      132462           0
</event>
<event>
      5   9999  3.19816E-02  8.83141E+01 -1.00000E+00  1.26305E-01
       1    -1     0     0   502     0  0.000000000E+00  0.000000000E+00  4.809789073E+02  4.809789073E+02  0.000000000E+00  0.00000E+00  9.000E+00
      21    -1     0     0   501   502  0.000000000E+00  0.000000000E+00 -5.693206544E+02  5.693206544E+02  0.000000000E+00  0.00000E+00  9.000E+00
      25     1     1     2     0     0 -1.495467295E+02 -4.021935575E+01 -3.525884562E+02  4.048770682E+02  1.250000000E+02  0.00000E+00  9.000E+00
      25     1     1     2     0     0  1.110879557E+02 -3.928093289E+01 -1.462059475E+02  2.255763832E+02  1.250000000E+02  0.00000E+00  9.000E+00
       1     1     1     2   501     0  3.845877387E+01  7.950028864E+01  4.104526565E+02  4.198461104E+02  0.000000000E+00  0.00000E+00  9.000E+00
#rwgt            2          17   1.0489434849831104E-003           1      132686           0
</event>
<event>
      5   9999  3.97932E-02  3.19034E+01 -1.00000E+00  1.51207E-01
      21    -1     0     0   502   511  0.000000000E+00  0.000000000E+00  8.843019814E+02  8.843019814E+02  0.000000000E+00  0.00000E+00  9.000E+00
      21    -1     0     0   501   502  0.000000000E+00  0.000000000E+00 -6.369692935E+01  6.369692935E+01  0.000000000E+00  0.00000E+00  9.000E+00
      25     1     1     2     0     0  1.555954077E+02 -1.790535687E+01  2.259307298E+02  3.019937538E+02  1.250000000E+02  0.00000E+00  9.000E+00
      25     1     1     2     0     0 -1.610131687E+02 -1.353466946E+01  4.043536539E+02  4.530290335E+02  1.250000000E+02  0.00000E+00  9.000E+00
      21     1     1     2   501   511  5.417761072E+00  3.144002633E+01  1.903206684E+02  1.929761234E+02  3.814697266E-06  0.00000E+00  9.000E+00
#rwgt            1           1   3.6135518069329610E-002           1      132705           0
</event>
<event>
      5   9999  3.19816E-02  2.99565E+01 -1.00000E+00  1.53084E-01
      21    -1     0     0   512   501  0.000000000E+00  0.000000000E+00  1.894362029E+02  1.894362029E+02  0.000000000E+00  0.00000E+00  9.000E+00
      21    -1     0     0   501   502  0.000000000E+00  0.000000000E+00 -3.701051516E+02  3.701051516E+02  0.000000000E+00  0.00000E+00  9.000E+00
      25     1     1     2     0     0  7.080263243E+00 -1.749802433E+02 -2.341020618E+02  3.179575302E+02  1.250000000E+02  0.00000E+00  9.000E+00
      25     1     1     2     0     0  9.784961405E+00  1.502222415E+02  1.999703379E+01  1.966909979E+02  1.250000000E+02  0.00000E+00  9.000E+00
      21     1     1     2   512   502 -1.686522465E+01  2.475800184E+01  3.343607939E+01  4.489282641E+01  8.259061849E-07  0.00000E+00  9.000E+00
#rwgt            1           1   2.6184988418780548E-002           1      132880           0
</event>
<event>
      5   9999  3.19816E-02  1.03494E+02 -1.00000E+00  1.23161E-01
      21    -1     0     0   511   501  0.000000000E+00  0.000000000E+00  3.368112394E+02  3.368112394E+02  0.000000000E+00  0.00000E+00  9.000E+00
      21    -1     0     0   501   502  0.000000000E+00  0.000000000E+00 -3.307483312E+02  3.307483312E+02  0.000000000E+00  0.00000E+00  9.000E+00
      25     1     1     2     0     0 -1.885048022E+02  5.357885905E+01  3.118321480E+01  2.345253663E+02  1.250000000E+02  0.00000E+00  9.000E+00
      25     1     1     2     0     0  2.754103021E+02 -1.097792461E+02 -5.242302669E+01  3.259992195E+02  1.250000000E+02  0.00000E+00  9.000E+00
      21     1     1     2   511   502 -8.690549996E+01  5.620038708E+01  2.730272009E+01  1.070349847E+02  1.305872339E-06  0.00000E+00  9.000E+00
#rwgt            1           1   2.7922914035024810E-002           1      132948           0
</event>
<event>
      5   9999  3.19816E-02  8.32867E+01 -1.00000E+00  1.27509E-01
      21    -1     0     0   502   512  0.000000000E+00  0.000000000E+00  6.300570561E+02  6.300570561E+02  0.000000000E+00  0.00000E+00  9.000E+00
      21    -1     0     0   501   502  0.000000000E+00  0.000000000E+00 -1.749699336E+02  1.749699336E+02  0.000000000E+00  0.00000E+00  9.000E+00
      25     1     1     2     0     0  1.423369612E+02 -2.431536074E+02  1.180361284E+02  3.300621380E+02  1.250000000E+02  0.00000E+00  9.000E+00
      25     1     1     2     0     0 -1.288071656E+02  1.609731778E+02  1.941013964E+02  3.095222156E+02  1.250000000E+02  0.00000E+00  9.000E+00
      21     1     1     2   501   512 -1.352979568E+01  8.218042960E+01  1.429495976E+02  1.654426361E+02  2.697398305E-06  0.00000E+00  9.000E+00
#rwgt            1           1   2.8005115295088080E-002           1      132999           0
</event>
<event>
      5   9999  3.19816E-02  1.60162E+02 -1.00000E+00  1.15276E-01
      21    -1     0     0   502   501  0.000000000E+00  0.000000000E+00  2.897436328E+02  2.897436328E+02  0.000000000E+00  0.00000E+00  9.000E+00
      21    -1     0     0   501   511  0.000000000E+00  0.000000000E+00 -1.245487676E+03  1.245487676E+03  0.000000000E+00  0.00000E+00  9.000E+00
      25     1     1     2     0     0 -2.406128810E+01 -3.376764953E+02 -4.961611088E+01  3.642679227E+02  1.250000000E+02  0.00000E+00  9.000E+00
      25     1     1     2     0     0  1.828365154E+02  3.587100574E+02 -2.384416640E+02  4.843361682E+02  1.250000000E+02  0.00000E+00  9.000E+00
      21     1     1     2   502   511 -1.587752273E+02 -2.103356218E+01 -6.676862679E+02  6.866272175E+02  7.629394531E-06  0.00000E+00  9.000E+00
#rwgt            1           1   3.0771336821774613E-002           1      133089           0
</event>
<event>
      5   9999  3.19816E-02  1.78741E+02 -1.00000E+00  1.13454E-01
       2    -1     0     0   502     0  0.000000000E+00  0.000000000E+00  3.251612862E+03  3.251612862E+03  0.000000000E+00  0.00000E+00  9.000E+00
      21    -1     0     0   501   502  0.000000000E+00  0.000000000E+00 -8.392162398E+02  8.392162398E+02  0.000000000E+00  0.00000E+00  9.000E+00
      25     1     1     2     0     0  5.056103297E+02  2.087207607E+02  4.632590340E+02  7.276263423E+02  1.250000000E+02  0.00000E+00  9.000E+00
      25     1     1     2     0     0 -6.294188699E+02 -7.980269254E+01 -5.553204226E+02  8.523745393E+02  1.250000000E+02  0.00000E+00  9.000E+00
       2     1     1     2   501     0  1.238085403E+02 -1.289180681E+02  2.504458011E+03  2.510828221E+03  3.051757812E-05  0.00000E+00  9.000E+00
#rwgt            2          18   5.4218364000570172E-003           1      133378           0
</event>
<event>
      5   9999  3.19816E-02  1.82040E+01 -1.00000E+00  1.69813E-01
      21    -1     0     0   502   501  0.000000000E+00  0.000000000E+00  1.656847095E+02  1.656847095E+02  0.000000000E+00  0.00000E+00  9.000E+00
      21    -1     0     0   511   502  0.000000000E+00  0.000000000E+00 -2.571706868E+02  2.571706868E+02  0.000000000E+00  0.00000E+00  9.000E+00
      25     1     1     2     0     0  7.976121445E+01  1.119928199E+01  9.384127823E+01  1.758364602E+02  1.250000000E+02  0.00000E+00  9.000E+00
      25     1     1     2     0     0 -6.850232799E+01 -2.550387144E+01 -1.691549028E+02  2.226688069E+02  1.250000000E+02  0.00000E+00  9.000E+00
      21     1     1     2   511   501 -1.125888646E+01  1.430458945E+01 -1.617235269E+01  2.435012926E+01  0.000000000E+00  0.00000E+00  9.000E+00
#rwgt            1           1   2.4947245967350883E-002           1      133412           0
</event>
<event>
      5   9999  3.19816E-02  9.16915E+02 -1.00000E+00  9.19047E-02
       2    -1     0     0   502     0  0.000000000E+00  0.000000000E+00  2.444532586E+03  2.444532586E+03  0.000000000E+00  0.00000E+00  9.000E+00
      21    -1     0     0   501   502  0.000000000E+00  0.000000000E+00 -1.881479973E+03  1.881479973E+03  0.000000000E+00  0.00000E+00  9.000E+00
      25     1     1     2     0     0  1.226575253E+02 -8.208034282E+02 -1.339614475E+03  1.580808362E+03  1.250000000E+02  0.00000E+00  9.000E+00
      25     1     1     2     0     0 -9.560081277E+02  4.383638795E+02  1.093082001E+03  1.522027494E+03  1.250000000E+02  0.00000E+00  9.000E+00
       2     1     1     2   501     0  8.333506024E+02  3.824395487E+02  8.095850866E+02  1.223176703E+03  1.078959322E-05  0.00000E+00  9.000E+00
#rwgt            2          18   2.3488059626255030E-003           1      133517           0
</event>
<event>
      5   9999  3.19816E-02  1.38235E+02 -1.00000E+00  1.17817E-01
      21    -1     0     0   502   501  0.000000000E+00  0.000000000E+00  4.245387857E+02  4.245387857E+02  0.000000000E+00  0.00000E+00  9.000E+00
       4    -1     0     0   501     0  0.000000000E+00  0.000000000E+00 -2.929955385E+02  2.929955385E+02  0.000000000E+00  0.00000E+00  9.000E+00
      25     1     1     2     0     0  1.191244516E+02  4.207578635E+01 -1.190706956E+02  2.139248403E+02  1.250000000E+02  0.00000E+00  9.000E+00
      25     1     1     2     0     0 -9.878620295E+01  9.465493963E+01  3.034977802E+02  3.556039568E+02  1.250000000E+02  0.00000E+00  9.000E+00
       4     1     1     2   502     0 -2.033824865E+01 -1.367307260E+02 -5.288383741E+01  1.480055271E+02  3.371747881E-06  0.00000E+00  9.000E+00
#rwgt            1           1   2.5628769594620703E-002           1      133536           0
</event>
<event>
      5   9999  3.35383E-02  1.25634E+02 -1.00000E+00  1.19528E-01
      21    -1     0     0   502   511  0.000000000E+00  0.000000000E+00  1.143209192E+02  1.143209192E+02  0.000000000E+00  0.00000E+00  9.000E+00
      21    -1     0     0   501   502  0.000000000E+00  0.000000000E+00 -2.101813541E+03  2.101813541E+03  0.000000000E+00  0.00000E+00  9.000E+00
      25     1     1     2     0     0  1.408330664E+02  2.743755049E+02 -9.683855386E+02  1.023968467E+03  1.250000000E+02  0.00000E+00  9.000E+00
      25     1     1     2     0     0 -1.546528060E+01 -2.661952435E+02 -1.024928334E+03  1.066396818E+03  1.250000000E+02  0.00000E+00  9.000E+00
      21     1     1     2   501   511 -1.253677858E+02 -8.180261400E+00  5.821251529E+00  1.257691749E+02  5.200313118E-06  0.00000E+00  9.000E+00
#rwgt            1           1  0.10115585244192152                1      133593           0
</event>
<event>
      5   9999  3.19816E-02  7.83205E+01 -1.00000E+00  1.28797E-01
      21    -1     0     0   502   501  0.000000000E+00  0.000000000E+00  6.067988920E+02  6.067988920E+02  0.000000000E+00  0.00000E+00  9.000E+00
       1    -1     0     0   501     0  0.000000000E+00  0.000000000E+00 -6.028908796E+02  6.028908796E+02  0.000000000E+00  0.00000E+00  9.000E+00
      25     1     1     2     0     0 -4.024127522E+01  1.104363559E+02 -7.322004010E+01  1.865521997E+02  1.250000000E+02  0.00000E+00  9.000E+00
      25     1     1     2     0     0  1.080455561E+02 -1.496368261E+02  5.240055409E+02  5.694487060E+02  1.250000000E+02  0.00000E+00  9.000E+00
       1     1     1     2   502     0 -6.780428092E+01  3.920047024E+01 -4.468774884E+02  4.536888659E+02  0.000000000E+00  0.00000E+00  9.000E+00
#rwgt            1           1   2.6910092999467089E-002           1      133663           0
</event>
<event>
      5   9999  3.19816E-02  4.43909E+01 -1.00000E+00  1.42090E-01
      21    -1     0     0   502   501  0.000000000E+00  0.000000000E+00  1.128129626E+03  1.128129626E+03  0.000000000E+00  0.00000E+00  9.000E+00
      -3    -1     0     0     0   502  0.000000000E+00  0.000000000E+00 -1.339309537E+02  1.339309537E+02  0.000000000E+00  0.00000E+00  9.000E+00
      25     1     1     2     0     0  5.765796750E+01 -9.995416160E+01  2.943087668E+02  3.399381206E+02  1.250000000E+02  0.00000E+00  9.000E+00
      25     1     1     2     0     0 -7.263998999E+01  1.417403887E+02  7.932851747E+02  8.187144034E+02  1.250000000E+02  0.00000E+00  9.000E+00
      -3     1     1     2     0   501  1.498202249E+01 -4.178622710E+01 -9.339526898E+01  1.034080560E+02  2.697398305E-06  0.00000E+00  9.000E+00
#rwgt            1           1   3.4779693778108779E-002           1      133736           0
</event>
<event>
      5   9999  3.19816E-02  1.71808E+02 -1.00000E+00  1.14104E-01
      21    -1     0     0   502   511  0.000000000E+00  0.000000000E+00  5.075914839E+02  5.075914839E+02  0.000000000E+00  0.00000E+00  9.000E+00
      21    -1     0     0   501   502  0.000000000E+00  0.000000000E+00 -4.852023931E+02  4.852023931E+02  0.000000000E+00  0.00000E+00  9.000E+00
      25     1     1     2     0     0 -8.323449267E+01  1.330161107E+02  3.332553010E+02  3.889798994E+02  1.250000000E+02  0.00000E+00  9.000E+00
      25     1     1     2     0     0 -5.292296435E+01 -2.377972788E+02 -3.324084271E+02  4.306608275E+02  1.250000000E+02  0.00000E+00  9.000E+00
      21     1     1     2   501   511  1.361574570E+02  1.047811681E+02  2.154221681E+01  1.731531501E+02  2.050954167E-06  0.00000E+00  9.000E+00
#rwgt            2          11   4.6663693171646072E-003           1      133809           0
</event>
<event>
      5   9999  3.19816E-02  2.30017E+02 -1.00000E+00  1.09481E-01
       2    -1     0     0   502     0  0.000000000E+00  0.000000000E+00  2.267515076E+03  2.267515076E+03  0.000000000E+00  0.00000E+00  9.000E+00
      21    -1     0     0   501   502  0.000000000E+00  0.000000000E+00 -5.216662031E+02  5.216662031E+02  0.000000000E+00  0.00000E+00  9.000E+00
      25     1     1     2     0     0  7.518223729E+02  5.961194126E+02  3.774405644E+02  1.038595982E+03  1.250000000E+02  0.00000E+00  9.000E+00
      25     1     1     2     0     0 -6.155543807E+02 -4.108123325E+02  6.388002578E+02  9.855783771E+02  1.250000000E+02  0.00000E+00  9.000E+00
       2     1     1     2   501     0 -1.362679923E+02 -1.853070801E+02  7.296080510E+02  7.650069201E+02  1.078959322E-05  0.00000E+00  9.000E+00
#rwgt            1           1   3.3003509201485051E-002           1      133859           0
</event>
<event>
      5   9999  3.19816E-02  1.82644E+02 -1.00000E+00  1.13102E-01
       3    -1     0     0   502     0  0.000000000E+00  0.000000000E+00  1.189015671E+02  1.189015671E+02  0.000000000E+00  0.00000E+00  9.000E+00
      21    -1     0     0   501   502  0.000000000E+00  0.000000000E+00 -1.452686026E+03  1.452686026E+03  0.000000000E+00  0.00000E+00  9.000E+00
      25     1     1     2     0     0 -3.503806645E+00 -1.518900734E+02 -4.279799176E+01  2.013443298E+02  1.250000000E+02  0.00000E+00  9.000E+00
      25     1     1     2     0     0  1.813964588E+02  1.104995013E+02 -9.711126777E+02  1.001898023E+03  1.250000000E+02  0.00000E+00  9.000E+00
       3     1     1     2   501     0 -1.778926521E+02  4.139057202E+01 -3.198737893E+02  3.683452405E+02  5.394796609E-06  0.00000E+00  9.000E+00
#rwgt            2          19   1.6595575346637215E-005           1      133960           0
</event>
<event>
      5   9999  3.19816E-02  1.51812E+02 -1.00000E+00  1.16187E-01
       1    -1     0     0   502     0  0.000000000E+00  0.000000000E+00  3.254443857E+03  3.254443857E+03  0.000000000E+00  0.00000E+00  9.000E+00
      21    -1     0     0   501   502  0.000000000E+00  0.000000000E+00 -7.945439213E+02  7.945439213E+02  0.000000000E+00  0.00000E+00  9.000E+00
      25     1     1     2     0     0 -4.201564812E+02 -5.108048346E+02  8.486503159E+01  6.784394751E+02  1.250000000E+02  0.00000E+00  9.000E+00
      25     1     1     2     0     0  5.693412026E+02  5.389282538E+02 -1.775316153E+02  8.134712915E+02  1.250000000E+02  0.00000E+00  9.000E+00
       1     1     1     2   501     0 -1.491847214E+02 -2.812341917E+01  2.552566520E+03  2.557077012E+03  5.285799584E-05  0.00000E+00  9.000E+00
#rwgt            1           1   3.1717846328937205E-002           1      133994           0
</event>
<event>
      5   9999  3.19816E-02  4.88184E+01 -1.00000E+00  1.39671E-01
      21    -1     0     0   502   511  0.000000000E+00  0.000000000E+00  2.836286554E+02  2.836286554E+02  0.000000000E+00  0.00000E+00  9.000E+00
      21    -1     0     0   501   502  0.000000000E+00  0.000000000E+00 -4.651144231E+02  4.651144231E+02  0.000000000E+00  0.00000E+00  9.000E+00
      25     1     1     2     0     0  1.042185984E+01  8.928037298E+01  1.836684291E+01  1.550546390E+02  1.250000000E+02  0.00000E+00  9.000E+00
      25     1     1     2     0     0  3.455381523E+01 -1.082652082E+02 -3.753027267E+02  4.115731504E+02  1.250000000E+02  0.00000E+00  9.000E+00
      21     1     1     2   501   511 -4.497567507E+01  1.898483523E+01  1.754501160E+02  1.821152891E+02  1.907348633E-06  0.00000E+00  9.000E+00
#rwgt            1           1   2.8345383498864014E-002           1      134094           0
</event>
<event>
      5   9999  3.19816E-02  1.18813E+02 -1.00000E+00  1.20552E-01
      21    -1     0     0   502   501  0.000000000E+00  0.000000000E+00  3.977263017E+01  3.977263017E+01  0.000000000E+00  0.00000E+00  9.000E+00
      21    -1     0     0   512   502  0.000000000E+00  0.000000000E+00 -2.574079212E+03  2.574079212E+03  0.000000000E+00  0.00000E+00  9.000E+00
      25     1     1     2     0     0 -2.323053732E+02 -1.856527187E+00 -1.403788610E+03  1.428361542E+03  1.250000000E+02  0.00000E+00  9.000E+00
      25     1     1     2     0     0  1.136667763E+02 -4.574821800E+00 -2.825752722E+02  3.292641030E+02  1.250000000E+02  0.00000E+00  9.000E+00
      21     1     1     2   512   501  1.186385969E+02  6.431348988E+00 -8.479426996E+02  8.562261972E+02  1.078959322E-05  0.00000E+00  9.000E+00
#rwgt            2          11   4.8599763790856060E-003           1      134171           0
</event>
<event>
      5   9999  3.19816E-02  1.97645E+01 -1.00000E+00  1.66795E-01
      21    -1     0     0   502   501  0.000000000E+00  0.000000000E+00  8.515418164E+02  8.515418164E+02  0.000000000E+00  0.00000E+00  9.000E+00
      21    -1     0     0   501   511  0.000000000E+00  0.000000000E+00 -2.245961904E+02  2.245961904E+02  0.000000000E+00  0.00000E+00  9.000E+00
      25     1     1     2     0     0 -1.429133136E+02 -9.562408775E+01  7.756090130E+02  8.042154701E+02  1.250000000E+02  0.00000E+00  9.000E+00
      25     1     1     2     0     0  1.398091190E+02  7.610486807E+01 -1.502880971E+02  2.520913581E+02  1.250000000E+02  0.00000E+00  9.000E+00
      21     1     1     2   502   511  3.104194578E+00  1.951921968E+01  1.624710045E+00  1.983117857E+01  1.604904177E-07  0.00000E+00  9.000E+00
#rwgt            1           1   2.7004878662114339E-002           1      134191           0
</event>
<event>
      5   9999  3.19816E-02  5.06209E+01 -1.00000E+00  1.38770E-01
      21    -1     0     0   502   501  0.000000000E+00  0.000000000E+00  7.724850405E+02  7.724850405E+02  0.000000000E+00  0.00000E+00  9.000E+00
      21    -1     0     0   501   512  0.000000000E+00  0.000000000E+00 -1.302096918E+02  1.302096918E+02  0.000000000E+00  0.00000E+00  9.000E+00
      25     1     1     2     0     0 -3.696324644E+01  1.968663280E+02  8.690965094E+01  2.515967411E+02  1.250000000E+02  0.00000E+00  9.000E+00
      25     1     1     2     0     0 -4.028919820E+00 -2.265667429E+02  5.389810096E+02  5.978915035E+02  1.250000000E+02  0.00000E+00  9.000E+00
      21     1     1     2   502   512  4.099216626E+01  2.970041482E+01  1.638468806E+01  5.320648774E+01  9.536743164E-07  0.00000E+00  9.000E+00
#rwgt            1           1   2.7719485802575067E-002           1      134339           0
</event>
<event>
      5   9999  3.19816E-02  2.46644E+02 -1.00000E+00  1.08431E-01
      21    -1     0     0   502   501  0.000000000E+00  0.000000000E+00  4.742504368E+02  4.742504368E+02  0.000000000E+00  0.00000E+00  9.000E+00
       2    -1     0     0   501     0  0.000000000E+00  0.000000000E+00 -3.945757198E+03  3.945757198E+03  0.000000000E+00  0.00000E+00  9.000E+00
      25     1     1     2     0     0  4.558336371E+02 -8.543895888E+01  1.716982147E+02  5.100876369E+02  1.250000000E+02  0.00000E+00  9.000E+00
      25     1     1     2     0     0 -5.203031307E+02 -1.526297775E+02 -4.735257798E+02  7.306591961E+02  1.250000000E+02  0.00000E+00  9.000E+00
       2     1     1     2   502     0  6.446949358E+01  2.380687364E+02 -3.169679196E+03  3.179260802E+03  4.315837288E-05  0.00000E+00  9.000E+00
#rwgt            1           1   3.0863192990523224E-002           1      134411           0
</event>
<event>
      5   9999  3.19816E-02  1.50086E+01 -1.00000E+00  1.77360E-01
      21    -1     0     0   502   501  0.000000000E+00  0.000000000E+00  6.093115938E+01  6.093115938E+01  0.000000000E+00  0.00000E+00  9.000E+00
      21    -1     0     0   511   502  0.000000000E+00  0.000000000E+00 -1.592789800E+03  1.592789800E+03  0.000000000E+00  0.00000E+00  9.000E+00
      25     1     1     2     0     0 -1.671799279E+02 -8.815591619E+01 -2.137366458E+02  3.114946992E+02  1.250000000E+02  0.00000E+00  9.000E+00
      25     1     1     2     0     0  1.814227980E+02  8.342334478E+01 -1.274623578E+03  1.296211384E+03  1.250000000E+02  0.00000E+00  9.000E+00
      21     1     1     2   511   501 -1.424287010E+01  4.732571413E+00 -4.349841697E+01  4.601487651E+01  4.768371582E-07  0.00000E+00  9.000E+00
#rwgt            1           1   2.8193480696863834E-002           1      134490           0
</event>
<event>
      5   9999  3.19816E-02  2.87598E+01 -1.00000E+00  1.54324E-01
      21    -1     0     0   502   512  0.000000000E+00  0.000000000E+00  5.224286121E+01  5.224286121E+01  0.000000000E+00  0.00000E+00  9.000E+00
      21    -1     0     0   501   502  0.000000000E+00  0.000000000E+00 -3.390737124E+03  3.390737124E+03  0.000000000E+00  0.00000E+00  9.000E+00
      25     1     1     2     0     0 -2.266053986E+02 -9.341291969E+01 -2.179194217E+03  2.196494575E+03  1.250000000E+02  0.00000E+00  9.000E+00
      25     1     1     2     0     0  2.552099378E+02  9.042892993E+01 -1.176003709E+03  1.213226783E+03  1.250000000E+02  0.00000E+00  9.000E+00
      21     1     1     2   501   512 -2.860453913E+01  2.983989764E+00  1.670366415E+01  3.325862669E+01  2.870939870E-06  0.00000E+00  9.000E+00
#rwgt            1           1   2.0073031435104971E-002           1      134616           0
</event>
<event>
      5   9999  3.19816E-02  6.64292E+01 -1.00000E+00  1.32383E-01
      21    -1     0     0   511   501  0.000000000E+00  0.000000000E+00  2.710780278E+02  2.710780278E+02  0.000000000E+00  0.00000E+00  9.000E+00
      21    -1     0     0   501   502  0.000000000E+00  0.000000000E+00 -5.048055973E+02  5.048055973E+02  0.000000000E+00  0.00000E+00  9.000E+00
      25     1     1     2     0     0  1.158967697E+02 -2.751586311E+02 -3.156639440E+01  3.252164983E+02  1.250000000E+02  0.00000E+00  9.000E+00
      25     1     1     2     0     0 -1.449850035E+02  2.154366152E+02 -2.392678849E+02  3.745767040E+02  1.250000000E+02  0.00000E+00  9.000E+00
      21     1     1     2   511   502  2.908823385E+01  5.972201593E+01  3.710670985E+01  7.609042286E+01  1.907348633E-06  0.00000E+00  9.000E+00
#rwgt            1           1   2.9828299378927781E-002           1      134757           0
</event>
<event>
      5   9999  3.19816E-02  4.90626E+01 -1.00000E+00  1.39546E-01
      21    -1     0     0   502   512  0.000000000E+00  0.000000000E+00  1.409881608E+03  1.409881608E+03  0.000000000E+00  0.00000E+00  9.000E+00
      21    -1     0     0   501   502  0.000000000E+00  0.000000000E+00 -3.712275435E+02  3.712275435E+02  0.000000000E+00  0.00000E+00  9.000E+00
      25     1     1     2     0     0 -1.713905942E+02  1.724915738E+02  6.095214677E+02  6.680340548E+02  1.250000000E+02  0.00000E+00  9.000E+00
      25     1     1     2     0     0  1.438191841E+02 -1.319088555E+02 -3.017900046E+02  3.805077013E+02  1.250000000E+02  0.00000E+00  9.000E+00
      21     1     1     2   501   512  2.757141010E+01 -4.058271824E+01  7.309226012E+02  7.325673953E+02  0.000000000E+00  0.00000E+00  9.000E+00
#rwgt            1           1   3.1517142079540234E-002           1      134880           0
</event>
<event>
      5   9999  3.19816E-02  1.06185E+02 -1.00000E+00  1.22667E-01
      21    -1     0     0   502   501  0.000000000E+00  0.000000000E+00  1.202752809E+03  1.202752809E+03  0.000000000E+00  0.00000E+00  9.000E+00
      21    -1     0     0   501   511  0.000000000E+00  0.000000000E+00 -1.441510889E+02  1.441510889E+02  0.000000000E+00  0.00000E+00  9.000E+00
      25     1     1     2     0     0 -8.841608226E+01  2.198320504E+02  1.004939324E+03  1.040034412E+03  1.250000000E+02  0.00000E+00  9.000E+00
      25     1     1     2     0     0  4.237105490E+01 -1.241493284E+02  7.904847221E+01  1.976917373E+02  1.250000000E+02  0.00000E+00  9.000E+00
      21     1     1     2   502   511  4.604502737E+01 -9.568272203E+01 -2.538607608E+01  1.091777482E+02  2.500555153E-06  0.00000E+00  9.000E+00
#rwgt            1           1   2.8487037091446291E-002           1      134977           0
</event>
<event>
      5   9999  3.19816E-02  7.29534E+01 -1.00000E+00  1.30318E-01
       1    -1     0     0   502     0  0.000000000E+00  0.000000000E+00  1.469451117E+03  1.469451117E+03  0.000000000E+00  0.00000E+00  9.000E+00
      21    -1     0     0   501   502  0.000000000E+00  0.000000000E+00 -4.158698947E+02  4.158698947E+02  0.000000000E+00  0.00000E+00  9.000E+00
      25     1     1     2     0     0  3.765073467E+02 -2.157451089E+02  3.256549006E+02  5.567583393E+02  1.250000000E+02  0.00000E+00  9.000E+00
      25     1     1     2     0     0 -3.035696341E+02  2.142309086E+02 -1.702798540E+02  4.273986823E+02  1.250000000E+02  0.00000E+00  9.000E+00
       1     1     1     2   501     0 -7.293771261E+01  1.514200273E+00  8.982061762E+02  9.011639905E+02  1.078959322E-05  0.00000E+00  9.000E+00
#rwgt            1           1   2.9661269316438536E-002           1      135029           0
</event>
<event>
      5   9999  3.19816E-02  8.12237E+01 -1.00000E+00  1.28031E-01
      21    -1     0     0   502   511  0.000000000E+00  0.000000000E+00  4.151015677E+02  4.151015677E+02  0.000000000E+00  0.00000E+00  9.000E+00
      21    -1     0     0   501   502  0.000000000E+00  0.000000000E+00 -6.008926933E+02  6.008926933E+02  0.000000000E+00  0.00000E+00  9.000E+00
      25     1     1     2     0     0 -3.631498017E+02  7.807811663E+01  8.851223216E+01  4.017877375E+02  1.250000000E+02  0.00000E+00  9.000E+00
      25     1     1     2     0     0  4.418955447E+02 -5.816852138E+01 -2.624341238E+02  5.321202108E+02  1.250000000E+02  0.00000E+00  9.000E+00
      21     1     1     2   501   511 -7.874574303E+01 -1.990959525E+01 -1.186923397E+01  8.208631277E+01  1.261592536E-06  0.00000E+00  9.000E+00
#rwgt            1           1   2.9741235868792574E-002           1      135178           0
</event>
<event>
      5   9999  3.19816E-02  1.47903E+02 -1.00000E+00  1.16636E-01
      21    -1     0     0   502   501  0.000000000E+00  0.000000000E+00  2.745789525E+02  2.745789525E+02  0.000000000E+00  0.00000E+00  9.000E+00
      21    -1     0     0   512   502  0.000000000E+00  0.000000000E+00 -1.309502063E+03  1.309502063E+03  0.000000000E+00  0.00000E+00  9.000E+00
      25     1     1     2     0     0 -1.777134663E+02  2.337768660E+02 -2.379101388E+02  3.980702618E+02  1.250000000E+02  0.00000E+00  9.000E+00
      25     1     1     2     0     0  2.110988175E+02 -3.778626824E+02 -8.458394453E+01  4.583910570E+02  1.250000000E+02  0.00000E+00  9.000E+00
      21     1     1     2   512   501 -3.338535118E+01  1.440858164E+02 -7.124290271E+02  7.276196965E+02  7.629394531E-06  0.00000E+00  9.000E+00
#rwgt            1           1   2.8208752710172029E-002           1      135295           0
</event>
<event>
      5   9999  3.19816E-02  1.54743E+02 -1.00000E+00  1.15860E-01
      21    -1     0     0   502   501  0.000000000E+00  0.000000000E+00  4.462026612E+02  4.462026612E+02  0.000000000E+00  0.00000E+00  9.000E+00
      21    -1     0     0   501   511  0.000000000E+00  0.000000000E+00 -7.501135221E+02  7.501135221E+02  0.000000000E+00  0.00000E+00  9.000E+00
      25     1     1     2     0     0 -5.311225256E+01  3.750041951E+02  5.372811513E+01  4.024434968E+02  1.250000000E+02  0.00000E+00  9.000E+00
      25     1     1     2     0     0  8.127537955E+00 -5.230641332E+02 -2.023838202E+02  5.746706491E+02  1.250000000E+02  0.00000E+00  9.000E+00
      21     1     1     2   502   511  4.498471460E+01  1.480599380E+02 -1.552551558E+02  2.192020374E+02  3.814697266E-06  0.00000E+00  9.000E+00
#rwgt            1           1   3.0673529935948303E-002           1      135347           0
</event>
<event>
      5   9999  3.19816E-02  3.16166E+02 -1.00000E+00  1.04857E-01
      21    -1     0     0   502   501  0.000000000E+00  0.000000000E+00  3.445495913E+02  3.445495913E+02  0.000000000E+00  0.00000E+00  9.000E+00
       1    -1     0     0   501     0  0.000000000E+00  0.000000000E+00 -1.430902771E+03  1.430902771E+03  0.000000000E+00  0.00000E+00  9.000E+00
      25     1     1     2     0     0 -1.232267439E+01  1.139990258E+02 -2.312846051E+02  2.868190976E+02  1.250000000E+02  0.00000E+00  9.000E+00
      25     1     1     2     0     0 -2.705073671E+01  1.997059107E+02  2.468184207E+02  3.422842764E+02  1.250000000E+02  0.00000E+00  9.000E+00
       1     1     1     2   502     0  3.937341110E+01 -3.137049364E+02 -1.101886995E+03  1.146348988E+03  0.000000000E+00  0.00000E+00  9.000E+00
#rwgt            2          12   1.1069707987118682E-003           1      135430           0
</event>
<event>
      5   9999  3.19816E-02  1.52878E+02 -1.00000E+00  1.16067E-01
      21    -1     0     0   511   501  0.000000000E+00  0.000000000E+00  1.450774648E+03  1.450774648E+03  0.000000000E+00  0.00000E+00  9.000E+00
      21    -1     0     0   501   502  0.000000000E+00  0.000000000E+00 -5.100750807E+02  5.100750807E+02  0.000000000E+00  0.00000E+00  9.000E+00
      25     1     1     2     0     0  1.036200349E+02 -2.763073492E+02 -1.234780454E+02  3.434453240E+02  1.250000000E+02  0.00000E+00  9.000E+00
      25     1     1     2     0     0 -1.994110158E+02  3.954534767E+02 -7.652102861E+01  4.665068845E+02  1.250000000E+02  0.00000E+00  9.000E+00
      21     1     1     2   511   502  9.579098090E+01 -1.191461275E+02  1.140698641E+03  1.150897520E+03  0.000000000E+00  0.00000E+00  9.000E+00
#rwgt            1           1   3.0660939305276951E-002           1      135464           0
</event>
<event>
      5   9999  3.19816E-02  5.52284E+01 -1.00000E+00  1.36655E-01
      21    -1     0     0   502   501  0.000000000E+00  0.000000000E+00  2.527786526E+02  2.527786526E+02  0.000000000E+00  0.00000E+00  9.000E+00
      21    -1     0     0   501   512  0.000000000E+00  0.000000000E+00 -2.886425959E+02  2.886425959E+02  0.000000000E+00  0.00000E+00  9.000E+00
      25     1     1     2     0     0  8.797349908E+01 -1.413587847E+02 -8.336922819E+01  2.242700844E+02  1.250000000E+02  0.00000E+00  9.000E+00
      25     1     1     2     0     0 -6.281620575E+01  9.219288034E+01  1.339934327E+02  2.145335472E+02  1.250000000E+02  0.00000E+00  9.000E+00
      21     1     1     2   502   512 -2.515729333E+01  4.916590441E+01 -8.648814780E+01  1.026176168E+02  1.348699152E-06  0.00000E+00  9.000E+00
#rwgt            1           1   3.0644801331482202E-002           1      135536           0
</event>
<event>
      5   9999  3.19816E-02  2.94756E+02 -1.00000E+00  1.05841E-01
      21    -1     0     0   502   511  0.000000000E+00  0.000000000E+00  9.050933001E+02  9.050933001E+02  0.000000000E+00  0.00000E+00  9.000E+00
      21    -1     0     0   501   502  0.000000000E+00  0.000000000E+00 -7.793059022E+02  7.793059022E+02  0.000000000E+00  0.00000E+00  9.000E+00
      25     1     1     2     0     0  4.756862016E+02 -5.955459293E+02 -2.134329820E+02  8.013307395E+02  1.250000000E+02  0.00000E+00  9.000E+00
      25     1     1     2     0     0 -3.194907940E+02  3.455781564E+02  8.602062767E+01  4.944928493E+02  1.250000000E+02  0.00000E+00  9.000E+00
      21     1     1     2   501   511 -1.561954077E+02  2.499677729E+02  2.531997523E+02  3.885756135E+02  2.697398305E-06  0.00000E+00  9.000E+00
#rwgt            1           1   2.9158210968014263E-002           1      135592           0
</event>
<event>
      5   9999  3.19816E-02  3.67384E+01 -1.00000E+00  1.47169E-01
      21    -1     0     0   502   501  0.000000000E+00  0.000000000E+00  6.666641748E+02  6.666641748E+02  0.000000000E+00  0.00000E+00  9.000E+00
      21    -1     0     0   512   502  0.000000000E+00  0.000000000E+00 -3.032886041E+02  3.032886041E+02  0.000000000E+00  0.00000E+00  9.000E+00
      25     1     1     2     0     0  3.367642771E+02  2.527319732E+02  1.605623561E+02  4.676418488E+02  1.250000000E+02  0.00000E+00  9.000E+00
      25     1     1     2     0     0 -3.001865476E+02 -2.561637998E+02  2.110667087E+02  4.646568747E+02  1.250000000E+02  0.00000E+00  9.000E+00
      21     1     1     2   512   501 -3.657772945E+01  3.431826580E+00 -8.253494066E+00  3.765405542E+01  2.384185791E-07  0.00000E+00  9.000E+00
#rwgt            1           1   2.8888144141193787E-002           1      135678           0
</event>
<event>
      5   9999  3.19816E-02  2.28800E+02 -1.00000E+00  1.09562E-01
      21    -1     0     0   502   501  0.000000000E+00  0.000000000E+00  5.406062228E+02  5.406062228E+02  0.000000000E+00  0.00000E+00  9.000E+00
      21    -1     0     0   511   502  0.000000000E+00  0.000000000E+00 -1.722544101E+03  1.722544101E+03  0.000000000E+00  0.00000E+00  9.000E+00
      25     1     1     2     0     0 -4.015452091E+02 -3.406339913E+02  1.143827830E+02  5.531532266E+02  1.250000000E+02  0.00000E+00  9.000E+00
      25     1     1     2     0     0  1.877976701E+02  4.222511236E+02 -9.625811231E+01  4.883181344E+02  1.250000000E+02  0.00000E+00  9.000E+00
      21     1     1     2   511   501  2.137475390E+02 -8.161713224E+01 -1.200062549E+03  1.221678963E+03  3.051757812E-05  0.00000E+00  9.000E+00
#rwgt            2          11   1.9433249310821488E-003           1      135802           0
</event>
<event>
      5   9999  3.19816E-02  1.88389E+02 -1.00000E+00  1.12602E-01
      21    -1     0     0   502   501  0.000000000E+00  0.000000000E+00  1.352797362E+03  1.352797362E+03  0.000000000E+00  0.00000E+00  9.000E+00
      21    -1     0     0   501   512  0.000000000E+00  0.000000000E+00 -1.476756604E+02  1.476756604E+02  0.000000000E+00  0.00000E+00  9.000E+00
      25     1     1     2     0     0  1.033990134E+02  6.167741364E+01  5.274555257E+01  1.813906079E+02  1.250000000E+02  0.00000E+00  9.000E+00
      25     1     1     2     0     0 -4.708070922E+01 -2.414516984E+02  1.084158017E+03  1.118722093E+03  1.250000000E+02  0.00000E+00  9.000E+00
      21     1     1     2   502   512 -5.631830415E+01  1.797742848E+02  6.821813219E+01  2.003603214E+02  2.861022949E-06  0.00000E+00  9.000E+00
#rwgt            1           1   2.7112690208443677E-002           1      135822           0
</event>
<event>
      5   9999  3.19816E-02  1.43376E+02 -1.00000E+00  1.17176E-01
      21    -1     0     0   502   501  0.000000000E+00  0.000000000E+00  1.230544869E+03  1.230544869E+03  0.000000000E+00  0.00000E+00  9.000E+00
       2    -1     0     0   501     0  0.000000000E+00  0.000000000E+00 -8.892372835E+02  8.892372835E+02  0.000000000E+00  0.00000E+00  9.000E+00
      25     1     1     2     0     0  3.936357549E+02 -2.528103540E+02 -1.922765991E+02  5.210158089E+02  1.250000000E+02  0.00000E+00  9.000E+00
      25     1     1     2     0     0 -3.672624995E+02  1.118811093E+02  1.017168807E+03  1.094374939E+03  1.250000000E+02  0.00000E+00  9.000E+00
       2     1     1     2   502     0 -2.637325540E+01  1.409292446E+02 -4.835846228E+02  5.043914036E+02  7.629394531E-06  0.00000E+00  9.000E+00
#rwgt            2          13   1.0509676791845722E-003           1      136004           0
</event>
<event>
      5   9999  3.19816E-02  5.01808E+01 -1.00000E+00  1.38986E-01
       1    -1     0     0   502     0  0.000000000E+00  0.000000000E+00  2.553684919E+03  2.553684919E+03  0.000000000E+00  0.00000E+00  9.000E+00
      21    -1     0     0   501   502  0.000000000E+00  0.000000000E+00 -2.825442338E+02  2.825442338E+02  0.000000000E+00  0.00000E+00  9.000E+00
      25     1     1     2     0     0  2.457170968E+02  1.265553257E+02  9.218101365E+02  9.704391119E+02  1.250000000E+02  0.00000E+00  9.000E+00
      25     1     1     2     0     0 -2.496236055E+02 -1.765838210E+02 -1.519975882E+02  3.636235101E+02  1.250000000E+02  0.00000E+00  9.000E+00
       1     1     1     2   501     0  3.906508746E+00  5.002849533E+01  1.501328136E+03  1.502166530E+03  0.000000000E+00  0.00000E+00  9.000E+00
#rwgt            1           1   2.9856049265170700E-002           1      136038           0
</event>
<event>
      5   9999  3.19816E-02  1.39378E+01 -1.00000E+00  1.80442E-01
      21    -1     0     0   502   511  0.000000000E+00  0.000000000E+00  7.015875622E+01  7.015875622E+01  0.000000000E+00  0.00000E+00  9.000E+00
      21    -1     0     0   501   502  0.000000000E+00  0.000000000E+00 -3.166079366E+03  3.166079366E+03  0.000000000E+00  0.00000E+00  9.000E+00
      25     1     1     2     0     0 -7.433572619E+01 -3.846725237E+02 -1.698482985E+03  1.747560643E+03  1.250000000E+02  0.00000E+00  9.000E+00
      25     1     1     2     0     0  7.839022406E+01  3.980076065E+02 -1.408380335E+03  1.470957257E+03  1.250000000E+02  0.00000E+00  9.000E+00
      21     1     1     2   501   511 -4.054497863E+00 -1.333508286E+01  1.094271027E+01  1.772022279E+01  9.156639275E-07  0.00000E+00  9.000E+00
#rwgt            1           1   3.1833712599908748E-002           1      136165           0
</event>
<event>
      5   9999  3.19816E-02  2.54872E+01 -1.00000E+00  1.58126E-01
      21    -1     0     0   502   512  0.000000000E+00  0.000000000E+00  5.359143737E+02  5.359143737E+02  0.000000000E+00  0.00000E+00  9.000E+00
      21    -1     0     0   501   502  0.000000000E+00  0.000000000E+00 -9.124696674E+02  9.124696674E+02  0.000000000E+00  0.00000E+00  9.000E+00
      25     1     1     2     0     0  5.403162632E+02  4.012214200E+02 -1.017351678E+02  6.920226416E+02  1.250000000E+02  0.00000E+00  9.000E+00
      25     1     1     2     0     0 -5.148948588E+02 -4.030522650E+02 -2.905951606E+02  7.263872185E+02  1.250000000E+02  0.00000E+00  9.000E+00
      21     1     1     2   501   512 -2.542140443E+01  1.830844921E+00  1.577503478E+01  2.997418086E+01  2.920019320E-07  0.00000E+00  9.000E+00
#rwgt            1           1   3.2641349999092302E-002           1      136450           0
</event>
<event>
      5   9999  3.19816E-02  1.01768E+01 -1.00000E+00  1.94881E-01
      21    -1     0     0   502   501  0.000000000E+00  0.000000000E+00  2.853239048E+02  2.853239048E+02  0.000000000E+00  0.00000E+00  9.000E+00
      21    -1     0     0   501   511  0.000000000E+00  0.000000000E+00 -4.641755728E+02  4.641755728E+02  0.000000000E+00  0.00000E+00  9.000E+00
      25     1     1     2     0     0  1.735451926E+02 -2.248536901E+01 -3.106952151E+01  2.172874614E+02  1.250000000E+02  0.00000E+00  9.000E+00
      25     1     1     2     0     0 -1.791030395E+02  1.396023113E+01  1.297942803E+02  2.544490951E+02  1.250000000E+02  0.00000E+00  9.000E+00
      21     1     1     2   502   511  5.557846856E+00  8.525137872E+00 -2.775764269E+02  2.777629212E+02  0.000000000E+00  0.00000E+00  9.000E+00
#rwgt            1           1   3.2088665937016370E-002           1      136642           0
</event>
<event>
      5   9999  3.19816E-02  1.06821E+02 -1.00000E+00  1.22553E-01
      21    -1     0     0   502   512  0.000000000E+00  0.000000000E+00  1.863900251E+03  1.863900251E+03  0.000000000E+00  0.00000E+00  9.000E+00
      21    -1     0     0   501   502  0.000000000E+00  0.000000000E+00 -6.516239900E+02  6.516239900E+02  0.000000000E+00  0.00000E+00  9.000E+00
      25     1     1     2     0     0 -6.286473451E+02  6.462329111E+02  1.070118514E+03  1.404846288E+03  1.250000000E+02  0.00000E+00  9.000E+00
      25     1     1     2     0     0  6.228958221E+02 -7.528988402E+02  8.312531164E+01  9.886307127E+02  1.250000000E+02  0.00000E+00  9.000E+00
      21     1     1     2   501   512  5.751523042E+00  1.066659291E+02  5.903243608E+01  1.220472407E+02  1.348699152E-06  0.00000E+00  9.000E+00
#rwgt            1           1   2.0633856590205221E-002           1      136844           0
</event>
<event>
      5   9999  3.19816E-02  8.20859E+01 -1.00000E+00  1.27811E-01
       1    -1     0     0   502     0  0.000000000E+00  0.000000000E+00  9.434075873E+02  9.434075873E+02  0.000000000E+00  0.00000E+00  9.000E+00
      21    -1     0     0   501   502  0.000000000E+00  0.000000000E+00 -4.264342628E+01  4.264342628E+01  0.000000000E+00  0.00000E+00  9.000E+00
      25     1     1     2     0     0 -5.547629842E+00  2.473233047E+01  2.023877373E+02  2.392242893E+02  1.250000000E+02  0.00000E+00  9.000E+00
      25     1     1     2     0     0  3.923341451E+01 -9.958792736E+01  5.791361117E+02  6.020636611E+02  1.250000000E+02  0.00000E+00  9.000E+00
       1     1     1     2   501     0 -3.368578467E+01  7.485559689E+01  1.192403121E+02  1.447630633E+02  1.348699152E-06  0.00000E+00  9.000E+00
#rwgt            1           1   4.0503078041782409E-002           1      136956           0
</event>
<event>
      5   9999  3.19816E-02  1.71367E+01 -1.00000E+00  1.72103E-01
      21    -1     0     0   502   501  0.000000000E+00  0.000000000E+00  1.100527617E+02  1.100527617E+02  0.000000000E+00  0.00000E+00  9.000E+00
      21    -1     0     0   511   502  0.000000000E+00  0.000000000E+00 -2.687916391E+03  2.687916391E+03  0.000000000E+00  0.00000E+00  9.000E+00
      25     1     1     2     0     0 -2.767225035E+02 -3.263706947E+02 -1.215370678E+03  1.294543958E+03  1.250000000E+02  0.00000E+00  9.000E+00
      25     1     1     2     0     0  2.811293127E+02  3.429310573E+02 -6.838580956E+02  8.245740084E+02  1.250000000E+02  0.00000E+00  9.000E+00
      21     1     1     2   511   501 -4.406809116E+00 -1.656036267E+01 -6.786348560E+02  6.788511864E+02  1.078959322E-05  0.00000E+00  9.000E+00
#rwgt            1           1   3.3190669955841620E-002           1      136995           0
</event>
<event>
      5   9999  3.19816E-02  3.34665E+01 -1.00000E+00  1.49813E-01
      21    -1     0     0   502   501  0.000000000E+00  0.000000000E+00  1.888284459E+02  1.888284459E+02  0.000000000E+00  0.00000E+00  9.000E+00
      21    -1     0     0   512   502  0.000000000E+00  0.000000000E+00 -2.149247500E+02  2.149247500E+02  0.000000000E+00  0.00000E+00  9.000E+00
      25     1     1     2     0     0 -6.029424155E+01  8.688791149E+01 -4.149987734E-01  1.637378299E+02  1.250000000E+02  0.00000E+00  9.000E+00
      25     1     1     2     0     0  9.372691565E+01 -8.839195530E+01  2.296363116E+01  1.809701656E+02  1.250000000E+02  0.00000E+00  9.000E+00
      21     1     1     2   512   501 -3.343267410E+01  1.504043811E+00 -4.864493648E+01  5.904520040E+01  0.000000000E+00  0.00000E+00  9.000E+00
#rwgt            1           1   2.2289123677697763E-002           1      137178           0
</event>
<event>
      5   9999  3.19816E-02  1.27288E+02 -1.00000E+00  1.19291E-01
      21    -1     0     0   511   501  0.000000000E+00  0.000000000E+00  4.979800601E+02  4.979800601E+02  0.000000000E+00  0.00000E+00  9.000E+00
      21    -1     0     0   501   502  0.000000000E+00  0.000000000E+00 -4.851682059E+02  4.851682059E+02  0.000000000E+00  0.00000E+00  9.000E+00
      25     1     1     2     0     0  1.015591720E+02 -2.116145745E+02  2.434186066E+02  3.605171447E+02  1.250000000E+02  0.00000E+00  9.000E+00
      25     1     1     2     0     0 -1.926063781E+02  1.226615993E+02 -3.579354456E+02  4.425899547E+02  1.250000000E+02  0.00000E+00  9.000E+00
      21     1     1     2   511   502  9.104720604E+01  8.895297524E+01  1.273286932E+02  1.800411665E+02  0.000000000E+00  0.00000E+00  9.000E+00
#rwgt            1           1   2.8752365067489009E-002           1      137233           0
</event>
<event>
      5   9999  3.19816E-02  1.87890E+02 -1.00000E+00  1.12645E-01
       1    -1     0     0   502     0  0.000000000E+00  0.000000000E+00  6.483220589E+02  6.483220589E+02  0.000000000E+00  0.00000E+00  9.000E+00
      21    -1     0     0   501   502  0.000000000E+00  0.000000000E+00 -5.095760333E+02  5.095760333E+02  0.000000000E+00  0.00000E+00  9.000E+00
      25     1     1     2     0     0  3.681759709E+01 -7.792368274E+01 -4.375295413E+02  4.631249673E+02  1.250000000E+02  0.00000E+00  9.000E+00
      25     1     1     2     0     0  1.487104362E+02  4.822573519E+01  2.923050404E+02  3.542707326E+02  1.250000000E+02  0.00000E+00  9.000E+00
       1     1     1     2   501     0 -1.855280333E+02  2.969794755E+01  2.839705265E+02  3.405023923E+02  3.814697266E-06  0.00000E+00  9.000E+00
#rwgt            1           1   2.8026436324747505E-002           1      137295           0
</event>
<event>
      5   9999  3.19816E-02  7.69555E+00 -1.00000E+00  2.09898E-01
      21    -1     0     0   511   501  0.000000000E+00  0.000000000E+00  8.378163796E+01  8.378163796E+01  0.000000000E+00  0.00000E+00  9.000E+00
      21    -1     0     0   501   502  0.000000000E+00  0.000000000E+00 -2.376402309E+03  2.376402309E+03  0.000000000E+00  0.00000E+00  9.000E+00
      25     1     1     2     0     0 -1.193480827E+02  7.497081453E+01 -4.190754341E+01  1.929917876E+02  1.250000000E+02  0.00000E+00  9.000E+00
      25     1     1     2     0     0  1.141382834E+02 -8.063469063E+01 -2.251647215E+03  2.259440126E+03  1.250000000E+02  0.00000E+00  9.000E+00
      21     1     1     2   511   502  5.209799345E+00  5.663876096E+00  9.340876365E-01  7.752033369E+00  1.548574097E-07  0.00000E+00  9.000E+00
#rwgt            2          11   1.0505028881694483E-002           1      137481           0
</event>
<event>
      5   9999  3.19816E-02  3.39691E+01 -1.00000E+00  1.49384E-01
      21    -1     0     0   502   501  0.000000000E+00  0.000000000E+00  1.143727815E+03  1.143727815E+03  0.000000000E+00  0.00000E+00  9.000E+00
      21    -1     0     0   501   512  0.000000000E+00  0.000000000E+00 -1.932681411E+03  1.932681411E+03  0.000000000E+00  0.00000E+00  9.000E+00
      25     1     1     2     0     0  3.340355382E+01 -1.422061723E+03 -1.535822302E+01  1.428018283E+03  1.250000000E+02  0.00000E+00  9.000E+00
      25     1     1     2     0     0 -9.681869044E-01  1.411969727E+03 -7.341245383E+02  1.596315534E+03  1.250000000E+02  0.00000E+00  9.000E+00
      21     1     1     2   502   512 -3.243536691E+01  1.009199612E+01 -3.947083480E+01  5.207540890E+01  4.768371582E-07  0.00000E+00  9.000E+00
#rwgt            1           1   4.5568815744681308E-002           1      137501           0
</event>
<event>
      5   9999  3.19816E-02  2.53897E+01 -1.00000E+00  1.58249E-01
      21    -1     0     0   502   501  0.000000000E+00  0.000000000E+00  1.509144946E+02  1.509144946E+02  0.000000000E+00  0.00000E+00  9.000E+00
       2    -1     0     0   501     0  0.000000000E+00  0.000000000E+00 -1.914404728E+03  1.914404728E+03  0.000000000E+00  0.00000E+00  9.000E+00
      25     1     1     2     0     0  5.048005592E+01 -3.776738917E+01  2.351423759E+01  1.419596108E+02  1.250000000E+02  0.00000E+00  9.000E+00
      25     1     1     2     0     0 -4.545692945E+01  6.265521503E+01 -1.128613930E+01  1.474597753E+02  1.250000000E+02  0.00000E+00  9.000E+00
       2     1     1     2   502     0 -5.023126471E+00 -2.488782586E+01 -1.775718331E+03  1.775899836E+03  0.000000000E+00  0.00000E+00  9.000E+00
#rwgt            1           1   2.9081499903630782E-002           1      137692           0
</event>
<event>
      5   9999  3.19816E-02  3.27854E+02 -1.00000E+00  1.04354E-01
      21    -1     0     0   511   501  0.000000000E+00  0.000000000E+00  2.521787331E+02  2.521787331E+02  0.000000000E+00  0.00000E+00  9.000E+00
      21    -1     0     0   501   502  0.000000000E+00  0.000000000E+00 -1.365033552E+03  1.365033552E+03  0.000000000E+00  0.00000E+00  9.000E+00
      25     1     1     2     0     0 -1.108128659E+02  6.108447159E+00 -3.414620261E+02  3.801816929E+02  1.250000000E+02  0.00000E+00  9.000E+00
      25     1     1     2     0     0  2.551656994E+02  2.882558620E+02 -8.113947404E+02  9.067454995E+02  1.250000000E+02  0.00000E+00  9.000E+00
      21     1     1     2   511   502 -1.443528335E+02 -2.943643091E+02  4.000194707E+01  3.302850932E+02  7.673967809E-06  0.00000E+00  9.000E+00
#rwgt            2          11   6.3680906754486517E-003           1      137938           0
</event>
<event>
      5   9999  3.19816E-02  3.79161E+02 -1.00000E+00  1.02390E-01
      21    -1     0     0   502   512  0.000000000E+00  0.000000000E+00  6.063026082E+02  6.063026082E+02  0.000000000E+00  0.00000E+00  9.000E+00
      21    -1     0     0   501   502  0.000000000E+00  0.000000000E+00 -1.201581721E+03  1.201581721E+03  0.000000000E+00  0.00000E+00  9.000E+00
      25     1     1     2     0     0 -2.082370655E+02 -4.980388368E+02 -6.952059179E+02  8.890116010E+02  1.250000000E+02  0.00000E+00  9.000E+00
      25     1     1     2     0     0  4.508761898E+02  2.066812179E+02  1.578748581E+02  5.353091959E+02  1.250000000E+02  0.00000E+00  9.000E+00
      21     1     1     2   501   512 -2.426391243E+02  2.913576188E+02 -5.794805322E+01  3.835635326E+02  4.046097457E-06  0.00000E+00  9.000E+00
#rwgt            1           1   3.2206614656476291E-002           1      137958           0
</event>
<event>
      5   9999  3.19816E-02  6.67074E+01 -1.00000E+00  1.32289E-01
      21    -1     0     0   502   511  0.000000000E+00  0.000000000E+00  3.238923002E+02  3.238923002E+02  0.000000000E+00  0.00000E+00  9.000E+00
      21    -1     0     0   501   502  0.000000000E+00  0.000000000E+00 -1.376437937E+03  1.376437937E+03  0.000000000E+00  0.00000E+00  9.000E+00
      25     1     1     2     0     0 -2.702054786E+02 -5.387206119E+02 -4.849063626E+02  7.835751903E+02  1.250000000E+02  0.00000E+00  9.000E+00
      25     1     1     2     0     0  3.365561413E+02  5.456102831E+02 -5.176779553E+02  8.334123125E+02  1.250000000E+02  0.00000E+00  9.000E+00
      21     1     1     2   501   511 -6.635066270E+01 -6.889671120E+00 -4.996131917E+01  8.334273467E+01  1.784161275E-06  0.00000E+00  9.000E+00
#rwgt            1           1   2.9902392152618085E-002           1      137998           0
</event>
<event>
      5   9999  3.19816E-02  6.87037E+01 -1.00000E+00  1.31633E-01
      21    -1     0     0   502   501  0.000000000E+00  0.000000000E+00  4.401481348E+02  4.401481348E+02  0.000000000E+00  0.00000E+00  9.000E+00
       2    -1     0     0   501     0  0.000000000E+00  0.000000000E+00 -5.210519506E+02  5.210519506E+02  0.000000000E+00  0.00000E+00  9.000E+00
      25     1     1     2     0     0  6.565909844E+01 -7.853645467E+01 -2.212462767E+01  1.630754153E+02  1.250000000E+02  0.00000E+00  9.000E+00
      25     1     1     2     0     0 -1.338219222E+02  6.993249780E+01  3.405462774E+02  3.929320911E+02  1.250000000E+02  0.00000E+00  9.000E+00
       2     1     1     2   502     0  6.816282377E+01  8.603956862E+00 -3.993254656E+02  4.051925790E+02  7.629394531E-06  0.00000E+00  9.000E+00
#rwgt            1           1   2.4035993989798665E-002           1      138169           0
</event>
<event>
      5   9999  3.19816E-02  3.52595E+02 -1.00000E+00  1.03362E-01
       1    -1     0     0   502     0  0.000000000E+00  0.000000000E+00  1.331897085E+03  1.331897085E+03  0.000000000E+00  0.00000E+00  9.000E+00
      21    -1     0     0   501   502  0.000000000E+00  0.000000000E+00 -6.730556317E+02  6.730556317E+02  0.000000000E+00  0.00000E+00  9.000E+00
      25     1     1     2     0     0  3.537066540E+02  5.678912313E+02  4.542324908E+02  8.182670734E+02  1.250000000E+02  0.00000E+00  9.000E+00
      25     1     1     2     0     0 -6.049980209E+01 -7.637295850E+02 -5.430953235E+00  7.762716022E+02  1.250000000E+02  0.00000E+00  9.000E+00
       1     1     1     2   501     0 -2.932068519E+02  1.958383537E+02  2.100399156E+02  4.104140409E+02  9.725607898E-06  0.00000E+00  9.000E+00
#rwgt            2          17   4.0578997380658229E-004           1      138360           0
</event>
<event>
      5   9999  3.19816E-02  5.98793E+02 -1.00000E+00  9.66772E-02
      21    -1     0     0   502   501  0.000000000E+00  0.000000000E+00  1.032368234E+03  1.032368234E+03  0.000000000E+00  0.00000E+00  9.000E+00
      21    -1     0     0   501   511  0.000000000E+00  0.000000000E+00 -1.487623005E+03  1.487623005E+03  0.000000000E+00  0.00000E+00  9.000E+00
      25     1     1     2     0     0  6.028903837E+02  2.771710997E+02 -9.149122156E+02  1.137097180E+03  1.250000000E+02  0.00000E+00  9.000E+00
      25     1     1     2     0     0 -3.463653995E+02  2.638906127E+02  6.154122647E+02  7.641757004E+02  1.250000000E+02  0.00000E+00  9.000E+00
      21     1     1     2   502   511 -2.565249842E+02 -5.410617124E+02 -1.557548202E+02  6.187183593E+02  5.394796609E-06  0.00000E+00  9.000E+00
#rwgt            2          11   2.4609805225279538E-003           1      138409           0
</event>
<event>
      5   9999  3.19816E-02  5.56116E+02 -1.00000E+00  9.75571E-02
       1    -1     0     0   502     0  0.000000000E+00  0.000000000E+00  2.187922890E+03  2.187922890E+03  0.000000000E+00  0.00000E+00  9.000E+00
      21    -1     0     0   501   502  0.000000000E+00  0.000000000E+00 -2.422969840E+02  2.422969840E+02  0.000000000E+00  0.00000E+00  9.000E+00
      25     1     1     2     0     0 -1.617905268E+02 -1.738247337E+02  6.540045970E+01  2.762126586E+02  1.250000000E+02  0.00000E+00  9.000E+00
      25     1     1     2     0     0 -3.887532009E+02  9.529399406E+01  4.290899659E+02  5.999609949E+02  1.250000000E+02  0.00000E+00  9.000E+00
       1     1     1     2   501     0  5.505437277E+02  7.853073967E+01  1.451135480E+03  1.554046220E+03  2.157918644E-05  0.00000E+00  9.000E+00
#rwgt            1           1   2.4030882148330004E-002           1      138444           0
</event>
<event>
      5   9999  3.19816E-02  6.34111E+01 -1.00000E+00  1.33433E-01
      21    -1     0     0   502   501  0.000000000E+00  0.000000000E+00  4.193391274E+02  4.193391274E+02  0.000000000E+00  0.00000E+00  9.000E+00
       2    -1     0     0   501     0  0.000000000E+00  0.000000000E+00 -2.064263733E+03  2.064263733E+03  0.000000000E+00  0.00000E+00  9.000E+00
      25     1     1     2     0     0 -5.254475294E+02 -2.364862911E+02 -5.440967032E+02  8.023011245E+02  1.250000000E+02  0.00000E+00  9.000E+00
      25     1     1     2     0     0  5.147594753E+02  2.989901990E+02 -3.043804257E+01  6.090352461E+02  1.250000000E+02  0.00000E+00  9.000E+00
       2     1     1     2   502     0  1.068805403E+01 -6.250390792E+01 -1.070389860E+03  1.072266490E+03  0.000000000E+00  0.00000E+00  9.000E+00
#rwgt            1           1   3.5219451719234705E-002           1      138481           0
</event>
<event>
      5   9999  3.19816E-02  2.54291E+01 -1.00000E+00  1.58199E-01
      21    -1     0     0   511   501  0.000000000E+00  0.000000000E+00  4.210679926E+02  4.210679926E+02  0.000000000E+00  0.00000E+00  9.000E+00
      21    -1     0     0   501   502  0.000000000E+00  0.000000000E+00 -1.120241694E+03  1.120241694E+03  0.000000000E+00  0.00000E+00  9.000E+00
      25     1     1     2     0     0 -2.277606521E+02  1.942832162E+02  2.972367389E+02  4.399949565E+02  1.250000000E+02  0.00000E+00  9.000E+00
      25     1     1     2     0     0  2.472631599E+02 -1.779647247E+02 -1.016754311E+03  1.068749196E+03  1.250000000E+02  0.00000E+00  9.000E+00
      21     1     1     2   511   502 -1.950250779E+01 -1.631849151E+01  2.034387085E+01  3.256553479E+01  4.129530925E-07  0.00000E+00  9.000E+00
#rwgt            1           1   2.7235978688991851E-002           1      138617           0
</event>
<event>
      5   9999  3.19816E-02  3.24751E+01 -1.00000E+00  1.50686E-01
      21    -1     0     0   512   501  0.000000000E+00  0.000000000E+00  7.721543837E+02  7.721543837E+02  0.000000000E+00  0.00000E+00  9.000E+00
      21    -1     0     0   501   502  0.000000000E+00  0.000000000E+00 -1.526597544E+02  1.526597544E+02  0.000000000E+00  0.00000E+00  9.000E+00
      25     1     1     2     0     0  7.402427447E+01 -2.944556762E+02  4.031570348E+02  5.199464715E+02  1.250000000E+02  0.00000E+00  9.000E+00
      25     1     1     2     0     0 -8.206274259E+01  2.629911215E+02  1.663229586E+02  3.452346308E+02  1.250000000E+02  0.00000E+00  9.000E+00
      21     1     1     2   512   502  8.038468126E+00  3.146455469E+01  5.001463589E+01  5.963303593E+01  6.743495762E-07  0.00000E+00  9.000E+00
#rwgt            1           1   3.2455217192932283E-002           1      138789           0
</event>
<event>
      5   9999  3.19816E-02  5.58583E+01 -1.00000E+00  1.36385E-01
      21    -1     0     0   502   501  0.000000000E+00  0.000000000E+00  5.245852727E+02  5.245852727E+02  0.000000000E+00  0.00000E+00  9.000E+00
      21    -1     0     0   511   502  0.000000000E+00  0.000000000E+00 -6.196130128E+02  6.196130128E+02  0.000000000E+00  0.00000E+00  9.000E+00
      25     1     1     2     0     0  1.433325449E+02  3.190376099E+02  1.072779494E+02  3.866041560E+02  1.250000000E+02  0.00000E+00  9.000E+00
      25     1     1     2     0     0 -1.948742608E+02 -2.975062002E+02  1.464276345E+02  4.044155893E+02  1.250000000E+02  0.00000E+00  9.000E+00
      21     1     1     2   511   501  5.154171588E+01 -2.153140971E+01 -3.487333239E+02  3.531785403E+02  0.000000000E+00  0.00000E+00  9.000E+00
#rwgt            1           1   2.9141110626255212E-002           1      138945           0
</event>
<event>
      5   9999  3.19816E-02  2.39372E+01 -1.00000E+00  1.60177E-01
      21    -1     0     0   502   501  0.000000000E+00  0.000000000E+00  7.136073266E+02  7.136073266E+02  0.000000000E+00  0.00000E+00  9.000E+00
      21    -1     0     0   501   512  0.000000000E+00  0.000000000E+00 -1.115638364E+03  1.115638364E+03  0.000000000E+00  0.00000E+00  9.000E+00
      25     1     1     2     0     0 -7.641191842E+02 -4.100744341E+02 -1.289999799E+02  8.856100519E+02  1.250000000E+02  0.00000E+00  9.000E+00
      25     1     1     2     0     0  7.510972829E+02  4.301597840E+02 -2.480371959E+02  9.090280626E+02  1.250000000E+02  0.00000E+00  9.000E+00
      21     1     1     2   502   512  1.302190136E+01 -2.008534983E+01 -2.499386113E+01  3.460757557E+01  3.371747881E-07  0.00000E+00  9.000E+00
#rwgt            1           1   1.6809680019449096E-002           1      139104           0
</event>
<event>
      5   9999  3.19816E-02  2.02222E+01 -1.00000E+00  1.65974E-01
      21    -1     0     0   502   501  0.000000000E+00  0.000000000E+00  4.072641699E+02  4.072641699E+02  0.000000000E+00  0.00000E+00  9.000E+00
      21    -1     0     0   501   511  0.000000000E+00  0.000000000E+00 -1.408902840E+02  1.408902840E+02  0.000000000E+00  0.00000E+00  9.000E+00
      25     1     1     2     0     0 -5.819821261E+01 -1.751193609E+02  1.871177722E+02  2.910186991E+02  1.250000000E+02  0.00000E+00  9.000E+00
      25     1     1     2     0     0  3.840314360E+01  1.709852672E+02  9.105438562E+01  2.337234780E+02  1.250000000E+02  0.00000E+00  9.000E+00
      21     1     1     2   502   511  1.979506902E+01  4.134093738E+00 -1.179827187E+01  2.341227685E+01  1.685873940E-07  0.00000E+00  9.000E+00
#rwgt            1           1   2.0226273099312440E-002           1      139391           0
</event>
<event>
      5   9999  3.19816E-02  1.46203E+01 -1.00000E+00  1.78439E-01
      21    -1     0     0   512   501  0.000000000E+00  0.000000000E+00  1.860420311E+02  1.860420311E+02  0.000000000E+00  0.00000E+00  9.000E+00
      21    -1     0     0   501   502  0.000000000E+00  0.000000000E+00 -1.933430710E+02  1.933430710E+02  0.000000000E+00  0.00000E+00  9.000E+00
      25     1     1     2     0     0 -4.919704604E+01  4.501770265E+01 -1.158809341E+02  1.830309640E+02  1.250000000E+02  0.00000E+00  9.000E+00
      25     1     1     2     0     0  6.175747735E+01 -5.250025722E+01  9.895516493E+01  1.788501822E+02  1.250000000E+02  0.00000E+00  9.000E+00
      21     1     1     2   512   502 -1.256043132E+01  7.482554561E+00  9.624729263E+00  1.750395587E+01  0.000000000E+00  0.00000E+00  9.000E+00
#rwgt            1           1   2.8413826952985926E-002           1      139511           0
</event>
<event>
      5   9999  3.19816E-02  4.33018E+01 -1.00000E+00  1.42736E-01
      21    -1     0     0   502   501  0.000000000E+00  0.000000000E+00  6.171621447E+02  6.171621447E+02  0.000000000E+00  0.00000E+00  9.000E+00
      -1    -1     0     0     0   502  0.000000000E+00  0.000000000E+00 -6.737368193E+02  6.737368193E+02  0.000000000E+00  0.00000E+00  9.000E+00
      25     1     1     2     0     0 -9.746938938E+00 -1.501283246E+02  5.152830587E+02  5.511580057E+02  1.250000000E+02  0.00000E+00  9.000E+00
      25     1     1     2     0     0 -3.026939365E+01  1.666733685E+02 -5.038236889E+01  2.164708550E+02  1.250000000E+02  0.00000E+00  9.000E+00
      -1     1     1     2     0   501  4.001633258E+01 -1.654504392E+01 -5.214753644E+02  5.232701033E+02  7.629394531E-06  0.00000E+00  9.000E+00
#rwgt            1           1   2.8435943133503505E-002           1      139729           0
</event>
<event>
      5   9999  3.19816E-02  1.95591E+01 -1.00000E+00  1.67172E-01
      21    -1     0     0   502   501  0.000000000E+00  0.000000000E+00  4.380564286E+02  4.380564286E+02  0.000000000E+00  0.00000E+00  9.000E+00
      21    -1     0     0   511   502  0.000000000E+00  0.000000000E+00 -2.023028589E+02  2.023028589E+02  0.000000000E+00  0.00000E+00  9.000E+00
      25     1     1     2     0     0  1.398892342E+02  8.701074993E+01 -7.915868474E+01  2.214293698E+02  1.250000000E+02  0.00000E+00  9.000E+00
      25     1     1     2     0     0 -1.306905802E+02 -6.974970912E+01  3.374082751E+02  3.891200249E+02  1.250000000E+02  0.00000E+00  9.000E+00
      21     1     1     2   511   501 -9.198653997E+00 -1.726104081E+01 -2.249602065E+01  2.980989283E+01  4.129530925E-07  0.00000E+00  9.000E+00
#rwgt            1           1   2.6480553507443171E-002           1      139854           0
</event>
<event>
      5   9999  3.19816E-02  4.72867E+01 -1.00000E+00  1.40472E-01
      21    -1     0     0   502   501  0.000000000E+00  0.000000000E+00  1.079854215E+02  1.079854215E+02  0.000000000E+00  0.00000E+00  9.000E+00
      21    -1     0     0   501   512  0.000000000E+00  0.000000000E+00 -8.769060867E+02  8.769060867E+02  0.000000000E+00  0.00000E+00  9.000E+00
      25     1     1     2     0     0 -2.229262831E+02 -5.092737049E+01 -2.582259872E+02  3.668724373E+02  1.250000000E+02  0.00000E+00  9.000E+00
      25     1     1     2     0     0  1.763103746E+02  5.886378148E+01 -1.896197869E+02  2.934807601E+02  1.250000000E+02  0.00000E+00  9.000E+00
      21     1     1     2   502   512  4.661590856E+01 -7.936410995E+00 -3.210748910E+02  3.245383109E+02  5.394796609E-06  0.00000E+00  9.000E+00
#rwgt            1           1   2.8180626134146548E-002           1      140006           0
</event>
<event>
      5   9999  3.19816E-02  7.24962E+01 -1.00000E+00  1.30455E-01
      21    -1     0     0   502   501  0.000000000E+00  0.000000000E+00  4.857903879E+01  4.857903879E+01  0.000000000E+00  0.00000E+00  9.000E+00
       2    -1     0     0   501     0  0.000000000E+00  0.000000000E+00 -1.164033486E+03  1.164033486E+03  0.000000000E+00  0.00000E+00  9.000E+00
      25     1     1     2     0     0  7.030314761E+01  8.494253445E+00 -7.940732062E+02  8.069646471E+02  1.250000000E+02  0.00000E+00  9.000E+00
      25     1     1     2     0     0 -1.013832832E+02  5.700167903E+01 -2.578336363E+02  3.092425351E+02  1.250000000E+02  0.00000E+00  9.000E+00
       2     1     1     2   502     0  3.108013558E+01 -6.549593247E+01 -6.354760459E+01  9.640534242E+01  1.348699152E-06  0.00000E+00  9.000E+00
#rwgt            1           1   2.9315841265512427E-002           1      140173           0
</event>
<event>
      5   9999  3.19816E-02  5.85251E+01 -1.00000E+00  1.35284E-01
      21    -1     0     0   502   501  0.000000000E+00  0.000000000E+00  4.145921644E+02  4.145921644E+02  0.000000000E+00  0.00000E+00  9.000E+00
      21    -1     0     0   511   502  0.000000000E+00  0.000000000E+00 -3.696164802E+02  3.696164802E+02  0.000000000E+00  0.00000E+00  9.000E+00
      25     1     1     2     0     0 -1.329387555E+02  1.203780863E+02 -9.902817172E+01  2.399899481E+02  1.250000000E+02  0.00000E+00  9.000E+00
      25     1     1     2     0     0  1.622521029E+02 -6.972327287E+01  3.044114377E+02  3.734680750E+02  1.250000000E+02  0.00000E+00  9.000E+00
      21     1     1     2   511   501 -2.931334739E+01 -5.065481343E+01 -1.604075817E+02  1.707506215E+02  2.697398305E-06  0.00000E+00  9.000E+00
#rwgt            1           1   3.3206821816426008E-002           1      140237           0
</event>
<event>
      5   9999  3.19816E-02  1.39584E+02 -1.00000E+00  1.17646E-01
      21    -1     0     0   512   501  0.000000000E+00  0.000000000E+00  4.374571481E+02  4.374571481E+02  0.000000000E+00  0.00000E+00  9.000E+00
      21    -1     0     0   501   502  0.000000000E+00  0.000000000E+00 -1.845466928E+03  1.845466928E+03  0.000000000E+00  0.00000E+00  9.000E+00
      25     1     1     2     0     0 -1.909663743E+02 -2.205204189E+02 -1.322104245E+03  1.359662475E+03  1.250000000E+02  0.00000E+00  9.000E+00
      25     1     1     2     0     0  8.306216813E+01  1.319739988E+02 -4.720764809E+02  5.126379463E+02  1.250000000E+02  0.00000E+00  9.000E+00
      21     1     1     2   512   502  1.079042062E+02  8.854642007E+01  3.861709461E+02  4.106236547E+02  0.000000000E+00  0.00000E+00  9.000E+00
#rwgt            1           1   2.7117615469223880E-002           1      140353           0
</event>
<event>
      5   9999  3.19816E-02  6.65062E+01 -1.00000E+00  1.32357E-01
      21    -1     0     0   511   501  0.000000000E+00  0.000000000E+00  4.326221349E+02  4.326221349E+02  0.000000000E+00  0.00000E+00  9.000E+00
      21    -1     0     0   501   502  0.000000000E+00  0.000000000E+00 -1.176506884E+03  1.176506884E+03  0.000000000E+00  0.00000E+00  9.000E+00
      25     1     1     2     0     0 -4.602116742E+02 -2.787367072E+02 -5.983182083E+02  8.143086732E+02  1.250000000E+02  0.00000E+00  9.000E+00
      25     1     1     2     0     0  4.112433550E+02  3.237386227E+02 -3.074974889E+02  6.197640668E+02  1.250000000E+02  0.00000E+00  9.000E+00
      21     1     1     2   511   502  4.896831918E+01 -4.500191548E+01  1.619309483E+02  1.750562786E+02  1.907348633E-06  0.00000E+00  9.000E+00
#rwgt            1           1   2.9728717134892706E-002           1      140446           0
</event>
<event>
      5   9999  3.19816E-02  3.96513E+01 -1.00000E+00  1.45076E-01
      21    -1     0     0   502   501  0.000000000E+00  0.000000000E+00  4.345916893E+02  4.345916893E+02  0.000000000E+00  0.00000E+00  9.000E+00
      21    -1     0     0   512   502  0.000000000E+00  0.000000000E+00 -9.334386343E+02  9.334386343E+02  0.000000000E+00  0.00000E+00  9.000E+00
      25     1     1     2     0     0 -5.308028828E+02 -1.434111141E+02 -4.909299016E+02  7.476333435E+02  1.250000000E+02  0.00000E+00  9.000E+00
      25     1     1     2     0     0  5.438570188E+02  1.059703020E+02  2.544225188E+01  5.685793436E+02  1.250000000E+02  0.00000E+00  9.000E+00
      21     1     1     2   512   501 -1.305413597E+01  3.744081206E+01 -3.335929535E+01  5.181763657E+01  4.768371582E-07  0.00000E+00  9.000E+00
#rwgt            1           1   3.1376101013451695E-002           1      140536           0
</event>
<event>
      5   9999  3.19816E-02  3.03899E+01 -1.00000E+00  1.52651E-01
      21    -1     0     0   502   511  0.000000000E+00  0.000000000E+00  2.050985940E+02  2.050985940E+02  0.000000000E+00  0.00000E+00  9.000E+00
      21    -1     0     0   501   502  0.000000000E+00  0.000000000E+00 -5.252813998E+02  5.252813998E+02  0.000000000E+00  0.00000E+00  9.000E+00
      25     1     1     2     0     0  4.514146047E+01  9.770034331E+01 -2.996028726E+02  3.420087569E+02  1.250000000E+02  0.00000E+00  9.000E+00
      25     1     1     2     0     0 -4.127790489E+01 -6.755699955E+01 -1.760433395E+02  2.299653691E+02  1.250000000E+02  0.00000E+00  9.000E+00
      21     1     1     2   501   511 -3.863555581E+00 -3.014334376E+01  1.554634063E+02  1.584058677E+02  3.303624740E-06  0.00000E+00  9.000E+00
#rwgt            1           1   7.4473929860891824E-002           1      140694           0
</event>
<event>
      5   9999  3.19816E-02  3.97326E+01 -1.00000E+00  1.45021E-01
      21    -1     0     0   502   501  0.000000000E+00  0.000000000E+00  5.487023832E+02  5.487023832E+02  0.000000000E+00  0.00000E+00  9.000E+00
       2    -1     0     0   501     0  0.000000000E+00  0.000000000E+00 -1.037776923E+03  1.037776923E+03  0.000000000E+00  0.00000E+00  9.000E+00
      25     1     1     2     0     0 -9.068079246E+01  3.982050106E+02  1.461243670E+02  4.514062109E+02  1.250000000E+02  0.00000E+00  9.000E+00
      25     1     1     2     0     0  6.266190272E+01 -3.700337450E+02  9.253920545E+01  4.062511428E+02  1.250000000E+02  0.00000E+00  9.000E+00
       2     1     1     2   502     0  2.801888974E+01 -2.817126558E+01 -7.277381127E+02  7.288219529E+02  1.078959322E-05  0.00000E+00  9.000E+00
#rwgt            1           1   2.8888656534273017E-002           1      140805           0
</event>
<event>
      5   9999  3.19816E-02  1.25463E+02 -1.00000E+00  1.19553E-01
      21    -1     0     0   502   501  0.000000000E+00  0.000000000E+00  8.286248486E+02  8.286248486E+02  0.000000000E+00  0.00000E+00  9.000E+00
      21    -1     0     0   501   511  0.000000000E+00  0.000000000E+00 -7.058139997E+02  7.058139997E+02  0.000000000E+00  0.00000E+00  9.000E+00
      25     1     1     2     0     0  4.413221181E+02 -4.478653618E+02 -1.727927652E+02  6.639510027E+02  1.250000000E+02  0.00000E+00  9.000E+00
      25     1     1     2     0     0 -5.409342407E+02  3.715869373E+02  3.230258788E+02  7.420629509E+02  1.250000000E+02  0.00000E+00  9.000E+00
      21     1     1     2   502   511  9.961212254E+01  7.627842448E+01 -2.742226466E+01  1.284248948E+02  4.768371582E-07  0.00000E+00  9.000E+00
#rwgt            1           1   3.4273080490113912E-002           1      140969           0
</event>
<event>
      5   9999  3.19816E-02  3.07042E+01 -1.00000E+00  1.52343E-01
      21    -1     0     0   502   501  0.000000000E+00  0.000000000E+00  3.324091648E+02  3.324091648E+02  0.000000000E+00  0.00000E+00  9.000E+00
      21    -1     0     0   501   512  0.000000000E+00  0.000000000E+00 -7.152419808E+02  7.152419808E+02  0.000000000E+00  0.00000E+00  9.000E+00
      25     1     1     2     0     0  2.380498651E+02  1.025280301E+02 -4.403377899E+02  5.260248136E+02  1.250000000E+02  0.00000E+00  9.000E+00
      25     1     1     2     0     0 -2.664211637E+02 -9.078845419E+01  2.056559550E+02  3.703270875E+02  1.250000000E+02  0.00000E+00  9.000E+00
      21     1     1     2   502   512  2.837129858E+01 -1.173957592E+01 -1.481509811E+02  1.512992446E+02  2.697398305E-06  0.00000E+00  9.000E+00
#rwgt            1           1   2.8846499305450767E-002           1      141083           0
</event>
<event>
      5   9999  3.19816E-02  4.75218E+01 -1.00000E+00  1.40347E-01
      21    -1     0     0   502   501  0.000000000E+00  0.000000000E+00  5.138552644E+02  5.138552644E+02  0.000000000E+00  0.00000E+00  9.000E+00
      21    -1     0     0   501   511  0.000000000E+00  0.000000000E+00 -3.058727298E+02  3.058727298E+02  0.000000000E+00  0.00000E+00  9.000E+00
      25     1     1     2     0     0 -1.403145057E+02  9.163169334E+01  1.083259182E+02  2.354655649E+02  1.250000000E+02  0.00000E+00  9.000E+00
      25     1     1     2     0     0  1.066806111E+02 -1.252037316E+02  3.078318750E+02  3.707319658E+02  1.250000000E+02  0.00000E+00  9.000E+00
      21     1     1     2   502   511  3.363389459E+01  3.357203831E+01 -2.081752585E+02  2.135304636E+02  0.000000000E+00  0.00000E+00  9.000E+00
#rwgt            1           1   2.7774267335874559E-002           1      141244           0
</event>
<event>
      5   9999  3.19816E-02  8.62508E+01 -1.00000E+00  1.26788E-01
      21    -1     0     0   512   501  0.000000000E+00  0.000000000E+00  6.364719966E+02  6.364719966E+02  0.000000000E+00  0.00000E+00  9.000E+00
      21    -1     0     0   501   502  0.000000000E+00  0.000000000E+00 -3.355512688E+02  3.355512688E+02  0.000000000E+00  0.00000E+00  9.000E+00
      25     1     1     2     0     0  6.068528900E+01 -1.419901088E+02 -2.146742676E+02  2.924960452E+02  1.250000000E+02  0.00000E+00  9.000E+00
      25     1     1     2     0     0  6.110111622E+00  1.965573164E+02  9.744086952E+01  2.525704558E+02  1.250000000E+02  0.00000E+00  9.000E+00
      21     1     1     2   512   502 -6.679540062E+01 -5.456720761E+01  4.181541258E+02  4.269567644E+02  5.394796609E-06  0.00000E+00  9.000E+00
#rwgt            1           1   2.9188617195994797E-002           1      141386           0
</event>
<event>
      5   9999  3.19816E-02  2.85252E+01 -1.00000E+00  1.54576E-01
      21    -1     0     0   502   501  0.000000000E+00  0.000000000E+00  7.513720137E+02  7.513720137E+02  0.000000000E+00  0.00000E+00  9.000E+00
      21    -1     0     0   501   511  0.000000000E+00  0.000000000E+00 -1.388037590E+02  1.388037590E+02  0.000000000E+00  0.00000E+00  9.000E+00
      25     1     1     2     0     0  2.408373071E+02  9.067606150E+01  3.903187375E+02  4.839405681E+02  1.250000000E+02  0.00000E+00  9.000E+00
      25     1     1     2     0     0 -2.546250213E+02 -1.156477630E+02  2.209261562E+02  3.776793257E+02  1.250000000E+02  0.00000E+00  9.000E+00
      21     1     1     2   502   511  1.378771423E+01  2.497170146E+01  1.323361002E+00  2.855587893E+01  2.735489570E-07  0.00000E+00  9.000E+00
#rwgt            1           1   2.8111719118530817E-002           1      141421           0
</event>
<event>
      5   9999  3.19816E-02  2.76083E+01 -1.00000E+00  1.55589E-01
      -1    -1     0     0     0   501  0.000000000E+00  0.000000000E+00  6.188743200E+01  6.188743200E+01  0.000000000E+00  0.00000E+00  9.000E+00
      21    -1     0     0   501   502  0.000000000E+00  0.000000000E+00 -1.008743470E+03  1.008743470E+03  0.000000000E+00  0.00000E+00  9.000E+00
      25     1     1     2     0     0 -4.094576346E+01  1.491245041E+02 -4.986609514E+02  5.368448731E+02  1.250000000E+02  0.00000E+00  9.000E+00
      25     1     1     2     0     0  2.435609738E+01 -1.270564016E+02 -4.669541655E+02  5.004075752E+02  1.250000000E+02  0.00000E+00  9.000E+00
      -1     1     1     2     0   502  1.658966608E+01 -2.206810249E+01  1.875907854E+01  3.337845406E+01  3.371747881E-07  0.00000E+00  9.000E+00
#rwgt            1           1   3.0978732051091393E-002           1      141550           0
</event>
<event>
      5   9999  3.19816E-02  1.13010E+02 -1.00000E+00  1.21485E-01
       2    -1     0     0   502     0  0.000000000E+00  0.000000000E+00  3.760798607E+03  3.760798607E+03  0.000000000E+00  0.00000E+00  9.000E+00
      21    -1     0     0   501   502  0.000000000E+00  0.000000000E+00 -3.034961644E+02  3.034961644E+02  0.000000000E+00  0.00000E+00  9.000E+00
      25     1     1     2     0     0 -4.892498813E+02 -4.927778535E+02  5.679656039E+02  9.057623233E+02  1.250000000E+02  0.00000E+00  9.000E+00
      25     1     1     2     0     0  4.208250721E+02  4.028378553E+02  5.328235617E+02  7.993109701E+02  1.250000000E+02  0.00000E+00  9.000E+00
       2     1     1     2   501     0  6.842480915E+01  8.993999820E+01  2.356513277E+03  2.359221478E+03  5.285799584E-05  0.00000E+00  9.000E+00
#rwgt            1           1   3.0185104625346845E-002           1      141691           0
</event>
<event>
      5   9999  3.19816E-02  8.94273E+00 -1.00000E+00  2.01540E-01
       2    -1     0     0   502     0  0.000000000E+00  0.000000000E+00  1.987732687E+02  1.987732687E+02  0.000000000E+00  0.00000E+00  9.000E+00
      21    -1     0     0   501   502  0.000000000E+00  0.000000000E+00 -3.780299656E+02  3.780299656E+02  0.000000000E+00  0.00000E+00  9.000E+00
      25     1     1     2     0     0  1.499021505E+02 -6.183704766E+01 -9.772423408E+01  2.268689073E+02  1.250000000E+02  0.00000E+00  9.000E+00
      25     1     1     2     0     0 -1.494171519E+02  5.290748108E+01 -1.682307266E+02  2.627760724E+02  1.250000000E+02  0.00000E+00  9.000E+00
       2     1     1     2   501     0 -4.849986130E-01  8.929566574E+00  8.669826387E+01  8.715825458E+01  0.000000000E+00  0.00000E+00  9.000E+00
#rwgt            1           1   2.6453051019465872E-002           1      141762           0
</event>
<event>
      5   9999  3.19816E-02  2.99866E+01 -1.00000E+00  1.53053E-01
      21    -1     0     0   502   501  0.000000000E+00  0.000000000E+00  1.720294267E+02  1.720294267E+02  0.000000000E+00  0.00000E+00  9.000E+00
      21    -1     0     0   501   511  0.000000000E+00  0.000000000E+00 -7.864125649E+02  7.864125649E+02  0.000000000E+00  0.00000E+00  9.000E+00
      25     1     1     2     0     0  4.947343989E+01  2.878679168E+02 -1.787648466E+02  3.645509966E+02  1.250000000E+02  0.00000E+00  9.000E+00
      25     1     1     2     0     0 -1.997093918E+01 -2.932342013E+02 -2.492793930E+02  4.051547247E+02  1.250000000E+02  0.00000E+00  9.000E+00
      21     1     1     2   502   511 -2.950250072E+01  5.366284532E+00 -1.863388987E+02  1.887362703E+02  2.697398305E-06  0.00000E+00  9.000E+00
#rwgt            1           1   2.8607053603470774E-002           1      142032           0
</event>
<event>
      5   9999  3.19816E-02  5.42092E+01 -1.00000E+00  1.37102E-01
       2    -1     0     0   502     0  0.000000000E+00  0.000000000E+00  8.254033902E+02  8.254033902E+02  0.000000000E+00  0.00000E+00  9.000E+00
      21    -1     0     0   501   502  0.000000000E+00  0.000000000E+00 -2.726916238E+02  2.726916238E+02  0.000000000E+00  0.00000E+00  9.000E+00
      25     1     1     2     0     0 -8.865763504E+01  3.581343294E+02  2.804800202E+02  4.800150164E+02  1.250000000E+02  0.00000E+00  9.000E+00
      25     1     1     2     0     0  1.080442421E+02 -3.075102551E+02  8.871833639E+00  3.491988326E+02  1.250000000E+02  0.00000E+00  9.000E+00
       2     1     1     2   501     0 -1.938660706E+01 -5.062407433E+01  2.633599125E+02  2.688811651E+02  0.000000000E+00  0.00000E+00  9.000E+00
#rwgt            1           1   2.9980714164933042E-002           1      142215           0
</event>
<event>
      5   9999  3.19816E-02  2.90333E+01 -1.00000E+00  1.54034E-01
      21    -1     0     0   511   501  0.000000000E+00  0.000000000E+00  6.314864267E+02  6.314864267E+02  0.000000000E+00  0.00000E+00  9.000E+00
      21    -1     0     0   501   502  0.000000000E+00  0.000000000E+00 -1.071874123E+03  1.071874123E+03  0.000000000E+00  0.00000E+00  9.000E+00
      25     1     1     2     0     0  8.879923242E+01  4.647293803E+02 -3.237565092E+02  5.867725094E+02  1.250000000E+02  0.00000E+00  9.000E+00
      25     1     1     2     0     0 -6.163501463E+01 -4.749780979E+02 -5.166537720E+02  7.155132344E+02  1.250000000E+02  0.00000E+00  9.000E+00
      21     1     1     2   511   502 -2.716421779E+01  1.024871759E+01  4.000225852E+02  4.010748055E+02  0.000000000E+00  0.00000E+00  9.000E+00
#rwgt            1           1   3.1591936037488298E-002           1      142340           0
</event>
<event>
      5   9999  3.19816E-02  5.53407E+01 -1.00000E+00  1.36607E-01
      21    -1     0     0   502   512  0.000000000E+00  0.000000000E+00  3.500437287E+02  3.500437287E+02  0.000000000E+00  0.00000E+00  9.000E+00
      21    -1     0     0   501   502  0.000000000E+00  0.000000000E+00 -3.292697827E+02  3.292697827E+02  0.000000000E+00  0.00000E+00  9.000E+00
      25     1     1     2     0     0 -1.196940636E+02 -1.776620318E+02 -9.672182896E+01  2.662152862E+02  1.250000000E+02  0.00000E+00  9.000E+00
      25     1     1     2     0     0  1.029043153E+02  2.303943984E+02 -1.789357657E+00  2.816009211E+02  1.250000000E+02  0.00000E+00  9.000E+00
      21     1     1     2   501   512  1.678974822E+01 -5.273236662E+01  1.192851326E+02  1.314973042E+02  2.336015456E-06  0.00000E+00  9.000E+00
#rwgt            1           1   2.7702928498596287E-002           1      142483           0
</event>
<event>
      5   9999  3.19816E-02  7.24465E+00 -1.00000E+00  2.13466E-01
      21    -1     0     0   502   501  0.000000000E+00  0.000000000E+00  2.226487586E+02  2.226487586E+02  0.000000000E+00  0.00000E+00  9.000E+00
       2    -1     0     0   501     0  0.000000000E+00  0.000000000E+00 -8.831824006E+02  8.831824006E+02  0.000000000E+00  0.00000E+00  9.000E+00
      25     1     1     2     0     0  3.810397901E+02  1.133192966E+02 -3.770895152E+02  5.620089743E+02  1.250000000E+02  0.00000E+00  9.000E+00
      25     1     1     2     0     0 -3.867854694E+02 -1.177320267E+02 -2.144034256E+02  4.744024224E+02  1.250000000E+02  0.00000E+00  9.000E+00
       2     1     1     2   502     0  5.745679242E+00  4.412730142E+00 -6.904070116E+01  6.941976256E+01  1.348699152E-06  0.00000E+00  9.000E+00
#rwgt            1           1   2.4422596238852672E-002           1      142567           0
</event>
<event>
      5   9999  3.19816E-02  5.24517E+01 -1.00000E+00  1.37900E-01
      21    -1     0     0   502   511  0.000000000E+00  0.000000000E+00  3.568853872E+02  3.568853872E+02  0.000000000E+00  0.00000E+00  9.000E+00
      21    -1     0     0   501   502  0.000000000E+00  0.000000000E+00 -4.731567736E+02  4.731567736E+02  0.000000000E+00  0.00000E+00  9.000E+00
      25     1     1     2     0     0  3.893682732E+01 -8.313258502E+01  2.837516081E+02  3.233683322E+02  1.250000000E+02  0.00000E+00  9.000E+00
      25     1     1     2     0     0 -1.172187453E+01  1.279714392E+02 -4.150497350E+02  4.521121256E+02  1.250000000E+02  0.00000E+00  9.000E+00
      21     1     1     2   501   511 -2.721495279E+01 -4.483885414E+01  1.502674057E+01  5.456170294E+01  6.951036328E-07  0.00000E+00  9.000E+00
#rwgt            1           1   2.9206982148034286E-002           1      142781           0
</event>
<event>
      5   9999  3.19816E-02  1.75117E+01 -1.00000E+00  1.71275E-01
      21    -1     0     0   502   501  0.000000000E+00  0.000000000E+00  2.680674629E+02  2.680674629E+02  0.000000000E+00  0.00000E+00  9.000E+00
      21    -1     0     0   512   502  0.000000000E+00  0.000000000E+00 -8.121894969E+02  8.121894969E+02  0.000000000E+00  0.00000E+00  9.000E+00
      25     1     1     2     0     0  1.380617545E+02 -1.245565398E+01 -3.433687776E+02  3.908238847E+02  1.250000000E+02  0.00000E+00  9.000E+00
      25     1     1     2     0     0 -1.236477526E+02  2.240034394E+01  2.119865257E+02  2.763219666E+02  1.250000000E+02  0.00000E+00  9.000E+00
      21     1     1     2   512   501 -1.441400186E+01 -9.944689968E+00 -4.127397820E+02  4.131111085E+02  0.000000000E+00  0.00000E+00  9.000E+00
#rwgt            1           1   2.8674647527875980E-002           1      142931           0
</event>
<event>
      5   9999  3.19816E-02  2.28386E+02 -1.00000E+00  1.09589E-01
      21    -1     0     0   502   511  0.000000000E+00  0.000000000E+00  5.549127387E+02  5.549127387E+02  0.000000000E+00  0.00000E+00  9.000E+00
      21    -1     0     0   501   502  0.000000000E+00  0.000000000E+00 -2.708393235E+03  2.708393235E+03  0.000000000E+00  0.00000E+00  9.000E+00
      25     1     1     2     0     0 -2.640123482E+01 -4.474326135E+02  4.262290358E+01  4.672629675E+02  1.250000000E+02  0.00000E+00  9.000E+00
      25     1     1     2     0     0 -1.953987283E+02  3.929827178E+02 -2.428031691E+03  2.470542243E+03  1.250000000E+02  0.00000E+00  9.000E+00
      21     1     1     2   501   511  2.217999632E+02  5.444989570E+01  2.319282913E+02  3.255007636E+02  8.946258087E-06  0.00000E+00  9.000E+00
#rwgt            1           1   3.4934057778077211E-002           1      143071           0
</event>
<event>
      5   9999  3.19816E-02  1.55456E+02 -1.00000E+00  1.15782E-01
      21    -1     0     0   502   501  0.000000000E+00  0.000000000E+00  1.487944860E+03  1.487944860E+03  0.000000000E+00  0.00000E+00  9.000E+00
      21    -1     0     0   501   512  0.000000000E+00  0.000000000E+00 -7.958029415E+02  7.958029415E+02  0.000000000E+00  0.00000E+00  9.000E+00
      25     1     1     2     0     0 -3.183807308E+02  2.916400628E+02  1.329917496E+03  1.403825403E+03  1.250000000E+02  0.00000E+00  9.000E+00
      25     1     1     2     0     0  1.640489258E+02 -2.729764515E+02 -1.603841863E+02  3.778574868E+02  1.250000000E+02  0.00000E+00  9.000E+00
      21     1     1     2   502   512  1.543318050E+02 -1.866361137E+01 -4.773913906E+02  5.020649123E+02  5.394796609E-06  0.00000E+00  9.000E+00
#rwgt            1           1   3.4391922016656196E-002           1      143204           0
</event>
<event>
      5   9999  3.19816E-02  1.27970E+02 -1.00000E+00  1.19195E-01
      21    -1     0     0   511   501  0.000000000E+00  0.000000000E+00  2.584899049E+01  2.584899049E+01  0.000000000E+00  0.00000E+00  9.000E+00
      21    -1     0     0   501   502  0.000000000E+00  0.000000000E+00 -2.478307757E+03  2.478307757E+03  0.000000000E+00  0.00000E+00  9.000E+00
      25     1     1     2     0     0  1.771026192E+02  8.254100802E+01 -1.145818032E+03  1.169060443E+03  1.250000000E+02  0.00000E+00  9.000E+00
      25     1     1     2     0     0 -5.283627654E+01 -5.197839624E+01 -7.479915961E+02  7.619775939E+02  1.250000000E+02  0.00000E+00  9.000E+00
      21     1     1     2   511   502 -1.242663426E+02 -3.056261178E+01 -5.586491385E+02  5.731187112E+02  7.629394531E-06  0.00000E+00  9.000E+00
#rwgt            1           1   9.8370821296914462E-002           1      143267           0
</event>
<event>
      5   9999  3.19816E-02  7.46826E+01 -1.00000E+00  1.29812E-01
      21    -1     0     0   512   501  0.000000000E+00  0.000000000E+00  1.650936865E+02  1.650936865E+02  0.000000000E+00  0.00000E+00  9.000E+00
      21    -1     0     0   501   502  0.000000000E+00  0.000000000E+00 -1.497682461E+03  1.497682461E+03  0.000000000E+00  0.00000E+00  9.000E+00
      25     1     1     2     0     0  2.674880013E+02 -3.359666231E+02 -4.778014412E+02  6.544788919E+02  1.250000000E+02  0.00000E+00  9.000E+00
      25     1     1     2     0     0 -2.857001885E+02  2.635386854E+02 -8.373759381E+02  9.316118817E+02  1.250000000E+02  0.00000E+00  9.000E+00
      21     1     1     2   512   502  1.821218723E+01  7.242793771E+01 -1.741139557E+01  7.668537423E+01  1.410503336E-06  0.00000E+00  9.000E+00
#rwgt            1           1   2.5448190200697635E-002           1      143319           0
</event>
<event>
      5   9999  3.19816E-02  6.66700E+01 -1.00000E+00  1.32302E-01
       2    -1     0     0   502     0  0.000000000E+00  0.000000000E+00  1.177653854E+03  1.177653854E+03  0.000000000E+00  0.00000E+00  9.000E+00
      21    -1     0     0   501   502  0.000000000E+00  0.000000000E+00 -7.461427031E+02  7.461427031E+02  0.000000000E+00  0.00000E+00  9.000E+00
      25     1     1     2     0     0 -3.314996887E+01  2.009194113E+02 -3.092073179E+02  3.907706434E+02  1.250000000E+02  0.00000E+00  9.000E+00
      25     1     1     2     0     0  7.856401523E+00 -1.392337485E+02 -3.729676885E+02  4.173459673E+02  1.250000000E+02  0.00000E+00  9.000E+00
       2     1     1     2   501     0  2.529356735E+01 -6.168566287E+01  1.113686157E+03  1.115679946E+03  0.000000000E+00  0.00000E+00  9.000E+00
#rwgt            1           1   1.5877581275345647E-002           1      143428           0
</event>
<event>
      5   9999  3.19816E-02  5.55585E+02 -1.00000E+00  9.75686E-02
      21    -1     0     0   502   511  0.000000000E+00  0.000000000E+00  6.213157823E+02  6.213157823E+02  0.000000000E+00  0.00000E+00  9.000E+00
      21    -1     0     0   501   502  0.000000000E+00  0.000000000E+00 -8.749002554E+02  8.749002554E+02  0.000000000E+00  0.00000E+00  9.000E+00
      25     1     1     2     0     0  1.609527849E+02 -2.950920866E+02 -1.486866893E+02  3.882239948E+02  1.250000000E+02  0.00000E+00  9.000E+00
      25     1     1     2     0     0  3.944647752E+02  2.814528130E+02 -2.097114174E+02  5.426066931E+02  1.250000000E+02  0.00000E+00  9.000E+00
      21     1     1     2   501   511 -5.554175602E+02  1.363927360E+01  1.048136337E+02  5.653853498E+02  1.144409180E-05  0.00000E+00  9.000E+00
#rwgt            1           1   2.9165668625234478E-002           1      143495           0
</event>
<event>
      5   9999  3.19816E-02  4.23405E+01 -1.00000E+00  1.43325E-01
      21    -1     0     0   502   501  0.000000000E+00  0.000000000E+00  4.163295938E+02  4.163295938E+02  0.000000000E+00  0.00000E+00  9.000E+00
       1    -1     0     0   501     0  0.000000000E+00  0.000000000E+00 -1.988097706E+03  1.988097706E+03  0.000000000E+00  0.00000E+00  9.000E+00
      25     1     1     2     0     0 -1.672386506E+02 -5.544570653E+02 -6.558866449E+02  8.838572817E+02  1.250000000E+02  0.00000E+00  9.000E+00
      25     1     1     2     0     0  1.315473947E+02  5.316786518E+02  4.050032967E+01  5.632514381E+02  1.250000000E+02  0.00000E+00  9.000E+00
       1     1     1     2   502     0  3.569125589E+01  2.277841354E+01 -9.563817966E+02  9.573185795E+02  1.078959322E-05  0.00000E+00  9.000E+00
#rwgt            2          12   6.0178874810808158E-004           1      143660           0
</event>
<event>
      5   9999  3.19816E-02  5.05245E+01 -1.00000E+00  1.38817E-01
      21    -1     0     0   502   501  0.000000000E+00  0.000000000E+00  9.675411046E+02  9.675411046E+02  0.000000000E+00  0.00000E+00  9.000E+00
      21    -1     0     0   501   511  0.000000000E+00  0.000000000E+00 -9.411203669E+01  9.411203669E+01  0.000000000E+00  0.00000E+00  9.000E+00
      25     1     1     2     0     0 -1.598968855E+02  1.161082629E+02  1.862576948E+02  2.989399130E+02  1.250000000E+02  0.00000E+00  9.000E+00
      25     1     1     2     0     0  1.939979799E+02 -7.882770612E+01  6.635376677E+02  7.069344099E+02  1.250000000E+02  0.00000E+00  9.000E+00
      21     1     1     2   502   511 -3.410109431E+01 -3.728055676E+01  2.363370535E+01  5.577881833E+01  5.840038640E-07  0.00000E+00  9.000E+00
#rwgt            1           1   2.8019308066896217E-002           1      143769           0
</event>
<event>
      5   9999  3.19816E-02  1.47104E+02 -1.00000E+00  1.16730E-01
       1    -1     0     0   502     0  0.000000000E+00  0.000000000E+00  3.821213265E+02  3.821213265E+02  0.000000000E+00  0.00000E+00  9.000E+00
      21    -1     0     0   501   502  0.000000000E+00  0.000000000E+00 -2.182753098E+02  2.182753098E+02  0.000000000E+00  0.00000E+00  9.000E+00
      25     1     1     2     0     0 -8.129646946E+01 -6.981440707E+01 -5.138822722E+01  1.724787444E+02  1.250000000E+02  0.00000E+00  9.000E+00
      25     1     1     2     0     0 -1.319884703E+01  1.825545050E+02  1.454053709E+02  2.650812682E+02  1.250000000E+02  0.00000E+00  9.000E+00
       1     1     1     2   501     0  9.449531648E+01 -1.127400979E+02  6.982887304E+01  1.628366237E+02  1.348699152E-06  0.00000E+00  9.000E+00
#rwgt            2          17   9.1785208723244041E-005           1      143988           0
</event>
<event>
      5   9999  3.19816E-02  4.90403E+01 -1.00000E+00  1.39557E-01
      21    -1     0     0   502   501  0.000000000E+00  0.000000000E+00  7.404981477E+02  7.404981477E+02  0.000000000E+00  0.00000E+00  9.000E+00
      21    -1     0     0   501   511  0.000000000E+00  0.000000000E+00 -2.950948648E+02  2.950948648E+02  0.000000000E+00  0.00000E+00  9.000E+00
      25     1     1     2     0     0  1.815513912E+01  3.432759378E+02 -4.437370831E+01  3.684589591E+02  1.250000000E+02  0.00000E+00  9.000E+00
      25     1     1     2     0     0 -6.047244293E+01 -3.680589821E+02  4.732179145E+02  6.153734844E+02  1.250000000E+02  0.00000E+00  9.000E+00
      21     1     1     2   502   511  4.231730381E+01  2.478304429E+01  1.655907664E+01  5.176056902E+01  1.039242493E-06  0.00000E+00  9.000E+00
#rwgt            1           1   3.0146436422984205E-002           1      144037           0
</event>
<event>
      5   9999  3.19816E-02  3.23041E+01 -1.00000E+00  1.50841E-01
      21    -1     0     0   502   501  0.000000000E+00  0.000000000E+00  3.216359506E+02  3.216359506E+02  0.000000000E+00  0.00000E+00  9.000E+00
      21    -1     0     0   512   502  0.000000000E+00  0.000000000E+00 -5.376524645E+02  5.376524645E+02  0.000000000E+00  0.00000E+00  9.000E+00
      25     1     1     2     0     0  3.423022183E+02 -6.794751688E+01 -1.083546485E+02  3.862038368E+02  1.250000000E+02  0.00000E+00  9.000E+00
      25     1     1     2     0     0 -3.686259849E+02  8.667215678E+01 -4.336249299E+01  4.011265203E+02  1.250000000E+02  0.00000E+00  9.000E+00
      21     1     1     2   512   501  2.632376660E+01 -1.872463990E+01 -6.429937236E+01  7.195805801E+01  9.536743164E-07  0.00000E+00  9.000E+00
#rwgt            1           1   2.9911970061625562E-002           1      144123           0
</event>
<event>
      5   9999  3.19816E-02  9.38128E+01 -1.00000E+00  1.25088E-01
      21    -1     0     0   511   501  0.000000000E+00  0.000000000E+00  1.170574676E+02  1.170574676E+02  0.000000000E+00  0.00000E+00  9.000E+00
      21    -1     0     0   501   502  0.000000000E+00  0.000000000E+00 -1.240836510E+03  1.240836510E+03  0.000000000E+00  0.00000E+00  9.000E+00
      25     1     1     2     0     0 -1.056410332E+01  2.170447522E+02 -7.367239857E+02  7.782077202E+02  1.250000000E+02  0.00000E+00  9.000E+00
      25     1     1     2     0     0 -7.253387060E+01 -1.735065512E+02 -4.227768119E+02  4.793025332E+02  1.250000000E+02  0.00000E+00  9.000E+00
      21     1     1     2   511   502  8.309797392E+01 -4.353820098E+01  3.572175538E+01  1.003837239E+02  1.348699152E-06  0.00000E+00  9.000E+00
#rwgt            1           1   2.6819705393809987E-002           1      144225           0
</event>
<event>
      5   9999  3.19816E-02  1.82435E+01 -1.00000E+00  1.69732E-01
      21    -1     0     0   502   501  0.000000000E+00  0.000000000E+00  3.005414665E+02  3.005414665E+02  0.000000000E+00  0.00000E+00  9.000E+00
      21    -1     0     0   501   512  0.000000000E+00  0.000000000E+00 -3.936064609E+02  3.936064609E+02  0.000000000E+00  0.00000E+00  9.000E+00
      25     1     1     2     0     0 -1.994238141E+02  1.823252011E+02 -1.273661374E+02  3.238201191E+02  1.250000000E+02  0.00000E+00  9.000E+00
      25     1     1     2     0     0  2.174415480E+02 -1.851861300E+02  7.936441971E+01  3.217117353E+02  1.250000000E+02  0.00000E+00  9.000E+00
      21     1     1     2   502   512 -1.801773394E+01  2.860928846E+00 -4.506327671E+01  4.861607305E+01  0.000000000E+00  0.00000E+00  9.000E+00
#rwgt            1           1   3.2698040225959839E-002           1      144285           0
</event>
<event>
      5   9999  3.19816E-02  4.32064E+01 -1.00000E+00  1.42793E-01
      21    -1     0     0   511   501  0.000000000E+00  0.000000000E+00  3.307000466E+02  3.307000466E+02  0.000000000E+00  0.00000E+00  9.000E+00
      21    -1     0     0   501   502  0.000000000E+00  0.000000000E+00 -1.023727428E+03  1.023727428E+03  0.000000000E+00  0.00000E+00  9.000E+00
      25     1     1     2     0     0 -2.073577196E+02 -1.440214029E+02 -6.849946361E+02  7.406632432E+02  1.250000000E+02  0.00000E+00  9.000E+00
      25     1     1     2     0     0  1.652094621E+02  1.345179297E+02 -2.597024688E+02  3.584126282E+02  1.250000000E+02  0.00000E+00  9.000E+00
      21     1     1     2   511   502  4.214825747E+01  9.503473184E+00  2.516697234E+02  2.553516032E+02  4.672030912E-06  0.00000E+00  9.000E+00
#rwgt            1           1   2.3828977178059617E-002           1      144435           0
</event>
<event>
      5   9999  3.19816E-02  4.34761E+01 -1.00000E+00  1.42631E-01
      21    -1     0     0   502   512  0.000000000E+00  0.000000000E+00  1.503385222E+02  1.503385222E+02  0.000000000E+00  0.00000E+00  9.000E+00
      21    -1     0     0   501   502  0.000000000E+00  0.000000000E+00 -1.295477325E+03  1.295477325E+03  0.000000000E+00  0.00000E+00  9.000E+00
      25     1     1     2     0     0  5.050968998E+01  2.892699968E+02 -1.052547537E+03  1.099868028E+03  1.250000000E+02  0.00000E+00  9.000E+00
      25     1     1     2     0     0 -6.989368863E+01 -2.503543378E+02 -6.932108899E+01  2.966358636E+02  1.250000000E+02  0.00000E+00  9.000E+00
      21     1     1     2   501   512  1.938399866E+01 -3.891565895E+01 -2.327017677E+01  4.931195638E+01  3.371747881E-07  0.00000E+00  9.000E+00
#rwgt            1           1   2.6245574429451923E-002           1      144524           0
</event>
<event>
      5   9999  3.19816E-02  1.21832E+02 -1.00000E+00  1.20090E-01
      21    -1     0     0   502   501  0.000000000E+00  0.000000000E+00  6.598601175E+02  6.598601175E+02  0.000000000E+00  0.00000E+00  9.000E+00
      21    -1     0     0   501   511  0.000000000E+00  0.000000000E+00 -2.031728957E+02  2.031728957E+02  0.000000000E+00  0.00000E+00  9.000E+00
      25     1     1     2     0     0  6.935091874E+01 -1.831138374E+02  3.924513929E+01  2.355958580E+02  1.250000000E+02  0.00000E+00  9.000E+00
      25     1     1     2     0     0 -1.876844262E+02  1.541255561E+02  4.251852586E+02  5.053589171E+02  1.250000000E+02  0.00000E+00  9.000E+00
      21     1     1     2   502   511  1.183335075E+02  2.898828122E+01 -7.743176181E+00  1.220782381E+02  1.901752488E-06  0.00000E+00  9.000E+00
#rwgt            2          11   3.6633724810379827E-003           1      144665           0
</event>
<event>
      5   9999  3.19816E-02  4.31096E+01 -1.00000E+00  1.42852E-01
      21    -1     0     0   502   501  0.000000000E+00  0.000000000E+00  3.533048368E+02  3.533048368E+02  0.000000000E+00  0.00000E+00  9.000E+00
      21    -1     0     0   512   502  0.000000000E+00  0.000000000E+00 -2.649908906E+02  2.649908906E+02  0.000000000E+00  0.00000E+00  9.000E+00
      25     1     1     2     0     0  3.176393433E+01  1.548441965E+02  2.694269295E+02  3.364543699E+02  1.250000000E+02  0.00000E+00  9.000E+00
      25     1     1     2     0     0 -2.826284700E+01 -1.118769591E+02 -1.611722803E+02  2.343432235E+02  1.250000000E+02  0.00000E+00  9.000E+00
      21     1     1     2   512   501 -3.501087327E+00 -4.296723739E+01 -1.994070299E+01  4.749813403E+01  5.331201500E-07  0.00000E+00  9.000E+00
#rwgt            1           1   2.7498945996730560E-002           1      144685           0
</event>
<event>
      5   9999  3.19816E-02  2.43284E+01 -1.00000E+00  1.59642E-01
      21    -1     0     0   502   501  0.000000000E+00  0.000000000E+00  1.086521807E+02  1.086521807E+02  0.000000000E+00  0.00000E+00  9.000E+00
      21    -1     0     0   501   511  0.000000000E+00  0.000000000E+00 -2.927703642E+03  2.927703642E+03  0.000000000E+00  0.00000E+00  9.000E+00
      25     1     1     2     0     0  1.816529991E+02 -1.705009002E+02 -5.048766213E+02  5.767094345E+02  1.250000000E+02  0.00000E+00  9.000E+00
      25     1     1     2     0     0 -1.637387653E+02  1.540402713E+02 -1.549586448E+02  3.002931402E+02  1.250000000E+02  0.00000E+00  9.000E+00
      21     1     1     2   502   511 -1.791423375E+01  1.646062898E+01 -2.159216195E+03  2.159353248E+03  4.315837288E-05  0.00000E+00  9.000E+00
#rwgt            1           1   3.4263588348718399E-002           1      144779           0
</event>
<event>
      5   9999  3.19816E-02  8.77493E+01 -1.00000E+00  1.26436E-01
      21    -1     0     0   502   501  0.000000000E+00  0.000000000E+00  8.867028208E+01  8.867028208E+01  0.000000000E+00  0.00000E+00  9.000E+00
      21    -1     0     0   512   502  0.000000000E+00  0.000000000E+00 -7.805739347E+02  7.805739347E+02  0.000000000E+00  0.00000E+00  9.000E+00
      25     1     1     2     0     0 -4.694503716E+01 -1.979772092E+02 -3.528290037E+02  4.260423896E+02  1.250000000E+02  0.00000E+00  9.000E+00
      25     1     1     2     0     0  6.970047341E+00  1.198623384E+02 -1.306179857E+02  2.170290762E+02  1.250000000E+02  0.00000E+00  9.000E+00
      21     1     1     2   512   501  3.997498982E+01  7.811487083E+01 -2.084566633E+02  2.261727510E+02  5.394796609E-06  0.00000E+00  9.000E+00
#rwgt            1           1   2.7182448254664027E-002           1      144975           0
</event>
<event>
      5   9999  3.19816E-02  1.06635E+02 -1.00000E+00  1.22586E-01
      21    -1     0     0   502   501  0.000000000E+00  0.000000000E+00  1.126978420E+02  1.126978420E+02  0.000000000E+00  0.00000E+00  9.000E+00
       2    -1     0     0   501     0  0.000000000E+00  0.000000000E+00 -2.299219138E+03  2.299219138E+03  0.000000000E+00  0.00000E+00  9.000E+00
      25     1     1     2     0     0 -7.666105647E+01 -1.123682068E+02  1.103500348E+00  1.847423860E+02  1.250000000E+02  0.00000E+00  9.000E+00
      25     1     1     2     0     0  7.614160100E+01  5.734246471E+00 -2.749814311E+02  3.115609289E+02  1.250000000E+02  0.00000E+00  9.000E+00
       2     1     1     2   502     0  5.194554689E-01  1.066339603E+02 -1.912643365E+03  1.915613665E+03  2.157918644E-05  0.00000E+00  9.000E+00
#rwgt            2          13   1.9398883461468172E-003           1      145059           0
</event>
<event>
      5   9999  3.19816E-02  2.25114E+01 -1.00000E+00  1.62239E-01
      21    -1     0     0   502   511  0.000000000E+00  0.000000000E+00  3.024143672E+02  3.024143672E+02  0.000000000E+00  0.00000E+00  9.000E+00
      21    -1     0     0   501   502  0.000000000E+00  0.000000000E+00 -3.246838976E+02  3.246838976E+02  0.000000000E+00  0.00000E+00  9.000E+00
      25     1     1     2     0     0  8.517781774E-01 -2.508981496E+02 -1.406313446E+02  3.136124712E+02  1.250000000E+02  0.00000E+00  9.000E+00
      25     1     1     2     0     0 -1.679282801E+01  2.350032575E+02  1.160271392E+02  2.908536180E+02  1.250000000E+02  0.00000E+00  9.000E+00
      21     1     1     2   501   511  1.594104983E+01  1.589489213E+01  2.334674990E+00  2.263217561E+01  2.858538343E-07  0.00000E+00  9.000E+00
#rwgt            1           1   2.7114192524947095E-002           1      145108           0
</event>
<event>
      5   9999  3.19816E-02  5.33513E+01 -1.00000E+00  1.37487E-01
      21    -1     0     0   502   501  0.000000000E+00  0.000000000E+00  1.246278605E+03  1.246278605E+03  0.000000000E+00  0.00000E+00  9.000E+00
      21    -1     0     0   501   512  0.000000000E+00  0.000000000E+00 -4.434214680E+02  4.434214680E+02  0.000000000E+00  0.00000E+00  9.000E+00
      25     1     1     2     0     0  3.748403587E+02 -7.096677167E+01 -3.714378939E+01  4.031702348E+02  1.250000000E+02  0.00000E+00  9.000E+00
      25     1     1     2     0     0 -3.932405643E+02  2.088885193E+01  1.019093503E+03  1.099659517E+03  1.250000000E+02  0.00000E+00  9.000E+00
      21     1     1     2   502   512  1.840020566E+01  5.007791973E+01 -1.790925770E+02  1.868703207E+02  4.672030912E-06  0.00000E+00  9.000E+00
#rwgt            1           1   1.5541321502422786E-002           1      145283           0
</event>
<event>
      5   9999  3.19816E-02  1.33177E+02 -1.00000E+00  1.18479E-01
      21    -1     0     0   502   501  0.000000000E+00  0.000000000E+00  1.416592442E+02  1.416592442E+02  0.000000000E+00  0.00000E+00  9.000E+00
      21    -1     0     0   501   511  0.000000000E+00  0.000000000E+00 -9.062748932E+02  9.062748932E+02  0.000000000E+00  0.00000E+00  9.000E+00
      25     1     1     2     0     0  4.423276458E+01 -4.229305949E+01 -1.803283112E+02  2.277905621E+02  1.250000000E+02  0.00000E+00  9.000E+00
      25     1     1     2     0     0  4.849398170E+01 -5.329864959E+01  6.434533793E+01  1.579801722E+02  1.250000000E+02  0.00000E+00  9.000E+00
      21     1     1     2   502   511 -9.272674628E+01  9.559170908E+01 -6.486326757E+02  6.621634030E+02  7.629394531E-06  0.00000E+00  9.000E+00
#rwgt            2          11   2.0469012713298890E-003           1      145655           0
</event>
<event>
      5   9999  3.19816E-02  1.11649E+02 -1.00000E+00  1.21713E-01
       2    -1     0     0   502     0  0.000000000E+00  0.000000000E+00  1.339276720E+03  1.339276720E+03  0.000000000E+00  0.00000E+00  9.000E+00
      21    -1     0     0   501   502  0.000000000E+00  0.000000000E+00 -5.900685558E+01  5.900685558E+01  0.000000000E+00  0.00000E+00  9.000E+00
      25     1     1     2     0     0 -1.459997520E+02 -9.669727919E+01  4.239323359E+02  4.754050029E+02  1.250000000E+02  0.00000E+00  9.000E+00
      25     1     1     2     0     0  1.057917843E+02 -7.460148509E+00  2.071788406E+02  2.641886210E+02  1.250000000E+02  0.00000E+00  9.000E+00
       2     1     1     2   501     0  4.020796773E+01  1.041574277E+02  6.491586878E+02  6.586899517E+02  1.321449896E-05  0.00000E+00  9.000E+00
#rwgt            1           1   3.1775533928729241E-002           1      145690           0
</event>
<event>
      5   9999  3.19816E-02  2.57554E+01 -1.00000E+00  1.57789E-01
      21    -1     0     0   502   511  0.000000000E+00  0.000000000E+00  5.396171053E+02  5.396171053E+02  0.000000000E+00  0.00000E+00  9.000E+00
      21    -1     0     0   501   502  0.000000000E+00  0.000000000E+00 -3.366616556E+02  3.366616556E+02  0.000000000E+00  0.00000E+00  9.000E+00
      25     1     1     2     0     0  2.090390613E+02 -9.879133464E+01  4.266734984E+02  5.011310519E+02  1.250000000E+02  0.00000E+00  9.000E+00
      25     1     1     2     0     0 -1.836715927E+02  1.032444385E+02 -2.413751200E+02  3.439209453E+02  1.250000000E+02  0.00000E+00  9.000E+00
      21     1     1     2   501   511 -2.536746860E+01 -4.453103859E+00  1.765707145E+01  3.122676367E+01  4.768371582E-07  0.00000E+00  9.000E+00
#rwgt            1           1   2.9454110747999463E-002           1      145727           0
</event>
<event>
      5   9999  3.19816E-02  5.36051E+01 -1.00000E+00  1.37372E-01
      21    -1     0     0   502   512  0.000000000E+00  0.000000000E+00  2.775779623E+02  2.775779623E+02  0.000000000E+00  0.00000E+00  9.000E+00
      21    -1     0     0   501   502  0.000000000E+00  0.000000000E+00 -9.906659071E+02  9.906659071E+02  0.000000000E+00  0.00000E+00  9.000E+00
      25     1     1     2     0     0  2.950826924E+02 -1.036560779E+02 -2.838539631E+00  3.368255263E+02  1.250000000E+02  0.00000E+00  9.000E+00
      25     1     1     2     0     0 -2.754335898E+02  1.535301527E+02 -7.758150648E+02  8.467285190E+02  1.250000000E+02  0.00000E+00  9.000E+00
      21     1     1     2   501   512 -1.964910259E+01 -4.987407472E+01  6.556565965E+01  8.468982399E+01  9.536743164E-07  0.00000E+00  9.000E+00
#rwgt            1           1   3.2853390864799395E-002           1      145847           0
</event>
<event>
      5   9999  3.19816E-02  2.55649E+01 -1.00000E+00  1.58027E-01
      21    -1     0     0   502   511  0.000000000E+00  0.000000000E+00  3.613842163E+02  3.613842163E+02  0.000000000E+00  0.00000E+00  9.000E+00
      21    -1     0     0   501   502  0.000000000E+00  0.000000000E+00 -3.791672195E+02  3.791672195E+02  0.000000000E+00  0.00000E+00  9.000E+00
      25     1     1     2     0     0 -1.369331913E+02 -2.756569531E+02 -1.182139073E+02  3.526144957E+02  1.250000000E+02  0.00000E+00  9.000E+00
      25     1     1     2     0     0  1.613496632E+02  2.832333851E+02  9.226070227E+01  3.610981881E+02  1.250000000E+02  0.00000E+00  9.000E+00
      21     1     1     2   501   511 -2.441647187E+01 -7.576431971E+00  8.170201785E+00  2.683875216E+01  3.576278687E-07  0.00000E+00  9.000E+00
#rwgt            1           1   2.2685677268193739E-002           1      145958           0
</event>
<event>
      5   9999  3.19816E-02  2.58934E+01 -1.00000E+00  1.57617E-01
      21    -1     0     0   512   501  0.000000000E+00  0.000000000E+00  1.029057661E+02  1.029057661E+02  0.000000000E+00  0.00000E+00  9.000E+00
      21    -1     0     0   501   502  0.000000000E+00  0.000000000E+00 -3.468127432E+03  3.468127432E+03  0.000000000E+00  0.00000E+00  9.000E+00
      25     1     1     2     0     0 -3.880929331E+02  1.191160029E+02 -2.714553092E+03  2.747585892E+03  1.250000000E+02  0.00000E+00  9.000E+00
      25     1     1     2     0     0  4.132943992E+02 -1.250621265E+02 -6.576712459E+02  7.966236650E+02  1.250000000E+02  0.00000E+00  9.000E+00
      21     1     1     2   512   502 -2.520146610E+01  5.946123505E+00  7.002672085E+00  2.682364059E+01  1.092571186E-06  0.00000E+00  9.000E+00
#rwgt            1           1   2.7178442254924304E-002           1      146086           0
</event>
<event>
      5   9999  3.19816E-02  3.07253E+01 -1.00000E+00  1.52323E-01
      21    -1     0     0   502   501  0.000000000E+00  0.000000000E+00  1.425824742E+03  1.425824742E+03  0.000000000E+00  0.00000E+00  9.000E+00
      21    -1     0     0   511   502  0.000000000E+00  0.000000000E+00 -4.949395482E+02  4.949395482E+02  0.000000000E+00  0.00000E+00  9.000E+00
      25     1     1     2     0     0 -1.045201552E+01 -4.728332361E+02  1.089590109E+03  1.194366828E+03  1.250000000E+02  0.00000E+00  9.000E+00
      25     1     1     2     0     0 -1.965708736E+01  4.667105332E+02  7.616929142E+01  4.895220974E+02  1.250000000E+02  0.00000E+00  9.000E+00
      21     1     1     2   511   501  3.010910289E+01  6.122702883E+00 -2.348742066E+02  2.368753649E+02  0.000000000E+00  0.00000E+00  9.000E+00
#rwgt            1           1   2.8468911806126550E-002           1      146243           0
</event>
<event>
      5   9999  3.19816E-02  8.02672E+01 -1.00000E+00  1.28279E-01
      21    -1     0     0   502   512  0.000000000E+00  0.000000000E+00  1.440328229E+02  1.440328229E+02  0.000000000E+00  0.00000E+00  9.000E+00
      21    -1     0     0   501   502  0.000000000E+00  0.000000000E+00 -1.231885598E+03  1.231885598E+03  0.000000000E+00  0.00000E+00  9.000E+00
      25     1     1     2     0     0 -3.500464127E+02  1.215004848E+02 -6.541587804E+02  7.621309394E+02  1.250000000E+02  0.00000E+00  9.000E+00
      25     1     1     2     0     0  2.871558793E+02 -7.162465074E+01 -4.254125955E+02  5.330942375E+02  1.250000000E+02  0.00000E+00  9.000E+00
      21     1     1     2   501   512  6.289053333E+01 -4.987583402E+01 -8.281398906E+00  8.069324364E+01  2.351174703E-06  0.00000E+00  9.000E+00
#rwgt            1           1   3.1861391589359141E-002           1      146467           0
</event>
<event>
      5   9999  3.19816E-02  3.14163E+01 -1.00000E+00  1.51661E-01
      21    -1     0     0   502   511  0.000000000E+00  0.000000000E+00  7.070499467E+02  7.070499467E+02  0.000000000E+00  0.00000E+00  9.000E+00
      21    -1     0     0   501   502  0.000000000E+00  0.000000000E+00 -1.786287689E+02  1.786287689E+02  0.000000000E+00  0.00000E+00  9.000E+00
      25     1     1     2     0     0 -2.421085471E+01  3.938833886E+00  3.563482022E+02  3.784319240E+02  1.250000000E+02  0.00000E+00  9.000E+00
      25     1     1     2     0     0  2.908822203E+01 -3.497425061E+01 -1.402784938E+02  1.933193696E+02  1.250000000E+02  0.00000E+00  9.000E+00
      21     1     1     2   501   511 -4.877367323E+00  3.103541672E+01  3.123514694E+02  3.139274220E+02  3.814697266E-06  0.00000E+00  9.000E+00
#rwgt            1           1   2.7479760732445197E-002           1      146554           0
</event>
<event>
      5   9999  3.19816E-02  9.65800E+01 -1.00000E+00  1.24511E-01
      21    -1     0     0   502   501  0.000000000E+00  0.000000000E+00  4.145942094E+02  4.145942094E+02  0.000000000E+00  0.00000E+00  9.000E+00
      21    -1     0     0   512   502  0.000000000E+00  0.000000000E+00 -1.303030708E+03  1.303030708E+03  0.000000000E+00  0.00000E+00  9.000E+00
      25     1     1     2     0     0  1.236819222E+02  2.317085980E+02  3.409902828E+02  4.482024824E+02  1.250000000E+02  0.00000E+00  9.000E+00
      25     1     1     2     0     0 -1.161791148E+02 -1.354204511E+02 -7.885241305E+02  8.180657612E+02  1.250000000E+02  0.00000E+00  9.000E+00
      21     1     1     2   512   501 -7.502807388E+00 -9.628814690E+01 -4.409026512E+02  4.513566740E+02  7.629394531E-06  0.00000E+00  9.000E+00
#rwgt            1           1   2.7895302191374829E-002           1      146651           0
</event>
<event>
      5   9999  3.19816E-02  5.43828E+02 -1.00000E+00  9.78262E-02
      21    -1     0     0   502   501  0.000000000E+00  0.000000000E+00  7.290510756E+02  7.290510756E+02  0.000000000E+00  0.00000E+00  9.000E+00
       1    -1     0     0   501     0  0.000000000E+00  0.000000000E+00 -1.270121641E+03  1.270121641E+03  0.000000000E+00  0.00000E+00  9.000E+00
      25     1     1     2     0     0  2.311163814E+02  5.456402212E+02 -2.406987717E+01  6.060877755E+02  1.250000000E+02  0.00000E+00  9.000E+00
      25     1     1     2     0     0 -4.680120906E+02 -5.612019738E+01  1.704035580E+02  5.165725177E+02  1.250000000E+02  0.00000E+00  9.000E+00
       1     1     1     2   502     0  2.368957092E+02 -4.895200238E+02 -6.874042466E+02  8.765124237E+02  1.078959322E-05  0.00000E+00  9.000E+00
#rwgt            2          12   5.1118841099658799E-004           1      146815           0
</event>
<event>
      5   9999  3.19816E-02  8.14192E+00 -1.00000E+00  2.06677E-01
      21    -1     0     0   502   511  0.000000000E+00  0.000000000E+00  3.276458924E+02  3.276458924E+02  0.000000000E+00  0.00000E+00  9.000E+00
      21    -1     0     0   501   502  0.000000000E+00  0.000000000E+00 -2.260548605E+02  2.260548605E+02  0.000000000E+00  0.00000E+00  9.000E+00
      25     1     1     2     0     0 -9.155325424E+01  4.419241269E+01  3.726161868E+00  1.611640530E+02  1.250000000E+02  0.00000E+00  9.000E+00
      25     1     1     2     0     0  8.681504321E+01 -5.081360997E+01 -1.035469869E+02  1.909603445E+02  1.250000000E+02  0.00000E+00  9.000E+00
      21     1     1     2   501   511  4.738211029E+00  6.621197275E+00  2.014118569E+02  2.015763553E+02  2.697398305E-06  0.00000E+00  9.000E+00
#rwgt            1           1   3.2359972791725589E-002           1      146834           0
</event>
<event>
      5   9999  3.19816E-02  2.79487E+01 -1.00000E+00  1.55207E-01
      21    -1     0     0   512   501  0.000000000E+00  0.000000000E+00  6.185583178E+02  6.185583178E+02  0.000000000E+00  0.00000E+00  9.000E+00
      21    -1     0     0   501   502  0.000000000E+00  0.000000000E+00 -2.103486657E+02  2.103486657E+02  0.000000000E+00  0.00000E+00  9.000E+00
      25     1     1     2     0     0  3.181296723E+02 -5.944367148E+01  1.866573004E+02  3.939619097E+02  1.250000000E+02  0.00000E+00  9.000E+00
      25     1     1     2     0     0 -2.941126918E+02  7.373749076E+01  1.549803956E+02  3.627442846E+02  1.250000000E+02  0.00000E+00  9.000E+00
      21     1     1     2   512   502 -2.401698051E+01 -1.429381928E+01  6.657195610E+01  7.220078920E+01  9.536743164E-07  0.00000E+00  9.000E+00
#rwgt            1           1   2.8962520318330777E-002           1      147069           0
</event>
<event>
      5   9999  3.19816E-02  8.89744E+01 -1.00000E+00  1.26154E-01
      21    -1     0     0   502   501  0.000000000E+00  0.000000000E+00  3.735311031E+02  3.735311031E+02  0.000000000E+00  0.00000E+00  9.000E+00
       1    -1     0     0   501     0  0.000000000E+00  0.000000000E+00 -1.100094040E+03  1.100094040E+03  0.000000000E+00  0.00000E+00  9.000E+00
      25     1     1     2     0     0  1.004919539E+02 -2.173015695E+02  2.195977191E+02  3.480901653E+02  1.250000000E+02  0.00000E+00  9.000E+00
      25     1     1     2     0     0 -5.801716971E+01  2.954830517E+02 -2.185662687E+02  3.925206232E+02  1.250000000E+02  0.00000E+00  9.000E+00
       1     1     1     2   502     0 -4.247478421E+01 -7.818148223E+01 -7.275943878E+02  7.330143550E+02  1.078959322E-05  0.00000E+00  9.000E+00
#rwgt            1           1   2.5337072824875930E-002           1      147197           0
</event>
<event>
      5   9999  3.19816E-02  1.45671E+02 -1.00000E+00  1.16900E-01
      21    -1     0     0   502   501  0.000000000E+00  0.000000000E+00  1.574418161E+02  1.574418161E+02  0.000000000E+00  0.00000E+00  9.000E+00
      21    -1     0     0   511   502  0.000000000E+00  0.000000000E+00 -1.280541405E+03  1.280541405E+03  0.000000000E+00  0.00000E+00  9.000E+00
      25     1     1     2     0     0 -1.963213369E+02 -3.489977347E+02 -4.770567434E+02  6.352555568E+02  1.250000000E+02  0.00000E+00  9.000E+00
      25     1     1     2     0     0  2.003907502E+02  2.033834874E+02 -3.256343916E+02  4.507594177E+02  1.250000000E+02  0.00000E+00  9.000E+00
      21     1     1     2   511   501 -4.069413301E+00  1.456142473E+02 -3.204084542E+02  3.519682466E+02  3.814697266E-06  0.00000E+00  9.000E+00
#rwgt            1           1   2.9375780225037777E-002           1      147242           0
</event>
<event>
      5   9999  3.19816E-02  9.86054E+00 -1.00000E+00  1.96465E-01
      21    -1     0     0   502   501  0.000000000E+00  0.000000000E+00  3.748451391E+02  3.748451391E+02  0.000000000E+00  0.00000E+00  9.000E+00
      21    -1     0     0   512   502  0.000000000E+00  0.000000000E+00 -1.148477542E+03  1.148477542E+03  0.000000000E+00  0.00000E+00  9.000E+00
      25     1     1     2     0     0 -4.552668047E+02  2.090195026E+02  4.280255336E+01  5.180869372E+02  1.250000000E+02  0.00000E+00  9.000E+00
      25     1     1     2     0     0  4.628974575E+02 -2.152647661E+02 -6.383538913E+02  8.268818937E+02  1.250000000E+02  0.00000E+00  9.000E+00
      21     1     1     2   512   501 -7.630652831E+00  6.245263536E+00 -1.780810648E+02  1.783538500E+02  1.907348633E-06  0.00000E+00  9.000E+00
#rwgt            1           1   2.8973295757068293E-002           1      147320           0
</event>
<event>
      5   9999  3.19816E-02  5.41505E+01 -1.00000E+00  1.37128E-01
      21    -1     0     0   511   501  0.000000000E+00  0.000000000E+00  3.420057161E+02  3.420057161E+02  0.000000000E+00  0.00000E+00  9.000E+00
      21    -1     0     0   501   502  0.000000000E+00  0.000000000E+00 -4.353790779E+02  4.353790779E+02  0.000000000E+00  0.00000E+00  9.000E+00
      25     1     1     2     0     0  9.830255622E+01  2.017395771E+02 -2.992726204E+02  3.943999884E+02  1.250000000E+02  0.00000E+00  9.000E+00
      25     1     1     2     0     0 -1.407771229E+02 -1.681510520E+02  1.154678352E+02  2.775802507E+02  1.250000000E+02  0.00000E+00  9.000E+00
      21     1     1     2   511   502  4.247456670E+01 -3.358852512E+01  9.043142348E+01  1.054045549E+02  0.000000000E+00  0.00000E+00  9.000E+00
#rwgt            1           1   2.8536319279977820E-002           1      147617           0
</event>
<event>
      5   9999  3.19816E-02  5.81482E+01 -1.00000E+00  1.35435E-01
      21    -1     0     0   512   501  0.000000000E+00  0.000000000E+00  7.742102755E+02  7.742102755E+02  0.000000000E+00  0.00000E+00  9.000E+00
      21    -1     0     0   501   502  0.000000000E+00  0.000000000E+00 -2.152259147E+02  2.152259147E+02  0.000000000E+00  0.00000E+00  9.000E+00
      25     1     1     2     0     0 -6.391327841E+01  4.468470762E+01 -1.670331205E+02  2.227256016E+02  1.250000000E+02  0.00000E+00  9.000E+00
      25     1     1     2     0     0  1.220590418E+02 -4.415288220E+01  6.216051908E+02  6.471985011E+02  1.250000000E+02  0.00000E+00  9.000E+00
      21     1     1     2   512   502 -5.814576340E+01 -5.318254111E-01  1.044122905E+02  1.195120875E+02  1.348699152E-06  0.00000E+00  9.000E+00
#rwgt            1           1   2.4637227368525128E-002           1      147693           0
</event>
<event>
      5   9999  3.19816E-02  8.31533E+00 -1.00000E+00  2.05499E-01
      21    -1     0     0   502   501  0.000000000E+00  0.000000000E+00  5.186980389E+02  5.186980389E+02  0.000000000E+00  0.00000E+00  9.000E+00
      21    -1     0     0   511   502  0.000000000E+00  0.000000000E+00 -1.999703455E+03  1.999703455E+03  0.000000000E+00  0.00000E+00  9.000E+00
      25     1     1     2     0     0 -1.469508840E+02 -4.519906734E+02 -1.511960746E+03  1.589824025E+03  1.250000000E+02  0.00000E+00  9.000E+00
      25     1     1     2     0     0  1.412284166E+02  4.580237603E+02  3.518462598E+02  6.075788189E+02  1.250000000E+02  0.00000E+00  9.000E+00
      21     1     1     2   511   501  5.722467382E+00 -6.033086891E+00 -3.208909297E+02  3.209986503E+02  3.814697266E-06  0.00000E+00  9.000E+00
#rwgt            1           1   2.8762816132950262E-002           1      147805           0
</event>
<event>
      5   9999  3.19816E-02  2.84124E+01 -1.00000E+00  1.54698E-01
      21    -1     0     0   502   501  0.000000000E+00  0.000000000E+00  4.730999887E+02  4.730999887E+02  0.000000000E+00  0.00000E+00  9.000E+00
      21    -1     0     0   512   502  0.000000000E+00  0.000000000E+00 -8.927095181E+01  8.927095181E+01  0.000000000E+00  0.00000E+00  9.000E+00
      25     1     1     2     0     0 -1.110625748E+02 -4.782612565E+01  6.979517848E+01  1.873995751E+02  1.250000000E+02  0.00000E+00  9.000E+00
      25     1     1     2     0     0  9.482823049E+01  2.450847496E+01  3.070941424E+02  3.457236916E+02  1.250000000E+02  0.00000E+00  9.000E+00
      21     1     1     2   512   501  1.623434427E+01  2.331765069E+01  6.939716064E+00  2.924767387E+01  5.264139692E-07  0.00000E+00  9.000E+00
#rwgt            1           1   2.9779255884878019E-002           1      148145           0
</event>
<event>
      5   9999  3.19816E-02  1.96093E+02 -1.00000E+00  1.11961E-01
      21    -1     0     0   511   501  0.000000000E+00  0.000000000E+00  6.465542990E+02  6.465542990E+02  0.000000000E+00  0.00000E+00  9.000E+00
      21    -1     0     0   501   502  0.000000000E+00  0.000000000E+00 -5.757482736E+02  5.757482736E+02  0.000000000E+00  0.00000E+00  9.000E+00
      25     1     1     2     0     0  9.890935397E+01 -2.923507937E+02  1.110353230E+02  3.510069655E+02  1.250000000E+02  0.00000E+00  9.000E+00
      25     1     1     2     0     0 -2.876872665E+02  3.454111011E+02 -2.933251302E+02  5.511237829E+02  1.250000000E+02  0.00000E+00  9.000E+00
      21     1     1     2   511   502  1.887779125E+02 -5.306030741E+01  2.530958327E+02  3.201718242E+02  5.394796609E-06  0.00000E+00  9.000E+00
#rwgt            1           1   3.4158937570171501E-002           1      148235           0
</event>
<event>
      5   9999  3.19816E-02  1.22110E+02 -1.00000E+00  1.20048E-01
      21    -1     0     0   502   501  0.000000000E+00  0.000000000E+00  4.212063727E+02  4.212063727E+02  0.000000000E+00  0.00000E+00  9.000E+00
      21    -1     0     0   501   512  0.000000000E+00  0.000000000E+00 -1.345687309E+03  1.345687309E+03  0.000000000E+00  0.00000E+00  9.000E+00
      25     1     1     2     0     0  1.960957994E+02  5.592499598E+02 -2.520211118E+02  6.560135066E+02  1.250000000E+02  0.00000E+00  9.000E+00
      25     1     1     2     0     0 -3.182053117E+02 -5.587613249E+02 -3.029474502E+02  7.217139296E+02  1.250000000E+02  0.00000E+00  9.000E+00
      21     1     1     2   502   512  1.221095123E+02 -4.886349373E-01 -3.695123740E+02  3.891662451E+02  0.000000000E+00  0.00000E+00  9.000E+00
#rwgt            1           1   3.4251146455887678E-002           1      148275           0
</event>
<event>
      5   9999  3.19816E-02  3.52232E+01 -1.00000E+00  1.48351E-01
      21    -1     0     0   502   511  0.000000000E+00  0.000000000E+00  5.314194031E+02  5.314194031E+02  0.000000000E+00  0.00000E+00  9.000E+00
      21    -1     0     0   501   502  0.000000000E+00  0.000000000E+00 -1.724321258E+02  1.724321258E+02  0.000000000E+00  0.00000E+00  9.000E+00
      25     1     1     2     0     0 -1.621538607E+02  1.717374815E+02  2.850263953E+02  3.907079256E+02  1.250000000E+02  0.00000E+00  9.000E+00
      25     1     1     2     0     0  1.843659962E+02 -1.444008140E+02  4.892124306E+01  2.699272192E+02  1.250000000E+02  0.00000E+00  9.000E+00
      21     1     1     2   501   511 -2.221213544E+01 -2.733666744E+01  2.503963892E+01  4.321638421E+01  4.768371582E-07  0.00000E+00  9.000E+00
#rwgt            1           1   2.6473553833857997E-002           1      148396           0
</event>
<event>
      5   9999  3.19816E-02  1.02623E+02 -1.00000E+00  1.23324E-01
       2    -1     0     0   502     0  0.000000000E+00  0.000000000E+00  1.728356682E+03  1.728356682E+03  0.000000000E+00  0.00000E+00  9.000E+00
      21    -1     0     0   501   502  0.000000000E+00  0.000000000E+00 -1.229105078E+02  1.229105078E+02  0.000000000E+00  0.00000E+00  9.000E+00
      25     1     1     2     0     0 -2.703180888E+01  5.723668173E+01  3.759174593E+02  4.011803742E+02  1.250000000E+02  0.00000E+00  9.000E+00
      25     1     1     2     0     0  4.119382610E+01  4.440466730E+01 -6.368660235E+01  1.528060506E+02  1.250000000E+02  0.00000E+00  9.000E+00
       2     1     1     2   501     0 -1.416201722E+01 -1.016413490E+02  1.293215317E+03  1.297280765E+03  1.525878906E-05  0.00000E+00  9.000E+00
#rwgt            1           1   2.4494107041824666E-002           1      148533           0
</event>
<event>
      5   9999  3.19816E-02  1.77246E+02 -1.00000E+00  1.13591E-01
       2    -1     0     0   502     0  0.000000000E+00  0.000000000E+00  1.629364882E+03  1.629364882E+03  0.000000000E+00  0.00000E+00  9.000E+00
      21    -1     0     0   501   502  0.000000000E+00  0.000000000E+00 -2.435360756E+02  2.435360756E+02  0.000000000E+00  0.00000E+00  9.000E+00
      25     1     1     2     0     0  4.096049017E+02 -1.376965891E+02  7.033267403E+01  4.553111147E+02  1.250000000E+02  0.00000E+00  9.000E+00
      25     1     1     2     0     0 -3.232695758E+02 -1.710106989E+01  7.854095911E+02  8.586552807E+02  1.250000000E+02  0.00000E+00  9.000E+00
       2     1     1     2   501     0 -8.633532593E+01  1.547976590E+02  5.300865416E+02  5.589345627E+02  1.078959322E-05  0.00000E+00  9.000E+00
#rwgt            1           1   2.6620083800928854E-002           1      148611           0
</event>
<event>
      5   9999  3.19816E-02  4.85650E+01 -1.00000E+00  1.39801E-01
      21    -1     0     0   502   501  0.000000000E+00  0.000000000E+00  6.797529925E+01  6.797529925E+01  0.000000000E+00  0.00000E+00  9.000E+00
      21    -1     0     0   501   511  0.000000000E+00  0.000000000E+00 -2.155698879E+03  2.155698879E+03  0.000000000E+00  0.00000E+00  9.000E+00
      25     1     1     2     0     0 -1.079060890E+02  1.359657626E+02 -1.324264120E+02  2.515793458E+02  1.250000000E+02  0.00000E+00  9.000E+00
      25     1     1     2     0     0  1.033464776E+02 -8.761529758E+01 -1.799159755E+03  1.808578934E+03  1.250000000E+02  0.00000E+00  9.000E+00
      21     1     1     2   502   511  4.559611403E+00 -4.835046506E+01 -1.561374128E+02  1.635158989E+02  3.303624740E-06  0.00000E+00  9.000E+00
#rwgt            1           1   2.6121042118666529E-002           1      148654           0
</event>
<event>
      5   9999  3.19816E-02  1.70469E+02 -1.00000E+00  1.14234E-01
      21    -1     0     0   512   501  0.000000000E+00  0.000000000E+00  8.471454205E+02  8.471454205E+02  0.000000000E+00  0.00000E+00  9.000E+00
      21    -1     0     0   501   502  0.000000000E+00  0.000000000E+00 -5.273241291E+02  5.273241291E+02  0.000000000E+00  0.00000E+00  9.000E+00
      25     1     1     2     0     0 -3.673828854E+02  2.838847634E+02  1.707885057E+02  5.102494067E+02  1.250000000E+02  0.00000E+00  9.000E+00
      25     1     1     2     0     0  4.620540739E+02 -1.421207138E+02 -1.488307622E+02  5.210257769E+02  1.250000000E+02  0.00000E+00  9.000E+00
      21     1     1     2   512   502 -9.467118844E+01 -1.417640496E+02  2.978635478E+02  3.431943659E+02  0.000000000E+00  0.00000E+00  9.000E+00
#rwgt            2          11   3.4118255411636502E-003           1      148743           0
</event>
<event>
      5   9999  3.19816E-02  2.78190E+02 -1.00000E+00  1.06668E-01
      21    -1     0     0   502   501  0.000000000E+00  0.000000000E+00  1.718348735E+03  1.718348735E+03  0.000000000E+00  0.00000E+00  9.000E+00
       1    -1     0     0   501     0  0.000000000E+00  0.000000000E+00 -1.316861026E+03  1.316861026E+03  0.000000000E+00  0.00000E+00  9.000E+00
      25     1     1     2     0     0 -1.141821822E+02 -5.513307489E+02  4.922126973E+02  7.582225958E+02  1.250000000E+02  0.00000E+00  9.000E+00
      25     1     1     2     0     0  1.616913040E+02  8.254343232E+02  9.057704030E+02  1.242389199E+03  1.250000000E+02  0.00000E+00  9.000E+00
       1     1     1     2   502     0 -4.750912183E+01 -2.741035742E+02 -9.964953911E+02  1.034597966E+03  0.000000000E+00  0.00000E+00  9.000E+00
#rwgt            2          12   1.8311379673345361E-003           1      148808           0
</event>
<event>
      5   9999  3.19816E-02  5.69141E+01 -1.00000E+00  1.35940E-01
      21    -1     0     0   502   511  0.000000000E+00  0.000000000E+00  8.345752160E+02  8.345752160E+02  0.000000000E+00  0.00000E+00  9.000E+00
      21    -1     0     0   501   502  0.000000000E+00  0.000000000E+00 -1.601812909E+02  1.601812909E+02  0.000000000E+00  0.00000E+00  9.000E+00
      25     1     1     2     0     0 -2.898368178E+02  4.157585643E+01  1.535644356E+02  3.534698978E+02  1.250000000E+02  0.00000E+00  9.000E+00
      25     1     1     2     0     0  2.794528730E+02  1.438291587E+01  3.722421694E+02  4.821721780E+02  1.250000000E+02  0.00000E+00  9.000E+00
      21     1     1     2   501   511  1.038394477E+01 -5.595877230E+01  1.485873201E+02  1.591144311E+02  2.697398305E-06  0.00000E+00  9.000E+00
#rwgt            1           1   3.1054387283955737E-002           1      148842           0
</event>
<event>
      5   9999  3.19816E-02  3.56102E+01 -1.00000E+00  1.48042E-01
      21    -1     0     0   502   501  0.000000000E+00  0.000000000E+00  4.278274077E+01  4.278274077E+01  0.000000000E+00  0.00000E+00  9.000E+00
      21    -1     0     0   512   502  0.000000000E+00  0.000000000E+00 -1.150827152E+03  1.150827152E+03  0.000000000E+00  0.00000E+00  9.000E+00
      25     1     1     2     0     0 -9.137396640E+00  7.408231915E+01 -1.923075286E+02  2.412029593E+02  1.250000000E+02  0.00000E+00  9.000E+00
      25     1     1     2     0     0  3.218072270E+01 -1.012317249E+02 -3.609250464E+02  3.964534653E+02  1.250000000E+02  0.00000E+00  9.000E+00
      21     1     1     2   512   501 -2.304332606E+01  2.714940576E+01 -5.548118362E+02  5.559534681E+02  7.629394531E-06  0.00000E+00  9.000E+00
#rwgt            1           1   8.1281016678537057E-002           1      148920           0
</event>
<event>
      5   9999  3.19816E-02  9.95539E+00 -1.00000E+00  1.95982E-01
      21    -1     0     0   502   501  0.000000000E+00  0.000000000E+00  3.437507609E+02  3.437507609E+02  0.000000000E+00  0.00000E+00  9.000E+00
      21    -1     0     0   501   511  0.000000000E+00  0.000000000E+00 -1.129278387E+02  1.129278387E+02  0.000000000E+00  0.00000E+00  9.000E+00
      25     1     1     2     0     0  1.621658731E+01 -9.678520370E+01  2.319380673E+02  2.811594217E+02  1.250000000E+02  0.00000E+00  9.000E+00
      25     1     1     2     0     0 -1.805753959E+01  1.065689034E+02 -3.475148065E+00  1.652878779E+02  1.250000000E+02  0.00000E+00  9.000E+00
      21     1     1     2   502   511  1.840952278E+00 -9.783699731E+00  2.360003074E+00  1.023130003E+01  2.528810911E-07  0.00000E+00  9.000E+00
#rwgt            1           1   2.5932805118394950E-002           1      149015           0
</event>
<event>
      5   9999  3.19816E-02  1.82406E+01 -1.00000E+00  1.69738E-01
      21    -1     0     0   502   501  0.000000000E+00  0.000000000E+00  7.838990870E+02  7.838990870E+02  0.000000000E+00  0.00000E+00  9.000E+00
      21    -1     0     0   512   502  0.000000000E+00  0.000000000E+00 -7.310323613E+01  7.310323613E+01  0.000000000E+00  0.00000E+00  9.000E+00
      25     1     1     2     0     0 -6.962027758E+01 -1.556618953E+02  2.476646753E+02  3.256384500E+02  1.250000000E+02  0.00000E+00  9.000E+00
      25     1     1     2     0     0  5.532837192E+01  1.669960014E+02  4.653812485E+02  5.129849897E+02  1.250000000E+02  0.00000E+00  9.000E+00
      21     1     1     2   512   501  1.429190567E+01 -1.133410608E+01 -2.250072957E+00  1.837888344E+01  3.024605383E-07  0.00000E+00  9.000E+00
#rwgt            1           1   2.7476310516347680E-002           1      149267           0
</event>
<event>
      5   9999  3.19816E-02  1.41022E+02 -1.00000E+00  1.17466E-01
      21    -1     0     0   502   501  0.000000000E+00  0.000000000E+00  5.911481181E+02  5.911481181E+02  0.000000000E+00  0.00000E+00  9.000E+00
      21    -1     0     0   501   511  0.000000000E+00  0.000000000E+00 -4.432254685E+02  4.432254685E+02  0.000000000E+00  0.00000E+00  9.000E+00
      25     1     1     2     0     0  3.382796317E+01  2.005084880E+02  3.780872019E+01  2.416660592E+02  1.250000000E+02  0.00000E+00  9.000E+00
      25     1     1     2     0     0 -9.227105354E+01 -7.216636160E+01  4.192639787E+02  4.529119284E+02  1.250000000E+02  0.00000E+00  9.000E+00
      21     1     1     2   502   511  5.844309037E+01 -1.283421264E+02 -3.091500492E+02  3.397955990E+02  3.814697266E-06  0.00000E+00  9.000E+00
#rwgt            1           1   2.5031902546341470E-002           1      149406           0
</event>
<event>
      5   9999  3.19816E-02  1.77605E+02 -1.00000E+00  1.13558E-01
      -3    -1     0     0     0   501  0.000000000E+00  0.000000000E+00  4.940977660E+02  4.940977660E+02  0.000000000E+00  0.00000E+00  9.000E+00
      21    -1     0     0   501   502  0.000000000E+00  0.000000000E+00 -2.681584524E+02  2.681584524E+02  0.000000000E+00  0.00000E+00  9.000E+00
      25     1     1     2     0     0  1.465031860E+02 -9.690109526E+00 -5.533113761E+01  2.006081168E+02  1.250000000E+02  0.00000E+00  9.000E+00
      25     1     1     2     0     0 -2.095181986E+02 -1.563604856E+02  9.665886557E+01  3.054740796E+02  1.250000000E+02  0.00000E+00  9.000E+00
      -3     1     1     2     0   502  6.301501268E+01  1.660505952E+02  1.846115857E+02  2.561740220E+02  5.394796609E-06  0.00000E+00  9.000E+00
#rwgt            1           1   2.5851730255631637E-002           1      149452           0
</event>
<event>
      5   9999  3.19816E-02  8.43572E+01 -1.00000E+00  1.27245E-01
      21    -1     0     0   511   501  0.000000000E+00  0.000000000E+00  1.123121588E+03  1.123121588E+03  0.000000000E+00  0.00000E+00  9.000E+00
      21    -1     0     0   501   502  0.000000000E+00  0.000000000E+00 -6.023336860E+01  6.023336860E+01  0.000000000E+00  0.00000E+00  9.000E+00
      25     1     1     2     0     0  1.142706315E+02 -4.486437578E+01  2.321639933E+02  2.908534154E+02  1.250000000E+02  0.00000E+00  9.000E+00
      25     1     1     2     0     0 -1.917570809E+02  7.821085305E+01  6.207479345E+02  6.662137148E+02  1.250000000E+02  0.00000E+00  9.000E+00
      21     1     1     2   511   502  7.748644936E+01 -3.334647727E+01  2.099762918E+02  2.262878266E+02  2.697398305E-06  0.00000E+00  9.000E+00
#rwgt            1           1   2.6696563303921689E-002           1      149532           0
</event>
<event>
      5   9999  3.19816E-02  6.83325E+01 -1.00000E+00  1.31753E-01
      21    -1     0     0   512   501  0.000000000E+00  0.000000000E+00  1.399660124E+03  1.399660124E+03  0.000000000E+00  0.00000E+00  9.000E+00
      21    -1     0     0   501   502  0.000000000E+00  0.000000000E+00 -1.464768256E+02  1.464768256E+02  0.000000000E+00  0.00000E+00  9.000E+00
      25     1     1     2     0     0  1.563066262E+02  2.208199382E+02  1.579025491E+02  3.372705464E+02  1.250000000E+02  0.00000E+00  9.000E+00
      25     1     1     2     0     0 -1.185886413E+02 -2.777996535E+02  4.303193113E+02  5.404032041E+02  1.250000000E+02  0.00000E+00  9.000E+00
      21     1     1     2   512   502 -3.771798496E+01  5.697971537E+01  6.649614383E+02  6.684631992E+02  1.525878906E-05  0.00000E+00  9.000E+00
#rwgt            1           1   2.7824715598584408E-002           1      149570           0
</event>
<event>
      5   9999  3.19816E-02  1.36843E+02 -1.00000E+00  1.17996E-01
       2    -1     0     0   502     0  0.000000000E+00  0.000000000E+00  5.705188147E+02  5.705188147E+02  0.000000000E+00  0.00000E+00  9.000E+00
      21    -1     0     0   501   502  0.000000000E+00  0.000000000E+00 -1.953301184E+02  1.953301184E+02  0.000000000E+00  0.00000E+00  9.000E+00
      25     1     1     2     0     0  9.389092593E+00  1.331035191E+02 -5.480294133E+01  1.908744725E+02  1.250000000E+02  0.00000E+00  9.000E+00
      25     1     1     2     0     0 -1.454500078E+02 -1.184946394E+02  1.742731248E+02  2.849435144E+02  1.250000000E+02  0.00000E+00  9.000E+00
       2     1     1     2   501     0  1.360609152E+02 -1.460887974E+01  2.557185128E+02  2.900309463E+02  3.814697266E-06  0.00000E+00  9.000E+00
#rwgt            1           1   2.8502211980441963E-002           1      149621           0
</event>
<event>
      5   9999  3.19816E-02  1.61681E+01 -1.00000E+00  1.74369E-01
      21    -1     0     0   502   501  0.000000000E+00  0.000000000E+00  8.539373973E+01  8.539373973E+01  0.000000000E+00  0.00000E+00  9.000E+00
      21    -1     0     0   501   511  0.000000000E+00  0.000000000E+00 -1.041859221E+03  1.041859221E+03  0.000000000E+00  0.00000E+00  9.000E+00
      25     1     1     2     0     0  2.189733572E+02 -8.043044976E+01 -6.321608834E+02  6.853253030E+02  1.250000000E+02  0.00000E+00  9.000E+00
      25     1     1     2     0     0 -2.128548008E+02  9.539614280E+01 -2.438174522E+02  3.598326559E+02  1.250000000E+02  0.00000E+00  9.000E+00
      21     1     1     2   502   511 -6.118556434E+00 -1.496569304E+01 -8.048714623E+01  8.209500234E+01  1.651812370E-06  0.00000E+00  9.000E+00
#rwgt            1           1   2.7685506669874099E-002           1      149695           0
</event>
<event>
      5   9999  3.19816E-02  8.21208E+01 -1.00000E+00  1.27802E-01
      21    -1     0     0   512   501  0.000000000E+00  0.000000000E+00  6.242514309E+02  6.242514309E+02  0.000000000E+00  0.00000E+00  9.000E+00
      21    -1     0     0   501   502  0.000000000E+00  0.000000000E+00 -6.409030172E+02  6.409030172E+02  0.000000000E+00  0.00000E+00  9.000E+00
      25     1     1     2     0     0 -3.366431600E+02  5.152006094E+02 -1.250001158E+01  6.281254138E+02  1.250000000E+02  0.00000E+00  9.000E+00
      25     1     1     2     0     0  2.742713024E+02 -4.617817126E+02 -2.597844773E+01  5.520570416E+02  1.250000000E+02  0.00000E+00  9.000E+00
      21     1     1     2   512   502  6.237185761E+01 -5.341889682E+01  2.182687306E+01  8.497199272E+01  9.830249847E-07  0.00000E+00  9.000E+00
#rwgt            1           1   3.2229785651693696E-002           1      149901           0
</event>
<event>
      5   9999  3.19816E-02  2.67122E+02 -1.00000E+00  1.07256E-01
      21    -1     0     0   511   501  0.000000000E+00  0.000000000E+00  1.406709415E+03  1.406709415E+03  0.000000000E+00  0.00000E+00  9.000E+00
      21    -1     0     0   501   502  0.000000000E+00  0.000000000E+00 -9.525349738E+02  9.525349738E+02  0.000000000E+00  0.00000E+00  9.000E+00
      25     1     1     2     0     0 -6.494449753E+02 -1.019908305E+02 -3.941502224E+02  7.766339571E+02  1.250000000E+02  0.00000E+00  9.000E+00
      25     1     1     2     0     0  8.792154433E+02 -3.424323644E+01  2.435724529E+02  9.214906048E+02  1.250000000E+02  0.00000E+00  9.000E+00
      21     1     1     2   511   502 -2.297704679E+02  1.362340669E+02  6.047522104E+02  6.611198264E+02  7.629394531E-06  0.00000E+00  9.000E+00
#rwgt            1           1   3.0409485387498405E-002           1      150026           0
</event>
<event>
      5   9999  3.19816E-02  1.37203E+03 -1.00000E+00  8.78108E-02
      21    -1     0     0   512   501  0.000000000E+00  0.000000000E+00  1.674458660E+03  1.674458660E+03  0.000000000E+00  0.00000E+00  9.000E+00
      21    -1     0     0   501   502  0.000000000E+00  0.000000000E+00 -1.258699191E+03  1.258699191E+03  0.000000000E+00  0.00000E+00  9.000E+00
      25     1     1     2     0     0  5.290256958E+02 -8.772693330E+02 -1.588646197E+02  1.044189943E+03  1.250000000E+02  0.00000E+00  9.000E+00
      25     1     1     2     0     0  3.636042824E+02 -1.646874139E+02  2.164307256E+02  4.709535831E+02  1.250000000E+02  0.00000E+00  9.000E+00
      21     1     1     2   512   502 -8.926299782E+02  1.041956747E+03  3.581933625E+02  1.418014325E+03  2.530383904E-05  0.00000E+00  9.000E+00
#rwgt            2          11   8.1910855887492066E-004           1      150130           0
</event>
<event>
      5   9999  3.19816E-02  1.37900E+02 -1.00000E+00  1.17860E-01
      21    -1     0     0   502   501  0.000000000E+00  0.000000000E+00  7.397035526E+01  7.397035526E+01  0.000000000E+00  0.00000E+00  9.000E+00
      21    -1     0     0   501   511  0.000000000E+00  0.000000000E+00 -1.255835728E+03  1.255835728E+03  0.000000000E+00  0.00000E+00  9.000E+00
      25     1     1     2     0     0 -1.750530465E+02 -1.695067178E+02 -5.584411057E+02  6.219787497E+02  1.250000000E+02  0.00000E+00  9.000E+00
      25     1     1     2     0     0  4.898703975E+01  1.136168719E+02 -2.210754082E+02  2.825028491E+02  1.250000000E+02  0.00000E+00  9.000E+00
      21     1     1     2   502   511  1.260660067E+02  5.588984592E+01 -4.023488592E+02  4.253244848E+02  5.394796609E-06  0.00000E+00  9.000E+00
#rwgt            1           1   2.9655003981937274E-002           1      150150           0
</event>
<event>
      5   9999  3.19816E-02  1.23329E+02 -1.00000E+00  1.19866E-01
      21    -1     0     0   512   501  0.000000000E+00  0.000000000E+00  5.517821907E+02  5.517821907E+02  0.000000000E+00  0.00000E+00  9.000E+00
      21    -1     0     0   501   502  0.000000000E+00  0.000000000E+00 -4.267527849E+02  4.267527849E+02  0.000000000E+00  0.00000E+00  9.000E+00
      25     1     1     2     0     0 -2.071129083E+02  1.102515018E+02 -2.559327341E+02  3.690226481E+02  1.250000000E+02  0.00000E+00  9.000E+00
      25     1     1     2     0     0  2.325401086E+02 -2.309310228E+02  3.038313816E+02  4.640501566E+02  1.250000000E+02  0.00000E+00  9.000E+00
      21     1     1     2   512   502 -2.542720031E+01  1.206795209E+02  7.713075838E+01  1.454621710E+02  3.162979880E-06  0.00000E+00  9.000E+00
#rwgt            1           1   2.8811326177664746E-002           1      150186           0
</event>
<event>
      5   9999  3.19816E-02  1.60290E+01 -1.00000E+00  1.74711E-01
      21    -1     0     0   502   511  0.000000000E+00  0.000000000E+00  3.367920776E+02  3.367920776E+02  0.000000000E+00  0.00000E+00  9.000E+00
      21    -1     0     0   501   502  0.000000000E+00  0.000000000E+00 -2.377026781E+03  2.377026781E+03  0.000000000E+00  0.00000E+00  9.000E+00
      25     1     1     2     0     0 -1.251385721E+02  1.573085145E+02 -1.770656163E+03  1.786408094E+03  1.250000000E+02  0.00000E+00  9.000E+00
      25     1     1     2     0     0  1.346945944E+02 -1.701774589E+02 -5.720707598E+02  6.244941597E+02  1.250000000E+02  0.00000E+00  9.000E+00
      21     1     1     2   501   511 -9.556022290E+00  1.286894436E+01  3.024922189E+02  3.029166054E+02  7.629394531E-06  0.00000E+00  9.000E+00
#rwgt            1           1   6.4417233363686502E-002           1      150246           0
</event>
<event>
      5   9999  3.19816E-02  1.31849E+01 -1.00000E+00  1.82828E-01
      21    -1     0     0   502   501  0.000000000E+00  0.000000000E+00  1.190290752E+02  1.190290752E+02  0.000000000E+00  0.00000E+00  9.000E+00
      21    -1     0     0   501   512  0.000000000E+00  0.000000000E+00 -8.351906621E+02  8.351906621E+02  0.000000000E+00  0.00000E+00  9.000E+00
      25     1     1     2     0     0  2.871571573E+02 -1.462008283E+00 -3.297693851E+02  4.547903009E+02  1.250000000E+02  0.00000E+00  9.000E+00
      25     1     1     2     0     0 -2.741741206E+02 -8.364242757E-01 -3.566836959E+02  4.669265541E+02  1.250000000E+02  0.00000E+00  9.000E+00
      21     1     1     2   502   512 -1.298303670E+01  2.298432559E+00 -2.970850601E+01  3.250288239E+01  4.768371582E-07  0.00000E+00  9.000E+00
#rwgt            1           1   2.6833196317645861E-002           1      150476           0
</event>
<event>
      5   9999  3.19816E-02  1.94068E+02 -1.00000E+00  1.12126E-01
      21    -1     0     0   502   511  0.000000000E+00  0.000000000E+00  4.328709292E+02  4.328709292E+02  0.000000000E+00  0.00000E+00  9.000E+00
      21    -1     0     0   501   502  0.000000000E+00  0.000000000E+00 -2.250557735E+02  2.250557735E+02  0.000000000E+00  0.00000E+00  9.000E+00
      25     1     1     2     0     0  2.352305392E+02  2.600849019E+01  2.486472094E+01  2.687993722E+02  1.250000000E+02  0.00000E+00  9.000E+00
      25     1     1     2     0     0 -5.696938732E+01  5.070745595E+01  5.374010267E+01  1.559799853E+02  1.250000000E+02  0.00000E+00  9.000E+00
      21     1     1     2   501   511 -1.782611519E+02 -7.671594614E+01  1.292103321E+02  2.331473452E+02  4.264961200E-06  0.00000E+00  9.000E+00
#rwgt            1           1   2.8066725599290708E-002           1      150646           0
</event>
<event>
      5   9999  3.19816E-02  1.22844E+01 -1.00000E+00  1.85965E-01
      21    -1     0     0   502   512  0.000000000E+00  0.000000000E+00  4.283960416E+02  4.283960416E+02  0.000000000E+00  0.00000E+00  9.000E+00
      21    -1     0     0   501   502  0.000000000E+00  0.000000000E+00 -3.166040032E+02  3.166040032E+02  0.000000000E+00  0.00000E+00  9.000E+00
      25     1     1     2     0     0 -2.998039320E+02  1.709762867E+02  4.019863126E+01  3.692644286E+02  1.250000000E+02  0.00000E+00  9.000E+00
      25     1     1     2     0     0  2.884506703E+02 -1.662847499E+02  6.416974582E+01  3.613822955E+02  1.250000000E+02  0.00000E+00  9.000E+00
      21     1     1     2   501   512  1.135326174E+01 -4.691536785E+00  7.423661286E+00  1.435332074E+01  3.153981341E-07  0.00000E+00  9.000E+00
#rwgt            1           1   2.7562903602324218E-002           1      150686           0
</event>
<event>
      5   9999  3.19816E-02  1.96576E+02 -1.00000E+00  1.11922E-01
      21    -1     0     0   502   511  0.000000000E+00  0.000000000E+00  1.149796318E+03  1.149796318E+03  0.000000000E+00  0.00000E+00  9.000E+00
      21    -1     0     0   501   502  0.000000000E+00  0.000000000E+00 -6.515615858E+02  6.515615858E+02  0.000000000E+00  0.00000E+00  9.000E+00
      25     1     1     2     0     0  7.790552292E+02 -3.271241252E+02  3.445631461E+02  9.210244324E+02  1.250000000E+02  0.00000E+00  9.000E+00
      25     1     1     2     0     0 -5.848337331E+02  2.967906109E+02  8.984955894E+01  6.736565188E+02  1.250000000E+02  0.00000E+00  9.000E+00
      21     1     1     2   501   511 -1.942214961E+02  3.033351435E+01  6.382202719E+01  2.066769527E+02  2.861022949E-06  0.00000E+00  9.000E+00
#rwgt            1           1   2.6023540661513089E-002           1      150948           0
</event>
<event>
      5   9999  3.19816E-02  2.59916E+02 -1.00000E+00  1.07656E-01
      21    -1     0     0   502   501  0.000000000E+00  0.000000000E+00  2.402784799E+03  2.402784799E+03  0.000000000E+00  0.00000E+00  9.000E+00
      21    -1     0     0   512   502  0.000000000E+00  0.000000000E+00 -4.983982674E+02  4.983982674E+02  0.000000000E+00  0.00000E+00  9.000E+00
      25     1     1     2     0     0  3.766561353E+02  3.634923491E+02  1.463436851E+03  1.559252689E+03  1.250000000E+02  0.00000E+00  9.000E+00
      25     1     1     2     0     0 -1.273612110E+02 -2.899523116E+02  8.168253524E+02  8.849417367E+02  1.250000000E+02  0.00000E+00  9.000E+00
      21     1     1     2   512   501 -2.492949244E+02 -7.354003747E+01 -3.758756720E+02  4.569886402E+02  1.427329020E-05  0.00000E+00  9.000E+00
#rwgt            2          11   3.2519290096131845E-002           1      151034           0
</event>
<event>
      5   9999  3.19816E-02  2.60679E+01 -1.00000E+00  1.57402E-01
      21    -1     0     0   511   501  0.000000000E+00  0.000000000E+00  1.032880402E+03  1.032880402E+03  0.000000000E+00  0.00000E+00  9.000E+00
      21    -1     0     0   501   502  0.000000000E+00  0.000000000E+00 -8.146610667E+02  8.146610667E+02  0.000000000E+00  0.00000E+00  9.000E+00
      25     1     1     2     0     0  1.133391137E+02 -6.803553855E+01 -6.267876277E+02  6.526578885E+02  1.250000000E+02  0.00000E+00  9.000E+00
      25     1     1     2     0     0 -1.390427488E+02  6.369267998E+01 -1.189510300E+02  2.305731793E+02  1.250000000E+02  0.00000E+00  9.000E+00
      21     1     1     2   511   502  2.570363508E+01  4.342858571E+00  9.639579933E+02  9.643104013E+02  1.525878906E-05  0.00000E+00  9.000E+00
#rwgt            1           1   2.6237735824747761E-002           1      151054           0
</event>
<event>
      5   9999  3.19816E-02  6.12768E+00 -1.00000E+00  2.24061E-01
      21    -1     0     0   502   512  0.000000000E+00  0.000000000E+00  1.498820739E+02  1.498820739E+02  0.000000000E+00  0.00000E+00  9.000E+00
      21    -1     0     0   501   502  0.000000000E+00  0.000000000E+00 -9.875336070E+02  9.875336070E+02  0.000000000E+00  0.00000E+00  9.000E+00
      25     1     1     2     0     0  7.738425448E+01  1.200005412E+02 -1.379442098E+01  1.902728010E+02  1.250000000E+02  0.00000E+00  9.000E+00
      25     1     1     2     0     0 -7.242677548E+01 -1.236021823E+02 -8.751098163E+02  8.955251687E+02  1.250000000E+02  0.00000E+00  9.000E+00
      21     1     1     2   501   512 -4.957478997E+00  3.601641119E+00  5.125270425E+01  5.161771121E+01  9.536743164E-07  0.00000E+00  9.000E+00
#rwgt            1           1   2.5024704572343605E-002           1      151158           0
</event>
<event>
      5   9999  3.19816E-02  3.05339E+01 -1.00000E+00  1.52510E-01
      21    -1     0     0   511   501  0.000000000E+00  0.000000000E+00  2.042824022E+03  2.042824022E+03  0.000000000E+00  0.00000E+00  9.000E+00
      21    -1     0     0   501   502  0.000000000E+00  0.000000000E+00 -3.151560795E+02  3.151560795E+02  0.000000000E+00  0.00000E+00  9.000E+00
      25     1     1     2     0     0 -3.479637943E+01  4.459770409E+02  1.718750036E+03  1.780402481E+03  1.250000000E+02  0.00000E+00  9.000E+00
      25     1     1     2     0     0  5.017390156E+01 -4.723560428E+02 -6.701505987E+01  4.957354837E+02  1.250000000E+02  0.00000E+00  9.000E+00
      21     1     1     2   511   502 -1.537752213E+01  2.637900190E+01  7.593296630E+01  8.184213645E+01  0.000000000E+00  0.00000E+00  9.000E+00
#rwgt            1           1   3.0609527923677628E-002           1      151419           0
</event>
<event>
      5   9999  3.19816E-02  2.11753E+02 -1.00000E+00  1.10753E-01
      21    -1     0     0   502   501  0.000000000E+00  0.000000000E+00  1.054595149E+03  1.054595149E+03  0.000000000E+00  0.00000E+00  9.000E+00
       2    -1     0     0   501     0  0.000000000E+00  0.000000000E+00 -7.756182559E+02  7.756182559E+02  0.000000000E+00  0.00000E+00  9.000E+00
      25     1     1     2     0     0 -4.851750736E+02  4.625140174E+02  1.961900274E+02  7.095277268E+02  1.250000000E+02  0.00000E+00  9.000E+00
      25     1     1     2     0     0  3.111054374E+02 -5.830924301E+02  3.670302157E+02  7.662372703E+02  1.250000000E+02  0.00000E+00  9.000E+00
       2     1     1     2   502     0  1.740696363E+02  1.205784127E+02 -2.842433499E+02  3.544484079E+02  6.607249480E-06  0.00000E+00  9.000E+00
#rwgt            1           1   2.6600931350323091E-002           1      151609           0
</event>
<event>
      5   9999  3.19816E-02  2.35558E+01 -1.00000E+00  1.60711E-01
      21    -1     0     0   502   501  0.000000000E+00  0.000000000E+00  3.426995268E+02  3.426995268E+02  0.000000000E+00  0.00000E+00  9.000E+00
      21    -1     0     0   501   511  0.000000000E+00  0.000000000E+00 -2.096231853E+02  2.096231853E+02  0.000000000E+00  0.00000E+00  9.000E+00
      25     1     1     2     0     0 -9.721082249E+01  6.435966878E+01  1.675719523E+02  2.393688998E+02  1.250000000E+02  0.00000E+00  9.000E+00
      25     1     1     2     0     0  1.172654560E+02 -7.671638529E+01  7.407064760E+01  2.018614668E+02  1.250000000E+02  0.00000E+00  9.000E+00
      21     1     1     2   502   511 -2.005463355E+01  1.235671651E+01 -1.085662584E+02  1.110923455E+02  0.000000000E+00  0.00000E+00  9.000E+00
#rwgt            1           1   2.6858016135210116E-002           1      151685           0
</event>
<event>
      5   9999  3.19816E-02  4.09324E+01 -1.00000E+00  1.44222E-01
      21    -1     0     0   502   501  0.000000000E+00  0.000000000E+00  4.632367600E+02  4.632367600E+02  0.000000000E+00  0.00000E+00  9.000E+00
      21    -1     0     0   512   502  0.000000000E+00  0.000000000E+00 -1.607584583E+03  1.607584583E+03  0.000000000E+00  0.00000E+00  9.000E+00
      25     1     1     2     0     0 -2.811676733E+02 -1.214192883E+02 -6.210604956E+01  3.365710407E+02  1.250000000E+02  0.00000E+00  9.000E+00
      25     1     1     2     0     0  3.080841940E+02  1.522569085E+02  2.230354265E+02  4.283314584E+02  1.250000000E+02  0.00000E+00  9.000E+00
      21     1     1     2   512   501 -2.691652071E+01 -3.083762024E+01 -1.305277200E+03  1.305918843E+03  1.525878906E-05  0.00000E+00  9.000E+00
#rwgt            1           1   2.4136500466076571E-002           1      151826           0
</event>
<event>
      5   9999  3.19816E-02  1.06956E+02 -1.00000E+00  1.22529E-01
      21    -1     0     0   502   501  0.000000000E+00  0.000000000E+00  1.609945593E+03  1.609945593E+03  0.000000000E+00  0.00000E+00  9.000E+00
       1    -1     0     0   501     0  0.000000000E+00  0.000000000E+00 -9.579542523E+02  9.579542523E+02  0.000000000E+00  0.00000E+00  9.000E+00
      25     1     1     2     0     0 -1.846040413E+02  9.267243227E+01  1.552951330E+03  1.571607351E+03  1.250000000E+02  0.00000E+00  9.000E+00
      25     1     1     2     0     0  1.158406586E+02 -1.075126989E+01 -8.676146812E+02  8.842595112E+02  1.250000000E+02  0.00000E+00  9.000E+00
       1     1     1     2   502     0  6.876338267E+01 -8.192116237E+01 -3.334530853E+01  1.120329828E+02  2.078484985E-06  0.00000E+00  9.000E+00
#rwgt            1           1   5.7755972666459807E-002           1      151932           0
</event>
<event>
      5   9999  3.19816E-02  2.90401E+02 -1.00000E+00  1.06053E-01
       1    -1     0     0   502     0  0.000000000E+00  0.000000000E+00  9.994784672E+02  9.994784672E+02  0.000000000E+00  0.00000E+00  9.000E+00
      21    -1     0     0   501   502  0.000000000E+00  0.000000000E+00 -8.992295862E+02  8.992295862E+02  0.000000000E+00  0.00000E+00  9.000E+00
      25     1     1     2     0     0 -2.616795911E+02 -6.635486017E+02 -3.687990625E+01  7.250917754E+02  1.250000000E+02  0.00000E+00  9.000E+00
      25     1     1     2     0     0  4.294805502E+01  8.545709587E+02  3.384232069E+01  8.653937610E+02  1.250000000E+02  0.00000E+00  9.000E+00
       1     1     1     2   501     0  2.187315361E+02 -1.910223570E+02  1.032864666E+02  3.082225169E+02  4.473129043E-06  0.00000E+00  9.000E+00
#rwgt            2          17   3.0128578607612622E-004           1      152106           0
</event>
<event>
      5   9999  3.19816E-02  1.25528E+02 -1.00000E+00  1.19544E-01
       2    -1     0     0   502     0  0.000000000E+00  0.000000000E+00  1.871448666E+03  1.871448666E+03  0.000000000E+00  0.00000E+00  9.000E+00
      21    -1     0     0   501   502  0.000000000E+00  0.000000000E+00 -3.395742336E+02  3.395742336E+02  0.000000000E+00  0.00000E+00  9.000E+00
      25     1     1     2     0     0 -3.380081187E+02  1.726060852E+02  1.532080531E+02  4.279486611E+02  1.250000000E+02  0.00000E+00  9.000E+00
      25     1     1     2     0     0  2.127312079E+02 -1.646781743E+02 -8.926544145E+01  3.097850657E+02  1.250000000E+02  0.00000E+00  9.000E+00
       2     1     1     2   501     0  1.252769109E+02 -7.927910842E+00  1.467931821E+03  1.473289173E+03  2.157918644E-05  0.00000E+00  9.000E+00
#rwgt            1           1   2.8069919136072655E-002           1      152125           0
</event>
<event>
      5   9999  3.19816E-02  1.20779E+01 -1.00000E+00  1.86733E-01
      21    -1     0     0   502   501  0.000000000E+00  0.000000000E+00  2.942347774E+02  2.942347774E+02  0.000000000E+00  0.00000E+00  9.000E+00
      21    -1     0     0   511   502  0.000000000E+00  0.000000000E+00 -1.622334651E+02  1.622334651E+02  0.000000000E+00  0.00000E+00  9.000E+00
      25     1     1     2     0     0  1.053195154E+02  1.250276374E+02  5.793889092E+01  2.137896759E+02  1.250000000E+02  0.00000E+00  9.000E+00
      25     1     1     2     0     0 -9.339002122E+01 -1.269150316E+02  9.190306416E+01  2.211341098E+02  1.250000000E+02  0.00000E+00  9.000E+00
      21     1     1     2   511   501 -1.192949419E+01  1.887394117E+00 -1.784064271E+01  2.154445684E+01  3.371747881E-07  0.00000E+00  9.000E+00
#rwgt            1           1   2.8666924678761623E-002           1      152197           0
</event>
<event>
      5   9999  3.19816E-02  1.82678E+02 -1.00000E+00  1.13099E-01
      21    -1     0     0   502   501  0.000000000E+00  0.000000000E+00  2.181635782E+02  2.181635782E+02  0.000000000E+00  0.00000E+00  9.000E+00
       1    -1     0     0   501     0  0.000000000E+00  0.000000000E+00 -2.339248279E+03  2.339248279E+03  0.000000000E+00  0.00000E+00  9.000E+00
      25     1     1     2     0     0  3.413653319E+02 -7.395263988E+00 -2.034563605E+03  2.066799226E+03  1.250000000E+02  0.00000E+00  9.000E+00
      25     1     1     2     0     0 -1.653108914E+02 -4.135027133E+01  9.623216710E+01  2.322136209E+02  1.250000000E+02  0.00000E+00  9.000E+00
       1     1     1     2   502     0 -1.760544405E+02  4.874553532E+01 -1.827532631E+02  2.583990101E+02  5.394796609E-06  0.00000E+00  9.000E+00
#rwgt            2          12   3.9951169381274252E-004           1      152367           0
</event>
<event>
      5   9999  3.19816E-02  1.56506E+02 -1.00000E+00  1.15668E-01
      21    -1     0     0   502   501  0.000000000E+00  0.000000000E+00  2.277509678E+02  2.277509678E+02  0.000000000E+00  0.00000E+00  9.000E+00
      21    -1     0     0   511   502  0.000000000E+00  0.000000000E+00 -1.711943559E+03  1.711943559E+03  0.000000000E+00  0.00000E+00  9.000E+00
      25     1     1     2     0     0 -3.347841725E+02 -3.057615007E+02 -2.320125561E+02  5.244286068E+02  1.250000000E+02  0.00000E+00  9.000E+00
      25     1     1     2     0     0  2.173165477E+02  4.091798033E+02 -7.601807785E+02  8.989740871E+02  1.250000000E+02  0.00000E+00  9.000E+00
      21     1     1     2   511   501  1.174676248E+02 -1.034183026E+02 -4.919992566E+02  5.162918329E+02  5.394796609E-06  0.00000E+00  9.000E+00
#rwgt            1           1   1.8962374715860576E-002           1      152401           0
</event>
<event>
      5   9999  3.19816E-02  1.79425E+02 -1.00000E+00  1.13392E-01
      21    -1     0     0   502   501  0.000000000E+00  0.000000000E+00  1.719998935E+03  1.719998935E+03  0.000000000E+00  0.00000E+00  9.000E+00
      21    -1     0     0   501   512  0.000000000E+00  0.000000000E+00 -3.487226278E+02  3.487226278E+02  0.000000000E+00  0.00000E+00  9.000E+00
      25     1     1     2     0     0 -6.115742594E+02 -3.709649136E+02  8.969579382E+02  1.154034915E+03  1.250000000E+02  0.00000E+00  9.000E+00
      25     1     1     2     0     0  4.576790911E+02  2.787167752E+02  4.870037405E+02  7.348134692E+02  1.250000000E+02  0.00000E+00  9.000E+00
      21     1     1     2   502   512  1.538951684E+02  9.224813839E+01 -1.268537122E+01  1.798731790E+02  2.617180157E-06  0.00000E+00  9.000E+00
#rwgt            1           1   3.0127185717721439E-002           1      152461           0
</event>
<event>
      5   9999  3.19816E-02  4.29309E+01 -1.00000E+00  1.42961E-01
       2    -1     0     0   502     0  0.000000000E+00  0.000000000E+00  1.727586496E+03  1.727586496E+03  0.000000000E+00  0.00000E+00  9.000E+00
      21    -1     0     0   501   502  0.000000000E+00  0.000000000E+00 -1.414297395E+03  1.414297395E+03  0.000000000E+00  0.00000E+00  9.000E+00
      25     1     1     2     0     0  2.939865057E+02 -1.019464096E+02 -9.509061440E+02  1.008299871E+03  1.250000000E+02  0.00000E+00  9.000E+00
      25     1     1     2     0     0 -3.312399231E+02  8.060984307E+01 -3.585359242E+02  5.102850599E+02  1.250000000E+02  0.00000E+00  9.000E+00
       2     1     1     2   501     0  3.725341736E+01  2.133656656E+01  1.622731169E+03  1.623298960E+03  0.000000000E+00  0.00000E+00  9.000E+00
#rwgt            1           1   3.6428066963628811E-002           1      152522           0
</event>
<event>
      5   9999  3.19816E-02  5.91726E+01 -1.00000E+00  1.35026E-01
      21    -1     0     0   511   501  0.000000000E+00  0.000000000E+00  3.172950022E+02  3.172950022E+02  0.000000000E+00  0.00000E+00  9.000E+00
      21    -1     0     0   501   502  0.000000000E+00  0.000000000E+00 -1.078269685E+03  1.078269685E+03  0.000000000E+00  0.00000E+00  9.000E+00
      25     1     1     2     0     0  1.837764250E+02  1.817984929E+02 -9.692123880E+02  1.010852175E+03  1.250000000E+02  0.00000E+00  9.000E+00
      25     1     1     2     0     0 -1.246164564E+02 -1.830210331E+02  2.029014282E+02  3.252997838E+02  1.250000000E+02  0.00000E+00  9.000E+00
      21     1     1     2   511   502 -5.915996859E+01  1.222540230E+00  5.336276783E+00  5.941272875E+01  4.380028980E-07  0.00000E+00  9.000E+00
#rwgt            1           1   2.9799102230151517E-002           1      152637           0
</event>
<event>
      5   9999  3.19816E-02  6.40300E+02 -1.00000E+00  9.58934E-02
       1    -1     0     0   502     0  0.000000000E+00  0.000000000E+00  2.215310323E+03  2.215310323E+03  0.000000000E+00  0.00000E+00  9.000E+00
      21    -1     0     0   501   502  0.000000000E+00  0.000000000E+00 -4.351087395E+02  4.351087395E+02  0.000000000E+00  0.00000E+00  9.000E+00
      25     1     1     2     0     0  2.042476605E+01 -2.828407074E+02  7.994610252E+01  3.200506462E+02  1.250000000E+02  0.00000E+00  9.000E+00
      25     1     1     2     0     0  6.189738791E+02  3.167944998E+02  2.575559191E+02  7.519624123E+02  1.250000000E+02  0.00000E+00  9.000E+00
       1     1     1     2   501     0 -6.393986451E+02 -3.395379240E+01  1.442699562E+03  1.578406004E+03  1.525878906E-05  0.00000E+00  9.000E+00
#rwgt            2          17   5.1983732795599688E-004           1      152809           0
</event>
<event>
      5   9999  3.19816E-02  3.84276E+01 -1.00000E+00  1.45929E-01
      21    -1     0     0   502   501  0.000000000E+00  0.000000000E+00  5.950383549E+02  5.950383549E+02  0.000000000E+00  0.00000E+00  9.000E+00
      21    -1     0     0   501   511  0.000000000E+00  0.000000000E+00 -3.684110138E+02  3.684110138E+02  0.000000000E+00  0.00000E+00  9.000E+00
      25     1     1     2     0     0 -1.218174439E+02  5.336445368E+01  3.940799211E+02  4.342939544E+02  1.250000000E+02  0.00000E+00  9.000E+00
      25     1     1     2     0     0  1.264714856E+02 -9.150919059E+01  1.239158211E+02  2.352638930E+02  1.250000000E+02  0.00000E+00  9.000E+00
      21     1     1     2   502   511 -4.654041646E+00  3.814473691E+01 -2.913684012E+02  2.938915212E+02  0.000000000E+00  0.00000E+00  9.000E+00
#rwgt            1           1   2.9937487625146995E-002           1      152828           0
</event>
<event>
      5   9999  3.19816E-02  6.15985E+01 -1.00000E+00  1.34096E-01
      21    -1     0     0   502   512  0.000000000E+00  0.000000000E+00  3.217113128E+02  3.217113128E+02  0.000000000E+00  0.00000E+00  9.000E+00
      21    -1     0     0   501   502  0.000000000E+00  0.000000000E+00 -2.829328244E+02  2.829328244E+02  0.000000000E+00  0.00000E+00  9.000E+00
      25     1     1     2     0     0 -4.655963723E+01  1.053655908E+02 -2.109028531E+02  2.708776864E+02  1.250000000E+02  0.00000E+00  9.000E+00
      25     1     1     2     0     0  3.948789478E+01 -4.417441561E+01  2.312553081E+02  2.694711309E+02  1.250000000E+02  0.00000E+00  9.000E+00
      21     1     1     2   501   512  7.071742451E+00 -6.119117518E+01  1.842603341E+01  6.429531996E+01  6.743495762E-07  0.00000E+00  9.000E+00
#rwgt            1           1   2.6683843555531106E-002           1      152956           0
</event>
<event>
      5   9999  3.19816E-02  8.00218E+00 -1.00000E+00  2.07655E-01
      21    -1     0     0   502   501  0.000000000E+00  0.000000000E+00  3.102391418E+02  3.102391418E+02  0.000000000E+00  0.00000E+00  9.000E+00
      21    -1     0     0   511   502  0.000000000E+00  0.000000000E+00 -9.062229154E+02  9.062229154E+02  0.000000000E+00  0.00000E+00  9.000E+00
      25     1     1     2     0     0 -1.381327492E+02  1.829530898E+02 -7.569265273E+02  8.006967323E+02  1.250000000E+02  0.00000E+00  9.000E+00
      25     1     1     2     0     0  1.317724079E+02 -1.780970666E+02  2.319849027E+02  3.442739138E+02  1.250000000E+02  0.00000E+00  9.000E+00
      21     1     1     2   511   501  6.360341314E+00 -4.856023208E+00 -7.104214908E+01  7.149141102E+01  0.000000000E+00  0.00000E+00  9.000E+00
#rwgt            1           1   3.0200230478946835E-002           1      153042           0
</event>
<event>
      5   9999  3.19816E-02  1.06887E+01 -1.00000E+00  1.92472E-01
      21    -1     0     0   502   501  0.000000000E+00  0.000000000E+00  8.172953636E+02  8.172953636E+02  0.000000000E+00  0.00000E+00  9.000E+00
      21    -1     0     0   501   512  0.000000000E+00  0.000000000E+00 -5.514119590E+01  5.514119590E+01  0.000000000E+00  0.00000E+00  9.000E+00
      25     1     1     2     0     0  2.246984131E+01 -4.001835607E+00  6.854120607E+02  6.970908129E+02  1.250000000E+02  0.00000E+00  9.000E+00
      25     1     1     2     0     0 -3.217724064E+01  8.475563801E+00  9.054049768E+01  1.578917088E+02  1.250000000E+02  0.00000E+00  9.000E+00
      21     1     1     2   502   512  9.707399325E+00 -4.473728194E+00 -1.379839074E+01  1.745403772E+01  7.152557373E-07  0.00000E+00  9.000E+00
#rwgt            1           1   3.4684707589237522E-002           1      153396           0
</event>
<event>
      5   9999  3.19816E-02  4.70927E+01 -1.00000E+00  1.40576E-01
      21    -1     0     0   502   511  0.000000000E+00  0.000000000E+00  2.633106112E+02  2.633106112E+02  0.000000000E+00  0.00000E+00  9.000E+00
      21    -1     0     0   501   502  0.000000000E+00  0.000000000E+00 -2.844657503E+02  2.844657503E+02  0.000000000E+00  0.00000E+00  9.000E+00
      25     1     1     2     0     0 -1.090239756E+02 -1.354075120E+01 -1.766391474E+02  2.426849142E+02  1.250000000E+02  0.00000E+00  9.000E+00
      25     1     1     2     0     0  1.561021048E+02  1.471209205E+01  7.952015312E+01  2.157145510E+02  1.250000000E+02  0.00000E+00  9.000E+00
      21     1     1     2   501   511 -4.707812923E+01 -1.171340853E+00  7.596385519E+01  8.937689627E+01  9.536743164E-07  0.00000E+00  9.000E+00
#rwgt            1           1   2.9816034501151709E-002           1      153596           0
</event>
<event>
      5   9999  3.19816E-02  2.64312E+01 -1.00000E+00  1.56961E-01
      21    -1     0     0   512   501  0.000000000E+00  0.000000000E+00  1.451604980E+02  1.451604980E+02  0.000000000E+00  0.00000E+00  9.000E+00
      21    -1     0     0   501   502  0.000000000E+00  0.000000000E+00 -4.163242185E+02  4.163242185E+02  0.000000000E+00  0.00000E+00  9.000E+00
      25     1     1     2     0     0 -4.323878012E+01 -1.870699251E+01 -6.530087843E+01  1.486901086E+02  1.250000000E+02  0.00000E+00  9.000E+00
      25     1     1     2     0     0  6.366806191E+01  3.547760940E+01 -2.902752469E+02  3.243408729E+02  1.250000000E+02  0.00000E+00  9.000E+00
      21     1     1     2   512   502 -2.042928179E+01 -1.677061689E+01  8.441240478E+01  8.845373495E+01  9.536743164E-07  0.00000E+00  9.000E+00
#rwgt            2          11   2.3143184412494507E-003           1      153715           0
</event>
<event>
      5   9999  3.19816E-02  6.35101E+01 -1.00000E+00  1.33397E-01
      21    -1     0     0   502   501  0.000000000E+00  0.000000000E+00  4.941067261E+02  4.941067261E+02  0.000000000E+00  0.00000E+00  9.000E+00
      21    -1     0     0   511   502  0.000000000E+00  0.000000000E+00 -4.573118354E+02  4.573118354E+02  0.000000000E+00  0.00000E+00  9.000E+00
      25     1     1     2     0     0 -1.704322089E+02  1.314198243E+02  4.142007135E+02  4.832241086E+02  1.250000000E+02  0.00000E+00  9.000E+00
      25     1     1     2     0     0  1.258268666E+02 -8.621030171E+01 -2.049637401E+02  2.844288158E+02  1.250000000E+02  0.00000E+00  9.000E+00
      21     1     1     2   511   501  4.460534229E+01 -4.520952262E+01 -1.724420827E+02  1.837656371E+02  1.907348633E-06  0.00000E+00  9.000E+00
#rwgt            1           1   2.7347181969344828E-002           1      153750           0
</event>
<event>
      5   9999  3.19816E-02  2.22186E+02 -1.00000E+00  1.10010E-01
      21    -1     0     0   502   501  0.000000000E+00  0.000000000E+00  1.509479551E+03  1.509479551E+03  0.000000000E+00  0.00000E+00  9.000E+00
      21    -1     0     0   501   512  0.000000000E+00  0.000000000E+00 -1.343606149E+02  1.343606149E+02  0.000000000E+00  0.00000E+00  9.000E+00
      25     1     1     2     0     0  1.425469732E+02  5.684087167E+01  8.348805205E+02  8.580215661E+02  1.250000000E+02  0.00000E+00  9.000E+00
      25     1     1     2     0     0 -1.695201742E+02 -2.773835616E+02  3.199651624E+02  4.729497170E+02  1.250000000E+02  0.00000E+00  9.000E+00
      21     1     1     2   502   512  2.697320101E+01  2.205426900E+02  2.202732527E+02  3.128688823E+02  4.672030912E-06  0.00000E+00  9.000E+00
#rwgt            1           1   1.6962362017910980E-002           1      153841           0
</event>
<event>
      5   9999  3.19816E-02  1.40394E+02 -1.00000E+00  1.17544E-01
       2    -1     0     0   502     0  0.000000000E+00  0.000000000E+00  1.629042126E+03  1.629042126E+03  0.000000000E+00  0.00000E+00  9.000E+00
      21    -1     0     0   501   502  0.000000000E+00  0.000000000E+00 -1.475280972E+03  1.475280972E+03  0.000000000E+00  0.00000E+00  9.000E+00
      25     1     1     2     0     0  7.067699852E+02 -3.385605185E+02 -1.141904531E+03  1.390581890E+03  1.250000000E+02  0.00000E+00  9.000E+00
      25     1     1     2     0     0 -5.757808609E+02  3.890822538E+02  4.088875902E+02  8.159182934E+02  1.250000000E+02  0.00000E+00  9.000E+00
       2     1     1     2   501     0 -1.309891243E+02 -5.052173535E+01  8.867780941E+02  8.978229138E+02  1.078959322E-05  0.00000E+00  9.000E+00
#rwgt            2          18   2.7170768965153890E-003           1      153998           0
</event>
<event>
      5   9999  3.19816E-02  1.17809E+02 -1.00000E+00  1.20709E-01
      21    -1     0     0   511   501  0.000000000E+00  0.000000000E+00  3.538576494E+02  3.538576494E+02  0.000000000E+00  0.00000E+00  9.000E+00
      21    -1     0     0   501   502  0.000000000E+00  0.000000000E+00 -2.122651486E+03  2.122651486E+03  0.000000000E+00  0.00000E+00  9.000E+00
      25     1     1     2     0     0 -1.841520514E+01  3.631187890E+02 -9.246667812E+02  1.001413017E+03  1.250000000E+02  0.00000E+00  9.000E+00
      25     1     1     2     0     0 -9.900349664E+01 -3.535401298E+02 -1.114563193E+03  1.180113735E+03  1.250000000E+02  0.00000E+00  9.000E+00
      21     1     1     2   511   502  1.174187018E+02 -9.578659147E+00  2.704361375E+02  2.949823837E+02  1.009274029E-05  0.00000E+00  9.000E+00
#rwgt            1           1   2.3543822852341915E-002           1      154032           0
</event>
<event>
      5   9999  3.19816E-02  1.73372E+02 -1.00000E+00  1.13955E-01
      21    -1     0     0   502   512  0.000000000E+00  0.000000000E+00  6.631420586E+02  6.631420586E+02  0.000000000E+00  0.00000E+00  9.000E+00
      21    -1     0     0   501   502  0.000000000E+00  0.000000000E+00 -2.900507178E+02  2.900507178E+02  0.000000000E+00  0.00000E+00  9.000E+00
      25     1     1     2     0     0  7.660110785E+01  1.624105075E+02  3.966524096E+01  2.223583459E+02  1.250000000E+02  0.00000E+00  9.000E+00
      25     1     1     2     0     0 -1.255836884E+02 -3.287193362E+02  2.160662707E+01  3.740581655E+02  1.250000000E+02  0.00000E+00  9.000E+00
      21     1     1     2   501   512  4.898258058E+01  1.663088287E+02  3.118194727E+02  3.567762650E+02  6.607249480E-06  0.00000E+00  9.000E+00
#rwgt            2          11   2.7376083594835661E-003           1      154290           0
</event>
<event>
      5   9999  3.19816E-02  9.08222E+00 -1.00000E+00  2.00718E-01
      21    -1     0     0   502   501  0.000000000E+00  0.000000000E+00  2.687704787E+02  2.687704787E+02  0.000000000E+00  0.00000E+00  9.000E+00
      21    -1     0     0   501   511  0.000000000E+00  0.000000000E+00 -4.174945795E+02  4.174945795E+02  0.000000000E+00  0.00000E+00  9.000E+00
      25     1     1     2     0     0  2.530660467E+02 -6.481028150E+01  8.170566156E+01  3.009046555E+02  1.250000000E+02  0.00000E+00  9.000E+00
      25     1     1     2     0     0 -2.447635797E+02  6.849210535E+01 -1.833342233E+02  3.373971189E+02  1.250000000E+02  0.00000E+00  9.000E+00
      21     1     1     2   502   511 -8.302467058E+00 -3.681823843E+00 -4.709553907E+01  4.796328374E+01  0.000000000E+00  0.00000E+00  9.000E+00
#rwgt            1           1   3.0408958350521292E-002           1      154310           0
</event>
<event>
      5   9999  3.19816E-02  7.46046E+00 -1.00000E+00  2.11716E-01
      21    -1     0     0   502   501  0.000000000E+00  0.000000000E+00  6.220713102E+02  6.220713102E+02  0.000000000E+00  0.00000E+00  9.000E+00
      21    -1     0     0   501   512  0.000000000E+00  0.000000000E+00 -3.182246140E+02  3.182246140E+02  0.000000000E+00  0.00000E+00  9.000E+00
      25     1     1     2     0     0 -2.675564040E+02 -2.706054880E+02  2.159866593E+02  4.550703203E+02  1.250000000E+02  0.00000E+00  9.000E+00
      25     1     1     2     0     0  2.733357138E+02  2.753233257E+02  1.411993096E+02  4.313671188E+02  1.250000000E+02  0.00000E+00  9.000E+00
      21     1     1     2   502   512 -5.779309853E+00 -4.717837708E+00 -5.333927273E+01  5.385848522E+01  6.743495762E-07  0.00000E+00  9.000E+00
#rwgt            2          11   1.1487066700529138E-003           1      154630           0
</event>
<event>
      5   9999  3.19816E-02  1.88072E+01 -1.00000E+00  1.68603E-01
      21    -1     0     0   511   501  0.000000000E+00  0.000000000E+00  3.151597877E+02  3.151597877E+02  0.000000000E+00  0.00000E+00  9.000E+00
      21    -1     0     0   501   502  0.000000000E+00  0.000000000E+00 -4.268352394E+02  4.268352394E+02  0.000000000E+00  0.00000E+00  9.000E+00
      25     1     1     2     0     0  1.563847360E+01 -1.401988826E+02 -3.683435996E+02  4.137659917E+02  1.250000000E+02  0.00000E+00  9.000E+00
      25     1     1     2     0     0  1.766137807E+00  1.330721044E+02  2.121415646E+02  2.798934577E+02  1.250000000E+02  0.00000E+00  9.000E+00
      21     1     1     2   511   502 -1.740461141E+01  7.126778181E+00  4.452658318E+01  4.833557774E+01  8.259061849E-07  0.00000E+00  9.000E+00
#rwgt            1           1   3.1249327526758658E-002           1      154650           0
</event>
<event>
      5   9999  3.19816E-02  2.64019E+01 -1.00000E+00  1.56996E-01
      21    -1     0     0   512   501  0.000000000E+00  0.000000000E+00  1.768695035E+02  1.768695035E+02  0.000000000E+00  0.00000E+00  9.000E+00
      21    -1     0     0   501   502  0.000000000E+00  0.000000000E+00 -2.906023494E+02  2.906023494E+02  0.000000000E+00  0.00000E+00  9.000E+00
      25     1     1     2     0     0 -1.498511266E+02 -1.530644818E+01 -1.405861109E+02  2.409960624E+02  1.250000000E+02  0.00000E+00  9.000E+00
      25     1     1     2     0     0  1.512705008E+02 -1.105728431E+01  1.381554433E+01  1.970301936E+02  1.250000000E+02  0.00000E+00  9.000E+00
      21     1     1     2   512   502 -1.419374122E+00  2.636373249E+01  1.303772074E+01  2.944559688E+01  7.725644944E-07  0.00000E+00  9.000E+00
#rwgt            1           1   2.6796243506393116E-002           1      154896           0
</event>
<event>
      5   9999  3.19816E-02  6.13554E+01 -1.00000E+00  1.34187E-01
       3    -1     0     0   502     0  0.000000000E+00  0.000000000E+00  2.353361449E+02  2.353361449E+02  0.000000000E+00  0.00000E+00  9.000E+00
      21    -1     0     0   501   502  0.000000000E+00  0.000000000E+00 -6.226120693E+02  6.226120693E+02  0.000000000E+00  0.00000E+00  9.000E+00
      25     1     1     2     0     0  6.237534120E+01 -1.961281638E+02 -5.138300028E+02  5.674532683E+02  1.250000000E+02  0.00000E+00  9.000E+00
      25     1     1     2     0     0 -5.956491494E+01  1.348371723E+02  1.228847740E+02  2.290299321E+02  1.250000000E+02  0.00000E+00  9.000E+00
       3     1     1     2   501     0 -2.810426259E+00  6.129099149E+01  3.669304451E+00  6.146501386E+01  1.046057270E-06  0.00000E+00  9.000E+00
#rwgt            1           1   2.7815353413352790E-002           1      155026           0
</event>
<event>
      5   9999  3.19816E-02  3.20594E+01 -1.00000E+00  1.51064E-01
      21    -1     0     0   502   511  0.000000000E+00  0.000000000E+00  2.873528404E+01  2.873528404E+01  0.000000000E+00  0.00000E+00  9.000E+00
      21    -1     0     0   501   502  0.000000000E+00  0.000000000E+00 -1.797857034E+03  1.797857034E+03  0.000000000E+00  0.00000E+00  9.000E+00
      25     1     1     2     0     0 -3.151979317E+00  5.564384654E+01 -1.900556705E+02  2.342057440E+02  1.250000000E+02  0.00000E+00  9.000E+00
      25     1     1     2     0     0 -2.054704707E+01 -7.723468783E+01 -1.496150972E+03  1.503489312E+03  1.250000000E+02  0.00000E+00  9.000E+00
      21     1     1     2   501   511  2.369902639E+01  2.159084129E+01 -8.291510726E+01  8.889726257E+01  1.651812370E-06  0.00000E+00  9.000E+00
#rwgt            1           1   3.1686721842209969E-002           1      155180           0
</event>
<event>
      5   9999  3.19816E-02  6.79163E+01 -1.00000E+00  1.31889E-01
       2    -1     0     0   502     0  0.000000000E+00  0.000000000E+00  6.008145919E+02  6.008145919E+02  0.000000000E+00  0.00000E+00  9.000E+00
      21    -1     0     0   501   502  0.000000000E+00  0.000000000E+00 -2.430936287E+02  2.430936287E+02  0.000000000E+00  0.00000E+00  9.000E+00
      25     1     1     2     0     0  2.162458924E+02  3.017140237E+01  1.403283440E+02  2.880792316E+02  1.250000000E+02  0.00000E+00  9.000E+00
      25     1     1     2     0     0 -2.835224903E+02 -2.087169231E+01 -1.776067237E+01  3.110644170E+02  1.250000000E+02  0.00000E+00  9.000E+00
       2     1     1     2   501     0  6.727659786E+01 -9.299710053E+00  2.351532915E+02  2.447645720E+02  2.697398305E-06  0.00000E+00  9.000E+00
#rwgt            1           1   2.7798215536939879E-002           1      155262           0
</event>
<event>
      5   9999  3.19816E-02  1.25179E+02 -1.00000E+00  1.19595E-01
      21    -1     0     0   502   501  0.000000000E+00  0.000000000E+00  3.593800166E+02  3.593800166E+02  0.000000000E+00  0.00000E+00  9.000E+00
      21    -1     0     0   501   511  0.000000000E+00  0.000000000E+00 -1.297161991E+03  1.297161991E+03  0.000000000E+00  0.00000E+00  9.000E+00
      25     1     1     2     0     0  5.088463438E+01  2.805066667E+01  2.991696948E+02  3.293988345E+02  1.250000000E+02  0.00000E+00  9.000E+00
      25     1     1     2     0     0  3.972473356E+01 -1.144204978E+02 -1.408202498E+02  2.238871312E+02  1.250000000E+02  0.00000E+00  9.000E+00
      21     1     1     2   502   511 -9.060936794E+01  8.636983113E+01 -1.096131420E+03  1.103256042E+03  1.525878906E-05  0.00000E+00  9.000E+00
#rwgt            1           1   2.5817916215887828E-002           1      155410           0
</event>
<event>
      5   9999  3.19816E-02  6.66435E+01 -1.00000E+00  1.32311E-01
      21    -1     0     0   502   501  0.000000000E+00  0.000000000E+00  3.181629636E+01  3.181629636E+01  0.000000000E+00  0.00000E+00  9.000E+00
       2    -1     0     0   501     0  0.000000000E+00  0.000000000E+00 -1.639032659E+03  1.639032659E+03  0.000000000E+00  0.00000E+00  9.000E+00
      25     1     1     2     0     0 -1.277774219E+01 -2.579455440E+01 -1.466129519E+02  1.948049984E+02  1.250000000E+02  0.00000E+00  9.000E+00
      25     1     1     2     0     0  6.094960919E+01 -2.025795093E+01 -1.136779064E+03  1.145433054E+03  1.250000000E+02  0.00000E+00  9.000E+00
       2     1     1     2   502     0 -4.817186700E+01  4.605250533E+01 -3.238243463E+02  3.306109032E+02  3.814697266E-06  0.00000E+00  9.000E+00
#rwgt            1           1   3.2835711620795426E-002           1      155484           0
</event>
<event>
      5   9999  3.19816E-02  4.78847E+01 -1.00000E+00  1.40155E-01
      21    -1     0     0   502   501  0.000000000E+00  0.000000000E+00  6.240187946E+02  6.240187946E+02  0.000000000E+00  0.00000E+00  9.000E+00
      21    -1     0     0   511   502  0.000000000E+00  0.000000000E+00 -1.417646107E+02  1.417646107E+02  0.000000000E+00  0.00000E+00  9.000E+00
      25     1     1     2     0     0 -1.735979870E+02 -1.363124933E+02  4.057839640E+02  4.785425606E+02  1.250000000E+02  0.00000E+00  9.000E+00
      25     1     1     2     0     0  1.655020921E+02  8.911716001E+01  7.932719689E+01  2.392710072E+02  1.250000000E+02  0.00000E+00  9.000E+00
      21     1     1     2   511   501  8.095894908E+00  4.719533331E+01 -2.856976973E+00  4.796983758E+01  6.078504936E-07  0.00000E+00  9.000E+00
#rwgt            1           1   2.9065624740550643E-002           1      155586           0
</event>
<event>
      5   9999  3.19816E-02  5.22777E+01 -1.00000E+00  1.37981E-01
      21    -1     0     0   502   501  0.000000000E+00  0.000000000E+00  1.206494819E+03  1.206494819E+03  0.000000000E+00  0.00000E+00  9.000E+00
      21    -1     0     0   512   502  0.000000000E+00  0.000000000E+00 -1.498433430E+02  1.498433430E+02  0.000000000E+00  0.00000E+00  9.000E+00
      25     1     1     2     0     0 -2.852574337E+02 -1.930800848E+02  8.501346173E+02  9.257459642E+02  1.250000000E+02  0.00000E+00  9.000E+00
      25     1     1     2     0     0  2.511854720E+02  1.534309433E+02  1.487588803E+02  3.526888149E+02  1.250000000E+02  0.00000E+00  9.000E+00
      21     1     1     2   512   501  3.407196169E+01  3.964914158E+01  5.775797823E+01  7.790338279E+01  1.784161275E-06  0.00000E+00  9.000E+00
#rwgt            1           1   2.8892571320704146E-002           1      155666           0
</event>
<event>
      5   9999  3.19816E-02  7.33745E+01 -1.00000E+00  1.30193E-01
      21    -1     0     0   511   501  0.000000000E+00  0.000000000E+00  4.067039232E+02  4.067039232E+02  0.000000000E+00  0.00000E+00  9.000E+00
      21    -1     0     0   501   502  0.000000000E+00  0.000000000E+00 -1.364587025E+03  1.364587025E+03  0.000000000E+00  0.00000E+00  9.000E+00
      25     1     1     2     0     0  1.619130585E+02  1.550874425E+02  2.424306264E+01  2.578384754E+02  1.250000000E+02  0.00000E+00  9.000E+00
      25     1     1     2     0     0 -1.772986362E+02 -2.268307502E+02 -1.222490084E+03  1.262138661E+03  1.250000000E+02  0.00000E+00  9.000E+00
      21     1     1     2   511   502  1.538557772E+01  7.174330776E+01  2.403639192E+02  2.513138115E+02  5.394796609E-06  0.00000E+00  9.000E+00
#rwgt            2          11   3.9758036544058377E-003           1      155869           0
</event>
<event>
      5   9999  3.19816E-02  3.13568E+01 -1.00000E+00  1.51717E-01
      21    -1     0     0   502   501  0.000000000E+00  0.000000000E+00  3.084586138E+02  3.084586138E+02  0.000000000E+00  0.00000E+00  9.000E+00
      21    -1     0     0   512   502  0.000000000E+00  0.000000000E+00 -3.288525437E+02  3.288525437E+02  0.000000000E+00  0.00000E+00  9.000E+00
      25     1     1     2     0     0 -8.714806168E+01 -2.197301205E+02 -6.810707076E+01  2.759342016E+02  1.250000000E+02  0.00000E+00  9.000E+00
      25     1     1     2     0     0  1.174366341E+02  2.116153648E+02  1.083196488E+02  2.931391682E+02  1.250000000E+02  0.00000E+00  9.000E+00
      21     1     1     2   512   501 -3.028857240E+01  8.114755717E+00 -6.060650789E+01  6.823778775E+01  1.168007728E-06  0.00000E+00  9.000E+00
#rwgt            1           1   2.7158269236522384E-002           1      155919           0
</event>
<event>
      5   9999  3.19816E-02  3.78834E+01 -1.00000E+00  1.46320E-01
      21    -1     0     0   502   501  0.000000000E+00  0.000000000E+00  1.538687685E+02  1.538687685E+02  0.000000000E+00  0.00000E+00  9.000E+00
      21    -1     0     0   511   502  0.000000000E+00  0.000000000E+00 -9.432964507E+02  9.432964507E+02  0.000000000E+00  0.00000E+00  9.000E+00
      25     1     1     2     0     0 -3.059564363E+01 -1.465356703E+02  7.296900907E+01  2.082264929E+02  1.250000000E+02  0.00000E+00  9.000E+00
      25     1     1     2     0     0  3.160621576E+01  1.086657529E+02 -5.800344977E+02  6.040465357E+02  1.250000000E+02  0.00000E+00  9.000E+00
      21     1     1     2   511   501 -1.010572128E+00  3.786991734E+01 -2.823621936E+02  2.848921906E+02  3.814697266E-06  0.00000E+00  9.000E+00
#rwgt            1           1   3.1901360750522821E-002           1      156070           0
</event>
<event>
      5   9999  3.19816E-02  4.38008E+01 -1.00000E+00  1.42437E-01
      21    -1     0     0   502   501  0.000000000E+00  0.000000000E+00  1.538839392E+03  1.538839392E+03  0.000000000E+00  0.00000E+00  9.000E+00
      21    -1     0     0   512   502  0.000000000E+00  0.000000000E+00 -3.356263012E+02  3.356263012E+02  0.000000000E+00  0.00000E+00  9.000E+00
      25     1     1     2     0     0 -2.135410119E+02 -2.008490622E+02  1.314554798E+03  1.352634255E+03  1.250000000E+02  0.00000E+00  9.000E+00
      25     1     1     2     0     0  2.470268839E+02  2.290838327E+02  4.252717716E+01  3.618497542E+02  1.250000000E+02  0.00000E+00  9.000E+00
      21     1     1     2   512   501 -3.348587206E+01 -2.823477046E+01 -1.538688842E+02  1.599816846E+02  4.672030912E-06  0.00000E+00  9.000E+00
#rwgt            1           1   3.0492231807223526E-002           1      156221           0
</event>
<event>
      5   9999  3.19816E-02  2.08895E+02 -1.00000E+00  1.10964E-01
      21    -1     0     0   511   501  0.000000000E+00  0.000000000E+00  2.558807439E+02  2.558807439E+02  0.000000000E+00  0.00000E+00  9.000E+00
      21    -1     0     0   501   502  0.000000000E+00  0.000000000E+00 -8.062714231E+02  8.062714231E+02  0.000000000E+00  0.00000E+00  9.000E+00
      25     1     1     2     0     0 -1.160910814E+02 -1.398504165E+02 -2.697096577E+01  2.222334610E+02  1.250000000E+02  0.00000E+00  9.000E+00
      25     1     1     2     0     0 -6.255435534E+01  3.157783805E+01 -6.004201363E+02  6.172840087E+02  1.250000000E+02  0.00000E+00  9.000E+00
      21     1     1     2   511   502  1.786454368E+02  1.082725785E+02  7.700042287E+01  2.226346973E+02  4.264961200E-06  0.00000E+00  9.000E+00
#rwgt            1           1   2.5878749197899779E-002           1      156450           0
</event>
<event>
      5   9999  3.19816E-02  6.52918E+01 -1.00000E+00  1.32771E-01
      21    -1     0     0   512   501  0.000000000E+00  0.000000000E+00  3.525421972E+02  3.525421972E+02  0.000000000E+00  0.00000E+00  9.000E+00
      21    -1     0     0   501   502  0.000000000E+00  0.000000000E+00 -4.110774223E+02  4.110774223E+02  0.000000000E+00  0.00000E+00  9.000E+00
      25     1     1     2     0     0  5.058404524E+01 -2.299296958E+02 -1.885923832E+02  3.265248806E+02  1.250000000E+02  0.00000E+00  9.000E+00
      25     1     1     2     0     0 -1.054562857E+02  2.653140232E+02  2.405247061E+01  3.125957140E+02  1.250000000E+02  0.00000E+00  9.000E+00
      21     1     1     2   512   502  5.487224051E+01 -3.538432734E+01  1.060046876E+02  1.244990248E+02  1.348699152E-06  0.00000E+00  9.000E+00
#rwgt            1           1   2.8664188118353029E-002           1      156496           0
</event>
<event>
      5   9999  3.19816E-02  1.08379E+02 -1.00000E+00  1.22276E-01
      21    -1     0     0   502   501  0.000000000E+00  0.000000000E+00  2.102378487E+03  2.102378487E+03  0.000000000E+00  0.00000E+00  9.000E+00
       2    -1     0     0   501     0  0.000000000E+00  0.000000000E+00 -7.627005966E+02  7.627005966E+02  0.000000000E+00  0.00000E+00  9.000E+00
      25     1     1     2     0     0 -1.445909351E+02  8.929843510E+02  1.090855665E+03  1.422644956E+03  1.250000000E+02  0.00000E+00  9.000E+00
      25     1     1     2     0     0  2.038838727E+02 -9.837052426E+02  5.288465997E+02  1.142168273E+03  1.250000000E+02  0.00000E+00  9.000E+00
       2     1     1     2   502     0 -5.929293756E+01  9.072089162E+01 -2.800243747E+02  3.002658540E+02  3.814697266E-06  0.00000E+00  9.000E+00
#rwgt            1           1   3.0961105600161940E-002           1      156547           0
</event>
<event>
      5   9999  3.19816E-02  1.34996E+02 -1.00000E+00  1.18237E-01
      21    -1     0     0   502   501  0.000000000E+00  0.000000000E+00  1.086177894E+03  1.086177894E+03  0.000000000E+00  0.00000E+00  9.000E+00
      21    -1     0     0   511   502  0.000000000E+00  0.000000000E+00 -8.355187329E+01  8.355187329E+01  0.000000000E+00  0.00000E+00  9.000E+00
      25     1     1     2     0     0  1.794148237E+02 -5.914879723E+01  3.083806798E+02  3.826380834E+02  1.250000000E+02  0.00000E+00  9.000E+00
      25     1     1     2     0     0 -5.538171279E+01  1.124387417E+02  5.915669634E+02  6.174836653E+02  1.250000000E+02  0.00000E+00  9.000E+00
      21     1     1     2   511   501 -1.240331110E+02 -5.328994443E+01  1.026783777E+02  1.696080188E+02  0.000000000E+00  0.00000E+00  9.000E+00
#rwgt            1           1   2.6657018962906166E-002           1      156697           0
</event>
<event>
      5   9999  3.19816E-02  5.09643E+01 -1.00000E+00  1.38604E-01
      21    -1     0     0   502   501  0.000000000E+00  0.000000000E+00  4.988035358E+02  4.988035358E+02  0.000000000E+00  0.00000E+00  9.000E+00
       2    -1     0     0   501     0  0.000000000E+00  0.000000000E+00 -9.085666990E+02  9.085666990E+02  0.000000000E+00  0.00000E+00  9.000E+00
      25     1     1     2     0     0 -2.677737936E+02  3.971808104E+02  2.073124886E+02  5.367111594E+02  1.250000000E+02  0.00000E+00  9.000E+00
      25     1     1     2     0     0  2.682281893E+02 -3.462185617E+02 -2.906804158E+02  5.403089469E+02  1.250000000E+02  0.00000E+00  9.000E+00
       2     1     1     2   502     0 -4.543956339E-01 -5.096224867E+01 -3.263952361E+02  3.303501285E+02  0.000000000E+00  0.00000E+00  9.000E+00
#rwgt            1           1   3.0855818246476180E-002           1      156792           0
</event>
<event>
      5   9999  3.19816E-02  1.94376E+02 -1.00000E+00  1.12101E-01
      21    -1     0     0   502   501  0.000000000E+00  0.000000000E+00  3.203852418E+03  3.203852418E+03  0.000000000E+00  0.00000E+00  9.000E+00
      21    -1     0     0   501   511  0.000000000E+00  0.000000000E+00 -6.771177450E+02  6.771177450E+02  0.000000000E+00  0.00000E+00  9.000E+00
      25     1     1     2     0     0  3.140954396E+01 -6.740697963E+02  1.722445196E+03  1.854130282E+03  1.250000000E+02  0.00000E+00  9.000E+00
      25     1     1     2     0     0 -2.440480233E+00  4.818643091E+02  1.354616535E+03  1.443194417E+03  1.250000000E+02  0.00000E+00  9.000E+00
      21     1     1     2   502   511 -2.896906373E+01  1.922054873E+02 -5.503270584E+02  5.836454636E+02  1.705984480E-05  0.00000E+00  9.000E+00
#rwgt            1           1   5.8679187056139434E-002           1      156893           0
</event>
<event>
      5   9999  3.19816E-02  7.43916E+00 -1.00000E+00  2.11885E-01
      21    -1     0     0   502   501  0.000000000E+00  0.000000000E+00  2.671071797E+02  2.671071797E+02  0.000000000E+00  0.00000E+00  9.000E+00
      21    -1     0     0   501   512  0.000000000E+00  0.000000000E+00 -3.792960623E+02  3.792960623E+02  0.000000000E+00  0.00000E+00  9.000E+00
      25     1     1     2     0     0 -5.298039884E+01  8.416080182E+01  1.967524520E+02  2.534294588E+02  1.250000000E+02  0.00000E+00  9.000E+00
      25     1     1     2     0     0  5.721500082E+01 -7.804448826E+01 -1.069845832E+02  1.908800658E+02  1.250000000E+02  0.00000E+00  9.000E+00
      21     1     1     2   502   512 -4.234601982E+00 -6.116313557E+00 -2.019567515E+02  2.020937174E+02  2.697398305E-06  0.00000E+00  9.000E+00
#rwgt            1           1   2.6884131681988086E-002           1      157011           0
</event>
<event>
      5   9999  3.19816E-02  5.37560E+00 -1.00000E+00  2.33148E-01
      21    -1     0     0   511   501  0.000000000E+00  0.000000000E+00  1.641226238E+03  1.641226238E+03  0.000000000E+00  0.00000E+00  9.000E+00
      21    -1     0     0   501   502  0.000000000E+00  0.000000000E+00 -1.753647869E+02  1.753647869E+02  0.000000000E+00  0.00000E+00  9.000E+00
      25     1     1     2     0     0 -1.770106761E+02  1.028441586E+02  1.040218578E+03  1.067515523E+03  1.250000000E+02  0.00000E+00  9.000E+00
      25     1     1     2     0     0  1.772645278E+02 -9.747455634E+01 -7.427398847E+01  2.491297399E+02  1.250000000E+02  0.00000E+00  9.000E+00
      21     1     1     2   511   502 -2.538516420E-01 -5.369602225E+00  4.999168616E+02  4.999457626E+02  0.000000000E+00  0.00000E+00  9.000E+00
#rwgt            1           1   2.8711737003282362E-002           1      157260           0
</event>
<event>
      5   9999  3.19816E-02  4.86458E+01 -1.00000E+00  1.39759E-01
      21    -1     0     0   502   512  0.000000000E+00  0.000000000E+00  2.026293911E+03  2.026293911E+03  0.000000000E+00  0.00000E+00  9.000E+00
      21    -1     0     0   501   502  0.000000000E+00  0.000000000E+00 -5.792479027E+01  5.792479027E+01  0.000000000E+00  0.00000E+00  9.000E+00
      25     1     1     2     0     0  1.971661240E+02 -2.054964923E+02  8.254375566E+02  8.820858510E+02  1.250000000E+02  0.00000E+00  9.000E+00
      25     1     1     2     0     0 -2.190995461E+02  1.620759843E+02  7.746239118E+02  8.306265349E+02  1.250000000E+02  0.00000E+00  9.000E+00
      21     1     1     2   501   512  2.193342214E+01  4.342050808E+01  3.683076527E+02  3.715063157E+02  0.000000000E+00  0.00000E+00  9.000E+00
#rwgt            1           1   3.9160431180851982E-002           1      157624           0
</event>
<event>
      5   9999  3.19816E-02  8.93136E+01 -1.00000E+00  1.26077E-01
      21    -1     0     0   511   501  0.000000000E+00  0.000000000E+00  6.306552644E+02  6.306552644E+02  0.000000000E+00  0.00000E+00  9.000E+00
      21    -1     0     0   501   502  0.000000000E+00  0.000000000E+00 -3.065211594E+02  3.065211594E+02  0.000000000E+00  0.00000E+00  9.000E+00
      25     1     1     2     0     0  2.272798147E+02 -1.352915223E+02  4.130494508E+02  5.061568522E+02  1.250000000E+02  0.00000E+00  9.000E+00
      25     1     1     2     0     0 -1.570148355E+02  1.904254237E+02 -1.575548965E+02  3.183772070E+02  1.250000000E+02  0.00000E+00  9.000E+00
      21     1     1     2   511   502 -7.026497917E+01 -5.513390141E+01  6.863955067E+01  1.126423646E+02  2.336015456E-06  0.00000E+00  9.000E+00
#rwgt            1           1   2.5281165173918162E-002           1      157742           0
</event>
<event>
      5   9999  3.19816E-02  1.95092E+02 -1.00000E+00  1.12042E-01
      21    -1     0     0   502   512  0.000000000E+00  0.000000000E+00  1.767335341E+02  1.767335341E+02  0.000000000E+00  0.00000E+00  9.000E+00
      21    -1     0     0   501   502  0.000000000E+00  0.000000000E+00 -1.709031412E+03  1.709031412E+03  0.000000000E+00  0.00000E+00  9.000E+00
      25     1     1     2     0     0  2.909911724E+02  1.154218962E+02 -1.097768994E+03  1.148355276E+03  1.250000000E+02  0.00000E+00  9.000E+00
      25     1     1     2     0     0 -2.392531032E+02  7.268436466E+01 -4.624003460E+02  5.403370654E+02  1.250000000E+02  0.00000E+00  9.000E+00
      21     1     1     2   501   512 -5.173806918E+01 -1.881062608E+02  2.787146169E+01  1.970726048E+02  5.091227652E-06  0.00000E+00  9.000E+00
#rwgt            2          11   6.1486614117372213E-003           1      157855           0
</event>
<event>
      5   9999  3.19816E-02  1.53547E+01 -1.00000E+00  1.76433E-01
      21    -1     0     0   502   501  0.000000000E+00  0.000000000E+00  3.631251751E+02  3.631251751E+02  0.000000000E+00  0.00000E+00  9.000E+00
      21    -1     0     0   501   511  0.000000000E+00  0.000000000E+00 -1.438424969E+02  1.438424969E+02  0.000000000E+00  0.00000E+00  9.000E+00
      25     1     1     2     0     0 -1.006620561E+02  6.118830303E+01  2.523043756E+02  3.052201762E+02  1.250000000E+02  0.00000E+00  9.000E+00
      25     1     1     2     0     0  1.064239074E+02 -7.542089911E+01 -2.028703855E+01  1.817991310E+02  1.250000000E+02  0.00000E+00  9.000E+00
      21     1     1     2   502   511 -5.761851330E+00  1.423259609E+01 -1.273465898E+01  1.994836488E+01  5.591411304E-07  0.00000E+00  9.000E+00
#rwgt            1           1   2.9095768113912998E-002           1      157875           0
</event>
<event>
      5   9999  3.19816E-02  8.73646E+01 -1.00000E+00  1.26525E-01
      21    -1     0     0   502   512  0.000000000E+00  0.000000000E+00  2.891139413E+02  2.891139413E+02  0.000000000E+00  0.00000E+00  9.000E+00
      21    -1     0     0   501   502  0.000000000E+00  0.000000000E+00 -1.384640111E+03  1.384640111E+03  0.000000000E+00  0.00000E+00  9.000E+00
      25     1     1     2     0     0  3.829340879E+02 -2.728544083E+02 -3.191886884E+02  5.818887030E+02  1.250000000E+02  0.00000E+00  9.000E+00
      25     1     1     2     0     0 -2.958443091E+02  2.659302837E+02 -8.693990644E+02  9.642211905E+02  1.250000000E+02  0.00000E+00  9.000E+00
      21     1     1     2   501   512 -8.708977878E+01  6.924124662E+00  9.306158298E+01  1.276441589E+02  1.348699152E-06  0.00000E+00  9.000E+00
#rwgt            1           1   3.3763009873581704E-002           1      158102           0
</event>
<event>
      5   9999  3.19816E-02  1.03969E+02 -1.00000E+00  1.23072E-01
      21    -1     0     0   502   501  0.000000000E+00  0.000000000E+00  1.130769234E+03  1.130769234E+03  0.000000000E+00  0.00000E+00  9.000E+00
      21    -1     0     0   501   511  0.000000000E+00  0.000000000E+00 -5.127016950E+02  5.127016950E+02  0.000000000E+00  0.00000E+00  9.000E+00
      25     1     1     2     0     0 -2.670429441E+02 -1.145980755E+02  9.531798412E+02  1.004301480E+03  1.250000000E+02  0.00000E+00  9.000E+00
      25     1     1     2     0     0  3.482587614E+02  1.795095305E+02 -3.421310827E+02  5.349640307E+02  1.250000000E+02  0.00000E+00  9.000E+00
      21     1     1     2   502   511 -8.121581734E+01 -6.491145501E+01  7.018780721E+00  1.042054186E+02  1.653961769E-06  0.00000E+00  9.000E+00
#rwgt            1           1   1.9904915621842940E-002           1      158189           0
</event>
<event>
      5   9999  3.19816E-02  1.30346E+02 -1.00000E+00  1.18863E-01
      21    -1     0     0   502   501  0.000000000E+00  0.000000000E+00  4.682000555E+02  4.682000555E+02  0.000000000E+00  0.00000E+00  9.000E+00
      21    -1     0     0   512   502  0.000000000E+00  0.000000000E+00 -5.528961967E+02  5.528961967E+02  0.000000000E+00  0.00000E+00  9.000E+00
      25     1     1     2     0     0  2.587895671E+01 -1.041139045E+02  3.817798501E+02  4.158007689E+02  1.250000000E+02  0.00000E+00  9.000E+00
      25     1     1     2     0     0 -1.526471067E+02  1.344449911E+02 -3.803200793E+02  4.490489478E+02  1.250000000E+02  0.00000E+00  9.000E+00
      21     1     1     2   512   501  1.267681500E+02 -3.033108650E+01 -8.615591203E+01  1.562465354E+02  1.907348633E-06  0.00000E+00  9.000E+00
#rwgt            1           1   2.8613292083056997E-002           1      158273           0
</event>
<event>
      5   9999  3.19816E-02  1.98673E+01 -1.00000E+00  1.66608E-01
      21    -1     0     0   502   501  0.000000000E+00  0.000000000E+00  4.390971501E+02  4.390971501E+02  0.000000000E+00  0.00000E+00  9.000E+00
      21    -1     0     0   511   502  0.000000000E+00  0.000000000E+00 -3.909181864E+02  3.909181864E+02  0.000000000E+00  0.00000E+00  9.000E+00
      25     1     1     2     0     0  3.358186236E+02 -4.522290249E+01 -1.176603330E+02  3.798528832E+02  1.250000000E+02  0.00000E+00  9.000E+00
      25     1     1     2     0     0 -3.366508237E+02  2.537300591E+01  1.991207832E+02  4.114020574E+02  1.250000000E+02  0.00000E+00  9.000E+00
      21     1     1     2   511   501  8.322000190E-01  1.984989657E+01 -3.328148648E+01  3.876039594E+01  4.768371582E-07  0.00000E+00  9.000E+00
#rwgt            1           1   2.4927795022410583E-002           1      158321           0
</event>
<event>
      5   9999  3.19816E-02  7.23281E+01 -1.00000E+00  1.30505E-01
      21    -1     0     0   502   501  0.000000000E+00  0.000000000E+00  7.721572718E+01  7.721572718E+01  0.000000000E+00  0.00000E+00  9.000E+00
       2    -1     0     0   501     0  0.000000000E+00  0.000000000E+00 -1.917789583E+03  1.917789583E+03  0.000000000E+00  0.00000E+00  9.000E+00
      25     1     1     2     0     0 -2.894334258E+01  1.625368128E+02 -6.366199026E+02  6.694518900E+02  1.250000000E+02  0.00000E+00  9.000E+00
      25     1     1     2     0     0 -3.912241051E+01 -1.869992209E+02 -1.592788347E+02  2.783774754E+02  1.250000000E+02  0.00000E+00  9.000E+00
       2     1     1     2   502     0  6.806575309E+01  2.446240812E+01 -1.044675119E+03  1.047175945E+03  1.525878906E-05  0.00000E+00  9.000E+00
#rwgt            1           1   2.5584937648996352E-002           1      158451           0
</event>
<event>
      5   9999  3.19816E-02  1.03853E+02 -1.00000E+00  1.23094E-01
       2    -1     0     0   502     0  0.000000000E+00  0.000000000E+00  2.305124041E+03  2.305124041E+03  0.000000000E+00  0.00000E+00  9.000E+00
      21    -1     0     0   501   502  0.000000000E+00  0.000000000E+00 -3.438559128E+02  3.438559128E+02  0.000000000E+00  0.00000E+00  9.000E+00
      25     1     1     2     0     0  1.114731268E+02 -1.346729351E+02  1.277905467E+03  1.295851241E+03  1.250000000E+02  0.00000E+00  9.000E+00
      25     1     1     2     0     0 -2.039873343E+02  8.748681242E+01 -2.832537139E+02  3.809493948E+02  1.250000000E+02  0.00000E+00  9.000E+00
       2     1     1     2   501     0  9.251420753E+01  4.718612266E+01  9.666163752E+02  9.721793176E+02  1.868812365E-05  0.00000E+00  9.000E+00
#rwgt            1           1   3.2462257939357170E-002           1      158564           0
</event>
<event>
      5   9999  3.19816E-02  8.25460E+01 -1.00000E+00  1.27694E-01
      21    -1     0     0   502   501  0.000000000E+00  0.000000000E+00  6.745558678E+02  6.745558678E+02  0.000000000E+00  0.00000E+00  9.000E+00
      21    -1     0     0   511   502  0.000000000E+00  0.000000000E+00 -8.584654111E+02  8.584654111E+02  0.000000000E+00  0.00000E+00  9.000E+00
      25     1     1     2     0     0  1.291494040E+02 -4.531814392E+02  2.925762971E+01  4.883994208E+02  1.250000000E+02  0.00000E+00  9.000E+00
      25     1     1     2     0     0 -4.697336239E+01  4.609880199E+02  2.725581145E+02  5.519324026E+02  1.250000000E+02  0.00000E+00  9.000E+00
      21     1     1     2   511   501 -8.217604161E+01 -7.806580722E+00 -4.857252876E+02  4.926894555E+02  0.000000000E+00  0.00000E+00  9.000E+00
#rwgt            1           1   2.6074753636762218E-002           1      158677           0
</event>
<event>
      5   9999  3.19816E-02  1.19297E+02 -1.00000E+00  1.20477E-01
      21    -1     0     0   502   501  0.000000000E+00  0.000000000E+00  1.106085728E+02  1.106085728E+02  0.000000000E+00  0.00000E+00  9.000E+00
      21    -1     0     0   501   512  0.000000000E+00  0.000000000E+00 -9.649972174E+02  9.649972174E+02  0.000000000E+00  0.00000E+00  9.000E+00
      25     1     1     2     0     0  1.600767480E+02  2.477297901E+01 -3.233324661E+02  3.826318718E+02  1.250000000E+02  0.00000E+00  9.000E+00
      25     1     1     2     0     0 -9.557244767E+01  7.558131723E+01 -2.901841859E+01  1.769567656E+02  1.250000000E+02  0.00000E+00  9.000E+00
      21     1     1     2   502   512 -6.450430033E+01 -1.003542962E+02 -5.020377599E+02  5.160171527E+02  5.394796609E-06  0.00000E+00  9.000E+00
#rwgt            1           1   2.4458227981854458E-002           1      158785           0
</event>
<event>
      5   9999  3.19816E-02  1.74361E+02 -1.00000E+00  1.13861E-01
      21    -1     0     0   502   501  0.000000000E+00  0.000000000E+00  3.020724880E+02  3.020724880E+02  0.000000000E+00  0.00000E+00  9.000E+00
      21    -1     0     0   511   502  0.000000000E+00  0.000000000E+00 -4.796550293E+02  4.796550293E+02  0.000000000E+00  0.00000E+00  9.000E+00
      25     1     1     2     0     0 -1.365556801E+02 -1.060408220E+02 -8.529393219E+01  2.297654556E+02  1.250000000E+02  0.00000E+00  9.000E+00
      25     1     1     2     0     0  2.804943437E+02  2.044449640E+02 -4.768173209E+01  3.719857090E+02  1.250000000E+02  0.00000E+00  9.000E+00
      21     1     1     2   511   501 -1.439386636E+02 -9.840414198E+01 -4.460687710E+01  1.799763527E+02  2.286830675E-06  0.00000E+00  9.000E+00
#rwgt            1           1   2.6466010425960213E-002           1      158833           0
</event>
<event>
      5   9999  3.19816E-02  4.17153E+02 -1.00000E+00  1.01140E-01
      21    -1     0     0   502   501  0.000000000E+00  0.000000000E+00  2.509261852E+03  2.509261852E+03  0.000000000E+00  0.00000E+00  9.000E+00
      21    -1     0     0   501   512  0.000000000E+00  0.000000000E+00 -2.997100761E+02  2.997100761E+02  0.000000000E+00  0.00000E+00  9.000E+00
      25     1     1     2     0     0  6.717244130E+01  1.036096597E+02 -1.414412877E+02  2.255609371E+02  1.250000000E+02  0.00000E+00  9.000E+00
      25     1     1     2     0     0  7.382777945E+01 -4.962109281E+02  1.899941013E+03  1.969029375E+03  1.250000000E+02  0.00000E+00  9.000E+00
      21     1     1     2   502   512 -1.410002208E+02  3.926012684E+02  4.510520513E+02  6.143816169E+02  9.344061824E-06  0.00000E+00  9.000E+00
#rwgt            1           1   1.8126986439006620E-002           1      158899           0
</event>
<event>
      5   9999  3.19816E-02  2.40105E+02 -1.00000E+00  1.08833E-01
       1    -1     0     0   502     0  0.000000000E+00  0.000000000E+00  2.687076314E+03  2.687076314E+03  0.000000000E+00  0.00000E+00  9.000E+00
      21    -1     0     0   501   502  0.000000000E+00  0.000000000E+00 -4.454729871E+02  4.454729871E+02  0.000000000E+00  0.00000E+00  9.000E+00
      25     1     1     2     0     0  8.069187496E+01 -3.178143117E+02 -2.893941104E+02  4.548527966E+02  1.250000000E+02  0.00000E+00  9.000E+00
      25     1     1     2     0     0  1.304433401E+02  2.034798061E+02  2.084648387E+02  3.427857720E+02  1.250000000E+02  0.00000E+00  9.000E+00
       1     1     1     2   501     0 -2.111352151E+02  1.143345056E+02  2.322532599E+03  2.334910733E+03  4.315837288E-05  0.00000E+00  9.000E+00
#rwgt            2          17   1.5199462834114765E-003           1      159005           0
</event>
<event>
      5   9999  3.19816E-02  5.11588E+02 -1.00000E+00  9.85701E-02
      21    -1     0     0   511   501  0.000000000E+00  0.000000000E+00  3.842185037E+02  3.842185037E+02  0.000000000E+00  0.00000E+00  9.000E+00
      21    -1     0     0   501   502  0.000000000E+00  0.000000000E+00 -2.952071063E+03  2.952071063E+03  0.000000000E+00  0.00000E+00  9.000E+00
      25     1     1     2     0     0 -7.400139936E+01 -4.324337391E+01  1.504370220E+02  2.135474047E+02  1.250000000E+02  0.00000E+00  9.000E+00
      25     1     1     2     0     0  1.839348915E+02 -4.563936465E+02 -2.525514286E+03  2.576038550E+03  1.250000000E+02  0.00000E+00  9.000E+00
      21     1     1     2   511   502 -1.099334921E+02  4.996370204E+02 -1.927752960E+02  5.467036122E+02  1.009274029E-05  0.00000E+00  9.000E+00
#rwgt            2          11   1.9877444932903817E-003           1      159129           0
</event>
<event>
      5   9999  3.19816E-02  1.63970E+02 -1.00000E+00  1.14881E-01
       2    -1     0     0   502     0  0.000000000E+00  0.000000000E+00  2.597528068E+02  2.597528068E+02  0.000000000E+00  0.00000E+00  9.000E+00
      21    -1     0     0   501   502  0.000000000E+00  0.000000000E+00 -4.309141195E+03  4.309141195E+03  0.000000000E+00  0.00000E+00  9.000E+00
      25     1     1     2     0     0 -2.265176933E+02  3.974077741E+02 -1.038995477E+03  1.142094482E+03  1.250000000E+02  0.00000E+00  9.000E+00
      25     1     1     2     0     0  6.771176909E+01 -4.382332117E+02 -3.166834704E+03  3.200171913E+03  1.250000000E+02  0.00000E+00  9.000E+00
       2     1     1     2   501     0  1.588059242E+02  4.082543763E+01  1.564417924E+02  2.266276072E+02  5.046370146E-06  0.00000E+00  9.000E+00
#rwgt            1           1   6.7395184400782827E-003           1      159164           0
</event>
<event>
      5   9999  3.19816E-02  3.80684E+01 -1.00000E+00  1.46186E-01
      -1    -1     0     0     0   501  0.000000000E+00  0.000000000E+00  5.751859687E+02  5.751859687E+02  0.000000000E+00  0.00000E+00  9.000E+00
      21    -1     0     0   501   502  0.000000000E+00  0.000000000E+00 -1.345548141E+02  1.345548141E+02  0.000000000E+00  0.00000E+00  9.000E+00
      25     1     1     2     0     0 -8.698861849E+01  1.084243833E+01 -3.256708453E+00  1.527094770E+02  1.250000000E+02  0.00000E+00  9.000E+00
      25     1     1     2     0     0  1.160474024E+02  1.375009448E+01  7.609559011E+01  1.872741401E+02  1.250000000E+02  0.00000E+00  9.000E+00
      -1     1     1     2     0   502 -2.905878391E+01 -2.459253281E+01  3.677922729E+02  3.697571657E+02  0.000000000E+00  0.00000E+00  9.000E+00
#rwgt            1           1   2.4310616215729438E-002           1      159213           0
</event>
<event>
      5   9999  3.19816E-02  1.65967E+02 -1.00000E+00  1.14679E-01
      21    -1     0     0   502   511  0.000000000E+00  0.000000000E+00  3.566291311E+02  3.566291311E+02  0.000000000E+00  0.00000E+00  9.000E+00
      21    -1     0     0   501   502  0.000000000E+00  0.000000000E+00 -4.857478710E+02  4.857478710E+02  0.000000000E+00  0.00000E+00  9.000E+00
      25     1     1     2     0     0  2.269302388E+02  8.345636468E+01 -3.459713895E+02  4.402084738E+02  1.250000000E+02  0.00000E+00  9.000E+00
      25     1     1     2     0     0 -6.099058305E+01 -8.649165875E+01  1.536471218E+02  2.245731424E+02  1.250000000E+02  0.00000E+00  9.000E+00
      21     1     1     2   501   511 -1.659396557E+02  3.035294066E+00  6.320552784E+01  1.775953859E+02  2.939421655E-06  0.00000E+00  9.000E+00
#rwgt            1           1   2.7899920066203409E-002           1      159337           0
</event>
<event>
      5   9999  3.19816E-02  2.07107E+01 -1.00000E+00  1.65127E-01
      21    -1     0     0   502   501  0.000000000E+00  0.000000000E+00  2.959647502E+02  2.959647502E+02  0.000000000E+00  0.00000E+00  9.000E+00
      21    -1     0     0   501   512  0.000000000E+00  0.000000000E+00 -3.459303001E+02  3.459303001E+02  0.000000000E+00  0.00000E+00  9.000E+00
      25     1     1     2     0     0 -1.740641476E+02 -1.623271294E+02  1.138212719E+02  2.919395594E+02  1.250000000E+02  0.00000E+00  9.000E+00
      25     1     1     2     0     0  1.857363489E+02  1.452188348E+02 -1.035219843E+02  2.862312047E+02  1.250000000E+02  0.00000E+00  9.000E+00
      21     1     1     2   502   512 -1.167220129E+01  1.710829454E+01 -6.026483742E+01  6.372428622E+01  6.743495762E-07  0.00000E+00  9.000E+00
#rwgt            1           1   2.8509534307267777E-002           1      159414           0
</event>
<event>
      5   9999  3.67478E-02  4.25220E+01 -1.00000E+00  1.43212E-01
      21    -1     0     0   502   501  0.000000000E+00  0.000000000E+00  2.119886675E+01  2.119886675E+01  0.000000000E+00  0.00000E+00  9.000E+00
      21    -1     0     0   501   511  0.000000000E+00  0.000000000E+00 -1.539536277E+03  1.539536277E+03  0.000000000E+00  0.00000E+00  9.000E+00
      25     1     1     2     0     0  6.732308402E+01  7.846620401E+00 -4.442825763E+02  4.664825556E+02  1.250000000E+02  0.00000E+00  9.000E+00
      25     1     1     2     0     0 -1.097561023E+02 -5.097156351E+00 -8.790572013E+02  8.946725357E+02  1.250000000E+02  0.00000E+00  9.000E+00
      21     1     1     2   502   511  4.243301824E+01 -2.749464050E+00 -1.949976327E+02  1.995800524E+02  3.814697266E-06  0.00000E+00  9.000E+00
#rwgt            1           1   9.8631269347982831E-002           1      159510           0
</event>
<event>
      5   9999  3.19816E-02  8.40227E+01 -1.00000E+00  1.27327E-01
      21    -1     0     0   512   501  0.000000000E+00  0.000000000E+00  8.632120140E+02  8.632120140E+02  0.000000000E+00  0.00000E+00  9.000E+00
      21    -1     0     0   501   502  0.000000000E+00  0.000000000E+00 -1.883082401E+03  1.883082401E+03  0.000000000E+00  0.00000E+00  9.000E+00
      25     1     1     2     0     0  5.161972411E+01  6.203539555E+02  6.188858710E+02  8.866500704E+02  1.250000000E+02  0.00000E+00  9.000E+00
      25     1     1     2     0     0  2.297031238E+01 -6.590339842E+02 -1.643725167E+03  1.775474824E+03  1.250000000E+02  0.00000E+00  9.000E+00
      21     1     1     2   512   502 -7.459003649E+01  3.868002868E+01  4.968908482E+00  8.416952069E+01  1.445335824E-06  0.00000E+00  9.000E+00
#rwgt            1           1   5.9569221406700686E-002           1      159598           0
</event>
<event>
      5   9999  3.19816E-02  1.63613E+02 -1.00000E+00  1.14918E-01
      21    -1     0     0   502   501  0.000000000E+00  0.000000000E+00  7.616044510E+02  7.616044510E+02  0.000000000E+00  0.00000E+00  9.000E+00
       2    -1     0     0   501     0  0.000000000E+00  0.000000000E+00 -4.146605004E+03  4.146605004E+03  0.000000000E+00  0.00000E+00  9.000E+00
      25     1     1     2     0     0  4.091166370E+02  7.861506580E+02  3.742503925E+02  9.701018689E+02  1.250000000E+02  0.00000E+00  9.000E+00
      25     1     1     2     0     0 -3.071701147E+02 -9.141199583E+02 -2.777222690E+03  2.942543057E+03  1.250000000E+02  0.00000E+00  9.000E+00
       2     1     1     2   502     0 -1.019465223E+02  1.279693003E+02 -9.820282555E+02  9.955645282E+02  1.078959322E-05  0.00000E+00  9.000E+00
#rwgt            1           1   3.1861182828190865E-002           1      159690           0
</event>
<event>
      5   9999  3.19816E-02  1.07971E+01 -1.00000E+00  1.91984E-01
      21    -1     0     0   502   501  0.000000000E+00  0.000000000E+00  7.012480544E+02  7.012480544E+02  0.000000000E+00  0.00000E+00  9.000E+00
      21    -1     0     0   511   502  0.000000000E+00  0.000000000E+00 -1.999052658E+03  1.999052658E+03  0.000000000E+00  0.00000E+00  9.000E+00
      25     1     1     2     0     0 -6.427785762E+02 -9.471770341E+02 -6.498827128E+02  1.322225840E+03  1.250000000E+02  0.00000E+00  9.000E+00
      25     1     1     2     0     0  6.330346643E+02  9.518282641E+02 -5.413928379E+02  1.271000053E+03  1.250000000E+02  0.00000E+00  9.000E+00
      21     1     1     2   511   501  9.743911936E+00 -4.651230031E+00 -1.065290527E+02  1.070748188E+02  0.000000000E+00  0.00000E+00  9.000E+00
#rwgt            1           1   4.8676692307643411E-002           1      159753           0
</event>
<event>
      5   9999  3.19816E-02  9.54214E+00 -1.00000E+00  1.98140E-01
      21    -1     0     0   502   501  0.000000000E+00  0.000000000E+00  2.908166169E+02  2.908166169E+02  0.000000000E+00  0.00000E+00  9.000E+00
       2    -1     0     0   501     0  0.000000000E+00  0.000000000E+00 -2.009871096E+03  2.009871096E+03  0.000000000E+00  0.00000E+00  9.000E+00
      25     1     1     2     0     0  6.143408722E+01  3.824332343E+02 -6.586728028E+01  4.123018608E+02  1.250000000E+02  0.00000E+00  9.000E+00
      25     1     1     2     0     0 -6.015190437E+01 -3.729776331E+02 -2.191041522E+02  4.542710599E+02  1.250000000E+02  0.00000E+00  9.000E+00
       2     1     1     2   502     0 -1.282182853E+00 -9.455601237E+00 -1.434083046E+03  1.434114792E+03  1.525878906E-05  0.00000E+00  9.000E+00
#rwgt            1           1   3.2331993079057007E-002           1      160146           0
</event>
<event>
      5   9999  3.19816E-02  1.51998E+02 -1.00000E+00  1.16166E-01
      21    -1     0     0   502   511  0.000000000E+00  0.000000000E+00  1.117487891E+02  1.117487891E+02  0.000000000E+00  0.00000E+00  9.000E+00
      21    -1     0     0   501   502  0.000000000E+00  0.000000000E+00 -1.244799436E+03  1.244799436E+03  0.000000000E+00  0.00000E+00  9.000E+00
      25     1     1     2     0     0  1.446494093E+02 -4.713140733E+01 -5.152579649E+02  5.515982157E+02  1.250000000E+02  0.00000E+00  9.000E+00
      25     1     1     2     0     0 -2.936094806E+02  1.689342130E+01 -5.551422192E+02  6.405464841E+02  1.250000000E+02  0.00000E+00  9.000E+00
      21     1     1     2   501   511  1.489600713E+02  3.023798603E+01 -6.265046270E+01  1.644035252E+02  2.523185073E-06  0.00000E+00  9.000E+00
#rwgt            1           1   2.8952954618517313E-002           1      160373           0
</event>
<event>
      5   9999  3.19816E-02  5.13046E+01 -1.00000E+00  1.38440E-01
       2    -1     0     0   502     0  0.000000000E+00  0.000000000E+00  1.358661795E+03  1.358661795E+03  0.000000000E+00  0.00000E+00  9.000E+00
      21    -1     0     0   501   502  0.000000000E+00  0.000000000E+00 -8.691837866E+02  8.691837866E+02  0.000000000E+00  0.00000E+00  9.000E+00
      25     1     1     2     0     0  6.716509583E+01  7.734707730E+02 -1.117975489E+02  7.942870254E+02  1.250000000E+02  0.00000E+00  9.000E+00
      25     1     1     2     0     0 -1.176374714E+02 -7.826740996E+02 -2.841723528E+01  8.017791841E+02  1.250000000E+02  0.00000E+00  9.000E+00
       2     1     1     2   501     0  5.047237553E+01  9.203326632E+00  6.296927930E+02  6.317793725E+02  7.629394531E-06  0.00000E+00  9.000E+00
#rwgt            1           1   2.1132668763654303E-002           1      160417           0
</event>
<event>
      5   9999  3.19816E-02  8.28784E+01 -1.00000E+00  1.27611E-01
      21    -1     0     0   502   501  0.000000000E+00  0.000000000E+00  1.110362739E+03  1.110362739E+03  0.000000000E+00  0.00000E+00  9.000E+00
       2    -1     0     0   501     0  0.000000000E+00  0.000000000E+00 -1.044900706E+03  1.044900706E+03  0.000000000E+00  0.00000E+00  9.000E+00
      25     1     1     2     0     0  3.279809783E+02  5.845661821E+02 -3.576366201E+02  7.699468133E+02  1.250000000E+02  0.00000E+00  9.000E+00
      25     1     1     2     0     0 -3.750027731E+02 -6.528141195E+02  7.368323837E+02  1.060820586E+03  1.250000000E+02  0.00000E+00  9.000E+00
       2     1     1     2   502     0  4.702179482E+01  6.824793740E+01 -3.137337308E+02  3.244960462E+02  7.629394531E-06  0.00000E+00  9.000E+00
#rwgt            2          13   5.5603505201715618E-004           1      160638           0
</event>
<event>
      5   9999  3.19816E-02  1.06024E+02 -1.00000E+00  1.22696E-01
      21    -1     0     0   502   511  0.000000000E+00  0.000000000E+00  2.554639626E+03  2.554639626E+03  0.000000000E+00  0.00000E+00  9.000E+00
      21    -1     0     0   501   502  0.000000000E+00  0.000000000E+00 -5.566409530E+02  5.566409530E+02  0.000000000E+00  0.00000E+00  9.000E+00
      25     1     1     2     0     0 -9.711483993E+02  4.660730887E+02  1.214384515E+03  1.628099532E+03  1.250000000E+02  0.00000E+00  9.000E+00
      25     1     1     2     0     0  8.827745691E+02 -5.246485151E+02  4.410547167E+02  1.124589377E+03  1.250000000E+02  0.00000E+00  9.000E+00
      21     1     1     2   501   511  8.837383024E+01  5.857542632E+01  3.425594417E+02  3.585916697E+02  0.000000000E+00  0.00000E+00  9.000E+00
#rwgt            1           1   2.8527923077238712E-002           1      160657           0
</event>
<event>
      5   9999  3.19816E-02  1.13600E+02 -1.00000E+00  1.21387E-01
      21    -1     0     0   512   501  0.000000000E+00  0.000000000E+00  2.156034001E+03  2.156034001E+03  0.000000000E+00  0.00000E+00  9.000E+00
      21    -1     0     0   501   502  0.000000000E+00  0.000000000E+00 -1.273238365E+02  1.273238365E+02  0.000000000E+00  0.00000E+00  9.000E+00
      25     1     1     2     0     0 -1.239569339E+02  3.547159328E+02  3.721376462E+02  5.434152576E+02  1.250000000E+02  0.00000E+00  9.000E+00
      25     1     1     2     0     0  2.329819026E+02 -3.228034089E+02  1.349211423E+03  1.412260270E+03  1.250000000E+02  0.00000E+00  9.000E+00
      21     1     1     2   512   502 -1.090249688E+02 -3.191252386E+01  3.073610958E+02  3.276823099E+02  3.814697266E-06  0.00000E+00  9.000E+00
#rwgt            1           1   2.7693173573854080E-002           1      160829           0
</event>
<event>
      5   9999  3.19816E-02  4.89780E+01 -1.00000E+00  1.39589E-01
      21    -1     0     0   502   501  0.000000000E+00  0.000000000E+00  1.049241005E+02  1.049241005E+02  0.000000000E+00  0.00000E+00  9.000E+00
      21    -1     0     0   501   511  0.000000000E+00  0.000000000E+00 -3.580849560E+02  3.580849560E+02  0.000000000E+00  0.00000E+00  9.000E+00
      25     1     1     2     0     0 -1.057230159E+02 -8.056478524E+01 -9.655189937E+01  2.064347596E+02  1.250000000E+02  0.00000E+00  9.000E+00
      25     1     1     2     0     0  5.816936878E+01  6.883885729E+01 -1.230468410E+02  1.972003773E+02  1.250000000E+02  0.00000E+00  9.000E+00
      21     1     1     2   502   511  4.755364715E+01  1.172592795E+01 -3.356211517E+01  5.937391951E+01  8.259061849E-07  0.00000E+00  9.000E+00
#rwgt            1           1   3.8148437398828790E-002           1      160943           0
</event>
<event>
      5   9999  3.19816E-02  1.05828E+02 -1.00000E+00  1.22731E-01
      21    -1     0     0   502   501  0.000000000E+00  0.000000000E+00  1.267185662E+03  1.267185662E+03  0.000000000E+00  0.00000E+00  9.000E+00
      21    -1     0     0   512   502  0.000000000E+00  0.000000000E+00 -3.520306563E+02  3.520306563E+02  0.000000000E+00  0.00000E+00  9.000E+00
      25     1     1     2     0     0 -5.690212197E+02 -2.019983647E+02  5.400136240E+02  8.196512685E+02  1.250000000E+02  0.00000E+00  9.000E+00
      25     1     1     2     0     0  5.226734473E+02  1.068588847E+02  4.140809772E+02  6.868001233E+02  1.250000000E+02  0.00000E+00  9.000E+00
      21     1     1     2   512   501  4.634777241E+01  9.513948000E+01 -3.893959501E+01  1.127649268E+02  6.743495762E-07  0.00000E+00  9.000E+00
#rwgt            1           1   3.0927919566772284E-002           1      161041           0
</event>
<event>
      5   9999  3.19816E-02  5.94105E+01 -1.00000E+00  1.34933E-01
      21    -1     0     0   502   501  0.000000000E+00  0.000000000E+00  5.698237709E+01  5.698237709E+01  0.000000000E+00  0.00000E+00  9.000E+00
       2    -1     0     0   501     0  0.000000000E+00  0.000000000E+00 -1.535008067E+03  1.535008067E+03  0.000000000E+00  0.00000E+00  9.000E+00
      25     1     1     2     0     0 -2.233330288E+01 -5.992401426E+01 -4.515637636E+02  4.728895182E+02  1.250000000E+02  0.00000E+00  9.000E+00
      25     1     1     2     0     0  5.000361114E+01  1.124974218E+02 -1.243720729E+02  2.150568380E+02  1.250000000E+02  0.00000E+00  9.000E+00
       2     1     1     2   502     0 -2.767030826E+01 -5.257340755E+01 -9.020898537E+02  9.040440881E+02  1.078959322E-05  0.00000E+00  9.000E+00
#rwgt            2          13   5.1153151793609328E-004           1      161133           0
</event>
<event>
      5   9999  3.19816E-02  1.60586E+01 -1.00000E+00  1.74638E-01
      21    -1     0     0   502   511  0.000000000E+00  0.000000000E+00  8.664188544E+02  8.664188544E+02  0.000000000E+00  0.00000E+00  9.000E+00
      21    -1     0     0   501   502  0.000000000E+00  0.000000000E+00 -2.115579152E+02  2.115579152E+02  0.000000000E+00  0.00000E+00  9.000E+00
      25     1     1     2     0     0  8.865239809E+01  2.764498966E+02  3.468432240E+02  4.692643339E+02  1.250000000E+02  0.00000E+00  9.000E+00
      25     1     1     2     0     0 -1.019331280E+02 -2.674221686E+02  1.228019830E+01  3.125392489E+02  1.250000000E+02  0.00000E+00  9.000E+00
      21     1     1     2   501   511  1.328072996E+01 -9.027728082E+00  2.957375169E+02  2.961731868E+02  5.394796609E-06  0.00000E+00  9.000E+00
#rwgt            1           1   2.9418697406289263E-002           1      161152           0
</event>
<event>
      5   9999  3.19816E-02  1.35064E+02 -1.00000E+00  1.18228E-01
      21    -1     0     0   512   501  0.000000000E+00  0.000000000E+00  2.294174735E+02  2.294174735E+02  0.000000000E+00  0.00000E+00  9.000E+00
      21    -1     0     0   501   502  0.000000000E+00  0.000000000E+00 -3.526754004E+02  3.526754004E+02  0.000000000E+00  0.00000E+00  9.000E+00
      25     1     1     2     0     0  1.149718786E+02  3.750414845E+01 -2.194328638E+02  2.800015638E+02  1.250000000E+02  0.00000E+00  9.000E+00
      25     1     1     2     0     0 -2.165485503E+01  6.013904396E+01  7.652507259E+00  1.406029808E+02  1.250000000E+02  0.00000E+00  9.000E+00
      21     1     1     2   512   502 -9.331702359E+01 -9.764319241E+01  8.852242971E+01  1.614883292E+02  3.015782986E-06  0.00000E+00  9.000E+00
#rwgt            1           1   3.4397588533570701E-002           1      161348           0
</event>
<event>
      5   9999  3.19816E-02  2.53469E+01 -1.00000E+00  1.58304E-01
      21    -1     0     0   502   511  0.000000000E+00  0.000000000E+00  2.194519087E+02  2.194519087E+02  0.000000000E+00  0.00000E+00  9.000E+00
      21    -1     0     0   501   502  0.000000000E+00  0.000000000E+00 -2.764566454E+02  2.764566454E+02  0.000000000E+00  0.00000E+00  9.000E+00
      25     1     1     2     0     0  1.879794202E+02 -5.466862606E+01 -1.517164758E+01  2.327661916E+02  1.250000000E+02  0.00000E+00  9.000E+00
      25     1     1     2     0     0 -1.783388269E+02  7.811051386E+01 -4.961535523E+01  2.366277098E+02  1.250000000E+02  0.00000E+00  9.000E+00
      21     1     1     2   501   511 -9.640593245E+00 -2.344188780E+01  7.782266164E+00  2.651465271E+01  3.576278687E-07  0.00000E+00  9.000E+00
#rwgt            1           1   2.7302969731161385E-002           1      161419           0
</event>
<event>
      5   9999  3.20944E-02  2.53947E+02 -1.00000E+00  1.07998E-01
      21    -1     0     0   502   501  0.000000000E+00  0.000000000E+00  2.148201510E+03  2.148201510E+03  0.000000000E+00  0.00000E+00  9.000E+00
       1    -1     0     0   501     0  0.000000000E+00  0.000000000E+00 -9.277154355E+02  9.277154355E+02  0.000000000E+00  0.00000E+00  9.000E+00
      25     1     1     2     0     0  3.948146048E+02  8.789765121E+02  1.380140007E+03  1.687865433E+03  1.250000000E+02  0.00000E+00  9.000E+00
      25     1     1     2     0     0 -1.906461522E+02 -1.029987094E+03  5.383739819E+01  1.056287288E+03  1.250000000E+02  0.00000E+00  9.000E+00
       1     1     1     2   502     0 -2.041684526E+02  1.510105822E+02 -2.134913300E+02  3.317642249E+02  5.394796609E-06  0.00000E+00  9.000E+00
#rwgt            1           1   7.2931288212763887E-002           1      161539           0
</event>
<event>
      5   9999  3.19816E-02  2.17184E+01 -1.00000E+00  1.63469E-01
      21    -1     0     0   502   501  0.000000000E+00  0.000000000E+00  2.358652262E+02  2.358652262E+02  0.000000000E+00  0.00000E+00  9.000E+00
      21    -1     0     0   511   502  0.000000000E+00  0.000000000E+00 -2.016317701E+03  2.016317701E+03  0.000000000E+00  0.00000E+00  9.000E+00
      25     1     1     2     0     0  1.376433298E+02 -3.712341450E+02 -2.729569702E+02  4.968812577E+02  1.250000000E+02  0.00000E+00  9.000E+00
      25     1     1     2     0     0 -1.471011987E+02  3.516832273E+02 -2.011633356E+02  4.487889734E+02  1.250000000E+02  0.00000E+00  9.000E+00
      21     1     1     2   511   501  9.457868931E+00  1.955091772E+01 -1.306332169E+03  1.306512696E+03  2.642899792E-05  0.00000E+00  9.000E+00
#rwgt            1           1   2.8265851986096279E-002           1      161610           0
</event>
<event>
      5   9999  3.19816E-02  1.26966E+02 -1.00000E+00  1.19337E-01
      21    -1     0     0   502   501  0.000000000E+00  0.000000000E+00  4.338065270E+02  4.338065270E+02  0.000000000E+00  0.00000E+00  9.000E+00
      21    -1     0     0   512   502  0.000000000E+00  0.000000000E+00 -5.694199130E+02  5.694199130E+02  0.000000000E+00  0.00000E+00  9.000E+00
      25     1     1     2     0     0 -1.469311184E+02  2.325973497E+02  3.091469551E+02  4.323044303E+02  1.250000000E+02  0.00000E+00  9.000E+00
      25     1     1     2     0     0  3.240635271E+01 -1.777849556E+02 -3.468267607E+02  4.105745536E+02  1.250000000E+02  0.00000E+00  9.000E+00
      21     1     1     2   512   501  1.145247657E+02 -5.481239410E+01 -9.793358035E+01  1.603474561E+02  1.348699152E-06  0.00000E+00  9.000E+00
#rwgt            1           1   2.8844995994261952E-002           1      161756           0
</event>
<event>
      5   9999  3.19816E-02  1.70094E+01 -1.00000E+00  1.72390E-01
      21    -1     0     0   511   501  0.000000000E+00  0.000000000E+00  2.301080938E+03  2.301080938E+03  0.000000000E+00  0.00000E+00  9.000E+00
      21    -1     0     0   501   502  0.000000000E+00  0.000000000E+00 -1.566264937E+02  1.566264937E+02  0.000000000E+00  0.00000E+00  9.000E+00
      25     1     1     2     0     0 -4.569322799E+02  8.202993859E+01  4.420577617E+02  6.531126119E+02  1.250000000E+02  0.00000E+00  9.000E+00
      25     1     1     2     0     0  4.555347330E+02 -6.507808412E+01  1.063893291E+03  1.165864908E+03  1.250000000E+02  0.00000E+00  9.000E+00
      21     1     1     2   511   502  1.397546839E+00 -1.695185446E+01  6.385033922E+02  6.387299119E+02  1.078959322E-05  0.00000E+00  9.000E+00
#rwgt            1           1   2.7561511332593699E-002           1      161818           0
</event>
<event>
      5   9999  3.19816E-02  5.80782E+01 -1.00000E+00  1.35463E-01
      21    -1     0     0   502   512  0.000000000E+00  0.000000000E+00  4.527103739E+01  4.527103739E+01  0.000000000E+00  0.00000E+00  9.000E+00
      21    -1     0     0   501   502  0.000000000E+00  0.000000000E+00 -1.627951160E+03  1.627951160E+03  0.000000000E+00  0.00000E+00  9.000E+00
      25     1     1     2     0     0  5.913048542E+01 -1.905588733E+02 -9.572457215E+02  9.857755677E+02  1.250000000E+02  0.00000E+00  9.000E+00
      25     1     1     2     0     0 -1.114086839E+00  1.878793635E+02 -5.246827240E+02  5.711539699E+02  1.250000000E+02  0.00000E+00  9.000E+00
      21     1     1     2   501   512 -5.801639858E+01  2.679509770E+00 -1.007516766E+02  1.162926593E+02  1.907348633E-06  0.00000E+00  9.000E+00
#rwgt            1           1   3.5191216352593181E-002           1      162040           0
</event>
<event>
      5   9999  3.19816E-02  3.41828E+01 -1.00000E+00  1.49204E-01
      21    -1     0     0   502   501  0.000000000E+00  0.000000000E+00  6.084618206E+02  6.084618206E+02  0.000000000E+00  0.00000E+00  9.000E+00
      21    -1     0     0   511   502  0.000000000E+00  0.000000000E+00 -8.078191478E+02  8.078191478E+02  0.000000000E+00  0.00000E+00  9.000E+00
      25     1     1     2     0     0 -3.062025038E+02  7.471975585E+01  8.290825881E+01  3.490584401E+02  1.250000000E+02  0.00000E+00  9.000E+00
      25     1     1     2     0     0  2.728268959E+02 -6.733536628E+01  3.316759741E+02  4.523300990E+02  1.250000000E+02  0.00000E+00  9.000E+00
      21     1     1     2   511   501  3.337560788E+01 -7.384389562E+00 -6.139415601E+02  6.148924293E+02  7.629394531E-06  0.00000E+00  9.000E+00
#rwgt            1           1   2.7325504180452573E-002           1      162137           0
</event>
<event>
      5   9999  3.19816E-02  1.82483E+02 -1.00000E+00  1.13117E-01
      21    -1     0     0   502   501  0.000000000E+00  0.000000000E+00  6.012394444E+02  6.012394444E+02  0.000000000E+00  0.00000E+00  9.000E+00
      21    -1     0     0   512   502  0.000000000E+00  0.000000000E+00 -3.114551808E+02  3.114551808E+02  0.000000000E+00  0.00000E+00  9.000E+00
      25     1     1     2     0     0 -8.971240304E+01  3.258391603E+00  7.728303505E+00  1.540897759E+02  1.250000000E+02  0.00000E+00  9.000E+00
      25     1     1     2     0     0  2.361725748E+02 -1.121130176E+02  4.335208084E+02  5.214519202E+02  1.250000000E+02  0.00000E+00  9.000E+00
      21     1     1     2   512   501 -1.464601717E+02  1.088546260E+02 -1.514648482E+02  2.371529290E+02  0.000000000E+00  0.00000E+00  9.000E+00
#rwgt            1           1   2.7543743181173107E-002           1      162249           0
</event>
<event>
      5   9999  3.19816E-02  6.34898E+01 -1.00000E+00  1.33404E-01
      21    -1     0     0   511   501  0.000000000E+00  0.000000000E+00  9.348652281E+02  9.348652281E+02  0.000000000E+00  0.00000E+00  9.000E+00
      21    -1     0     0   501   502  0.000000000E+00  0.000000000E+00 -6.954574919E+02  6.954574919E+02  0.000000000E+00  0.00000E+00  9.000E+00
      25     1     1     2     0     0 -2.405640583E+02  6.981888921E+02  2.892816945E+02  8.028995541E+02  1.250000000E+02  0.00000E+00  9.000E+00
      25     1     1     2     0     0  2.499607545E+02 -6.353983011E+02 -1.487639672E+02  7.099064007E+02  1.250000000E+02  0.00000E+00  9.000E+00
      21     1     1     2   511   502 -9.396696189E+00 -6.279059109E+01  9.889000900E+01  1.175167652E+02  1.348699152E-06  0.00000E+00  9.000E+00
#rwgt            1           1   3.1566998332227564E-002           1      162327           0
</event>
<event>
      5   9999  3.19816E-02  1.52333E+02 -1.00000E+00  1.16129E-01
      21    -1     0     0   502   501  0.000000000E+00  0.000000000E+00  2.832988559E+02  2.832988559E+02  0.000000000E+00  0.00000E+00  9.000E+00
       2    -1     0     0   501     0  0.000000000E+00  0.000000000E+00 -1.134348513E+03  1.134348513E+03  0.000000000E+00  0.00000E+00  9.000E+00
      25     1     1     2     0     0 -7.829450055E+01  3.887268415E+02 -3.134643220E+02  5.206951769E+02  1.250000000E+02  0.00000E+00  9.000E+00
      25     1     1     2     0     0  2.115579795E+02 -3.149292414E+02 -7.046401727E+01  4.056197523E+02  1.250000000E+02  0.00000E+00  9.000E+00
       2     1     1     2   502     0 -1.332634789E+02 -7.379760014E+01 -4.671213180E+02  4.913324397E+02  7.629394531E-06  0.00000E+00  9.000E+00
#rwgt            1           1   2.6402731323672001E-002           1      162445           0
</event>
<event>
      5   9999  3.19816E-02  7.92072E+01 -1.00000E+00  1.28559E-01
      21    -1     0     0   502   511  0.000000000E+00  0.000000000E+00  1.201929257E+03  1.201929257E+03  0.000000000E+00  0.00000E+00  9.000E+00
      21    -1     0     0   501   502  0.000000000E+00  0.000000000E+00 -2.386150506E+02  2.386150506E+02  0.000000000E+00  0.00000E+00  9.000E+00
      25     1     1     2     0     0  6.689265913E+01 -6.124239751E+01  1.218266197E+02  1.967027818E+02  1.250000000E+02  0.00000E+00  9.000E+00
      25     1     1     2     0     0  8.518359865E+00  3.701515516E+01 -1.782682770E+02  2.210141687E+02  1.250000000E+02  0.00000E+00  9.000E+00
      21     1     1     2   501   511 -7.541101899E+01  2.422724234E+01  1.019755863E+03  1.022827357E+03  2.157918644E-05  0.00000E+00  9.000E+00
#rwgt            1           1   2.7132957705366015E-002           1      162534           0
</event>
<event>
      5   9999  3.19816E-02  6.09455E+01 -1.00000E+00  1.34342E-01
      21    -1     0     0   502   512  0.000000000E+00  0.000000000E+00  6.993023987E+02  6.993023987E+02  0.000000000E+00  0.00000E+00  9.000E+00
      21    -1     0     0   501   502  0.000000000E+00  0.000000000E+00 -3.945414560E+02  3.945414560E+02  0.000000000E+00  0.00000E+00  9.000E+00
      25     1     1     2     0     0  4.199940333E+02  8.987526417E+01 -8.661289878E+01  4.556307116E+02  1.250000000E+02  0.00000E+00  9.000E+00
      25     1     1     2     0     0 -3.762897218E+02 -1.323522098E+02  2.570887507E+02  4.907450335E+02  1.250000000E+02  0.00000E+00  9.000E+00
      21     1     1     2   501   512 -4.370431149E+01  4.247694561E+01  1.342850908E+02  1.474681096E+02  1.907348633E-06  0.00000E+00  9.000E+00
#rwgt            1           1   3.1182332798182815E-002           1      162604           0
</event>
<event>
      5   9999  3.19816E-02  3.31380E+01 -1.00000E+00  1.50098E-01
      21    -1     0     0   502   501  0.000000000E+00  0.000000000E+00  8.437751511E+02  8.437751511E+02  0.000000000E+00  0.00000E+00  9.000E+00
      21    -1     0     0   511   502  0.000000000E+00  0.000000000E+00 -7.535401154E+02  7.535401154E+02  0.000000000E+00  0.00000E+00  9.000E+00
      25     1     1     2     0     0 -4.351883551E+02 -2.015156717E+01 -3.105436568E+02  5.494154647E+02  1.250000000E+02  0.00000E+00  9.000E+00
      25     1     1     2     0     0  4.038204010E+02  9.466108187E+00  6.614945802E+02  7.850863667E+02  1.250000000E+02  0.00000E+00  9.000E+00
      21     1     1     2   511   501  3.136795407E+01  1.068545899E+01 -2.607158877E+02  2.628134351E+02  0.000000000E+00  0.00000E+00  9.000E+00
#rwgt            1           1   3.1489815147538854E-002           1      162708           0
</event>
<event>
      5   9999  3.19816E-02  6.53059E+01 -1.00000E+00  1.32766E-01
      21    -1     0     0   502   512  0.000000000E+00  0.000000000E+00  6.557924733E+02  6.557924733E+02  0.000000000E+00  0.00000E+00  9.000E+00
      21    -1     0     0   501   502  0.000000000E+00  0.000000000E+00 -2.082987470E+02  2.082987470E+02  0.000000000E+00  0.00000E+00  9.000E+00
      25     1     1     2     0     0 -6.970150929E+01  1.455156407E+02 -1.274582295E+02  2.406318814E+02  1.250000000E+02  0.00000E+00  9.000E+00
      25     1     1     2     0     0  9.869633341E+00 -1.193430249E+02  4.561443402E+02  4.878860793E+02  1.250000000E+02  0.00000E+00  9.000E+00
      21     1     1     2   501   512  5.983187595E+01 -2.617261580E+01  1.188076156E+02  1.355732596E+02  1.348699152E-06  0.00000E+00  9.000E+00
#rwgt            1           1   2.6157886515323900E-002           1      162897           0
</event>
<event>
      5   9999  3.19816E-02  5.60526E+01 -1.00000E+00  1.36302E-01
      21    -1     0     0   502   501  0.000000000E+00  0.000000000E+00  5.162257680E+02  5.162257680E+02  0.000000000E+00  0.00000E+00  9.000E+00
      21    -1     0     0   511   502  0.000000000E+00  0.000000000E+00 -1.522988830E+02  1.522988830E+02  0.000000000E+00  0.00000E+00  9.000E+00
      25     1     1     2     0     0 -1.565901697E+02 -9.924350817E+01  5.190689505E+00  2.236553116E+02  1.250000000E+02  0.00000E+00  9.000E+00
      25     1     1     2     0     0  1.012000217E+02  9.065155087E+01  3.379437912E+02  3.850846064E+02  1.250000000E+02  0.00000E+00  9.000E+00
      21     1     1     2   511   501  5.539014798E+01  8.591957298E+00  2.079240429E+01  5.978473300E+01  5.331201500E-07  0.00000E+00  9.000E+00
#rwgt            2          11   2.7225693534557692E-003           1      162998           0
</event>
<event>
      5   9999  3.19816E-02  1.14284E+01 -1.00000E+00  1.89285E-01
      21    -1     0     0   502   512  0.000000000E+00  0.000000000E+00  1.282989362E+03  1.282989362E+03  0.000000000E+00  0.00000E+00  9.000E+00
      21    -1     0     0   501   502  0.000000000E+00  0.000000000E+00 -1.454767155E+02  1.454767155E+02  0.000000000E+00  0.00000E+00  9.000E+00
      25     1     1     2     0     0 -3.710137534E+02 -1.131251086E+02  6.853382486E+02  7.973468570E+02  1.250000000E+02  0.00000E+00  9.000E+00
      25     1     1     2     0     0  3.754183923E+02  1.236705846E+02  3.943038767E+02  5.721310426E+02  1.250000000E+02  0.00000E+00  9.000E+00
      21     1     1     2   501   512 -4.404638910E+00 -1.054547601E+01  5.787052107E+01  5.898817777E+01  6.743495762E-07  0.00000E+00  9.000E+00
#rwgt            1           1   3.2552884769111015E-002           1      163018           0
</event>
<event>
      5   9999  3.19816E-02  7.73236E+01 -1.00000E+00  1.29069E-01
      21    -1     0     0   502   501  0.000000000E+00  0.000000000E+00  7.854125296E+01  7.854125296E+01  0.000000000E+00  0.00000E+00  9.000E+00
       1    -1     0     0   501     0  0.000000000E+00  0.000000000E+00 -4.791989122E+03  4.791989122E+03  0.000000000E+00  0.00000E+00  9.000E+00
      25     1     1     2     0     0 -2.770903924E+02 -1.193488064E+02 -1.369117742E+03  1.407526772E+03  1.250000000E+02  0.00000E+00  9.000E+00
      25     1     1     2     0     0  3.392223601E+02  7.332102226E+01 -5.196576566E+02  6.372729885E+02  1.250000000E+02  0.00000E+00  9.000E+00
       1     1     1     2   502     0 -6.213196765E+01  4.602778416E+01 -2.824672470E+03  2.825730614E+03  6.103515625E-05  0.00000E+00  9.000E+00
#rwgt            1           1   2.9855637680867485E-002           1      163257           0
</event>
<event>
      5   9999  3.19816E-02  1.24347E+02 -1.00000E+00  1.19716E-01
      21    -1     0     0   502   501  0.000000000E+00  0.000000000E+00  3.037889109E+03  3.037889109E+03  0.000000000E+00  0.00000E+00  9.000E+00
      21    -1     0     0   511   502  0.000000000E+00  0.000000000E+00 -9.532849969E+02  9.532849969E+02  0.000000000E+00  0.00000E+00  9.000E+00
      25     1     1     2     0     0 -1.198198268E+03  1.058033174E+02  9.626391048E+02  1.545694820E+03  1.250000000E+02  0.00000E+00  9.000E+00
      25     1     1     2     0     0  1.231468368E+03  1.400996936E+01  1.559238541E+03  1.990869269E+03  1.250000000E+02  0.00000E+00  9.000E+00
      21     1     1     2   511   501 -3.327009989E+01 -1.198132868E+02 -4.372735337E+02  4.546100159E+02  9.344061824E-06  0.00000E+00  9.000E+00
#rwgt            2          11   1.1139898634558949E-002           1      163578           0
</event>
<event>
      5   9999  3.19816E-02  9.73143E+01 -1.00000E+00  1.24362E-01
       2    -1     0     0   502     0  0.000000000E+00  0.000000000E+00  1.006958137E+03  1.006958137E+03  0.000000000E+00  0.00000E+00  9.000E+00
      21    -1     0     0   501   502  0.000000000E+00  0.000000000E+00 -9.392847180E+01  9.392847180E+01  0.000000000E+00  0.00000E+00  9.000E+00
      25     1     1     2     0     0 -1.134208918E+01  3.483511025E+01  2.745870517E+02  3.039163978E+02  1.250000000E+02  0.00000E+00  9.000E+00
      25     1     1     2     0     0 -7.288787298E+01  1.390289959E+01 -5.740476999E+00  1.454781280E+02  1.250000000E+02  0.00000E+00  9.000E+00
       2     1     1     2   501     0  8.422996217E+01 -4.873800984E+01  6.441830904E+02  6.514920829E+02  7.629394531E-06  0.00000E+00  9.000E+00
#rwgt            1           1   2.3723701146865749E-002           1      163628           0
</event>
<event>
      5   9999  3.19816E-02  4.82790E+01 -1.00000E+00  1.39949E-01
      21    -1     0     0   511   501  0.000000000E+00  0.000000000E+00  4.161579449E+01  4.161579449E+01  0.000000000E+00  0.00000E+00  9.000E+00
      21    -1     0     0   501   502  0.000000000E+00  0.000000000E+00 -1.551810311E+03  1.551810311E+03  0.000000000E+00  0.00000E+00  9.000E+00
      25     1     1     2     0     0 -1.823395297E+00 -1.032613996E+02 -1.127846170E+03  1.139442068E+03  1.250000000E+02  0.00000E+00  9.000E+00
      25     1     1     2     0     0 -4.467263655E+01  1.162608440E+02 -3.597116158E+02  4.006615465E+02  1.250000000E+02  0.00000E+00  9.000E+00
      21     1     1     2   511   502  4.649603185E+01 -1.299944441E+01 -2.263673045E+01  5.332249148E+01  1.752011592E-06  0.00000E+00  9.000E+00
#rwgt            1           1   1.8490574835857167E-002           1      163661           0
</event>
<event>
      5   9999  3.19816E-02  8.11287E+01 -1.00000E+00  1.28056E-01
      21    -1     0     0   502   501  0.000000000E+00  0.000000000E+00  2.767123900E+02  2.767123900E+02  0.000000000E+00  0.00000E+00  9.000E+00
      21    -1     0     0   512   502  0.000000000E+00  0.000000000E+00 -1.301068609E+03  1.301068609E+03  0.000000000E+00  0.00000E+00  9.000E+00
      25     1     1     2     0     0  4.223963253E+02 -1.536968571E+02 -3.607762577E+02  5.897676556E+02  1.250000000E+02  0.00000E+00  9.000E+00
      25     1     1     2     0     0 -4.858707148E+02  2.042228011E+02 -3.076142981E+02  6.229196259E+02  1.250000000E+02  0.00000E+00  9.000E+00
      21     1     1     2   512   501  6.347438948E+01 -5.052594395E+01 -3.559656636E+02  3.650937178E+02  3.814697266E-06  0.00000E+00  9.000E+00
#rwgt            1           1   2.9869662836415751E-002           1      163763           0
</event>
<event>
      5   9999  3.19816E-02  7.18200E+01 -1.00000E+00  1.30659E-01
      21    -1     0     0   502   501  0.000000000E+00  0.000000000E+00  3.044832743E+02  3.044832743E+02  0.000000000E+00  0.00000E+00  9.000E+00
      -1    -1     0     0     0   502  0.000000000E+00  0.000000000E+00 -7.170309339E+02  7.170309339E+02  0.000000000E+00  0.00000E+00  9.000E+00
      25     1     1     2     0     0  2.869878675E+02 -5.338049886E+01 -7.960828939E+01  3.273743934E+02  1.250000000E+02  0.00000E+00  9.000E+00
      25     1     1     2     0     0 -3.449691826E+02  1.099804395E+01 -1.414452808E+01  3.673550893E+02  1.250000000E+02  0.00000E+00  9.000E+00
      -1     1     1     2     0   501  5.798131517E+01  4.238245490E+01 -3.187948422E+02  3.267847254E+02  3.814697266E-06  0.00000E+00  9.000E+00
#rwgt            1           1   2.4769901982275386E-002           1      163855           0
</event>
<event>
      5   9999  3.19816E-02  4.45449E+01 -1.00000E+00  1.42000E-01
      21    -1     0     0   502   511  0.000000000E+00  0.000000000E+00  8.660550356E+02  8.660550356E+02  0.000000000E+00  0.00000E+00  9.000E+00
      21    -1     0     0   501   502  0.000000000E+00  0.000000000E+00 -3.729383153E+02  3.729383153E+02  0.000000000E+00  0.00000E+00  9.000E+00
      25     1     1     2     0     0 -1.413554847E+02 -3.396292999E+02 -1.688665588E+02  4.236394092E+02  1.250000000E+02  0.00000E+00  9.000E+00
      25     1     1     2     0     0  1.715593310E+02  3.723703743E+02  6.227230323E+02  7.559770331E+02  1.250000000E+02  0.00000E+00  9.000E+00
      21     1     1     2   501   511 -3.020384630E+01 -3.274107444E+01  3.926024679E+01  5.937690851E+01  8.259061849E-07  0.00000E+00  9.000E+00
#rwgt            1           1   3.3664051978314458E-002           1      163942           0
</event>
<event>
      5   9999  3.19816E-02  3.17015E+01 -1.00000E+00  1.51394E-01
      21    -1     0     0   512   501  0.000000000E+00  0.000000000E+00  9.741985330E+02  9.741985330E+02  0.000000000E+00  0.00000E+00  9.000E+00
      21    -1     0     0   501   502  0.000000000E+00  0.000000000E+00 -1.557647201E+02  1.557647201E+02  0.000000000E+00  0.00000E+00  9.000E+00
      25     1     1     2     0     0  1.556381053E+02 -4.113904975E+01 -6.542463960E+01  2.140584610E+02  1.250000000E+02  0.00000E+00  9.000E+00
      25     1     1     2     0     0 -1.471034610E+02  7.167008021E+01  7.133825858E+02  7.425063922E+02  1.250000000E+02  0.00000E+00  9.000E+00
      21     1     1     2   512   502 -8.534644315E+00 -3.053103046E+01  1.704758667E+02  1.733983999E+02  1.907348633E-06  0.00000E+00  9.000E+00
#rwgt            1           1   2.8072547235399641E-002           1      164097           0
</event>
<event>
      5   9999  3.19816E-02  6.43501E+01 -1.00000E+00  1.33099E-01
      21    -1     0     0   502   501  0.000000000E+00  0.000000000E+00  1.495057816E+03  1.495057816E+03  0.000000000E+00  0.00000E+00  9.000E+00
      21    -1     0     0   511   502  0.000000000E+00  0.000000000E+00 -1.492455255E+03  1.492455255E+03  0.000000000E+00  0.00000E+00  9.000E+00
      25     1     1     2     0     0  7.527213290E+02  5.401997853E+02  1.125632465E+03  1.463242514E+03  1.250000000E+02  0.00000E+00  9.000E+00
      25     1     1     2     0     0 -8.100615569E+02 -5.109930032E+02 -1.062737581E+03  1.436088347E+03  1.250000000E+02  0.00000E+00  9.000E+00
      21     1     1     2   511   501  5.734022793E+01 -2.920678209E+01 -6.029232279E+01  8.818220936E+01  1.651812370E-06  0.00000E+00  9.000E+00
#rwgt            2          11   7.8187767515807152E-002           1      164214           0
</event>
<event>
      5   9999  3.19816E-02  5.76442E+01 -1.00000E+00  1.35640E-01
      21    -1     0     0   512   501  0.000000000E+00  0.000000000E+00  5.864004441E+02  5.864004441E+02  0.000000000E+00  0.00000E+00  9.000E+00
      21    -1     0     0   501   502  0.000000000E+00  0.000000000E+00 -3.214593217E+02  3.214593217E+02  0.000000000E+00  0.00000E+00  9.000E+00
      25     1     1     2     0     0  2.866220637E+02 -1.636242976E+02  2.839722165E+02  4.529794012E+02  1.250000000E+02  0.00000E+00  9.000E+00
      25     1     1     2     0     0 -3.366684401E+02  1.350198908E+02 -5.401423787E+01  3.874513484E+02  1.250000000E+02  0.00000E+00  9.000E+00
      21     1     1     2   512   502  5.004637638E+01  2.860440682E+01  3.498314370E+01  6.742901617E+01  6.743495762E-07  0.00000E+00  9.000E+00
#rwgt            1           1   2.7987646308983365E-002           1      164249           0
</event>
<event>
      5   9999  3.93985E-02  3.26299E+01 -1.00000E+00  1.50548E-01
      21    -1     0     0   502   511  0.000000000E+00  0.000000000E+00  1.927063439E+03  1.927063439E+03  0.000000000E+00  0.00000E+00  9.000E+00
      21    -1     0     0   501   502  0.000000000E+00  0.000000000E+00 -7.461254919E+02  7.461254919E+02  0.000000000E+00  0.00000E+00  9.000E+00
      25     1     1     2     0     0 -6.111373103E+02  9.057050820E+02  1.157979436E+02  1.105814031E+03  1.250000000E+02  0.00000E+00  9.000E+00
      25     1     1     2     0     0  6.425474912E+02 -8.968671449E+02  9.989289160E+02  1.493560154E+03  1.250000000E+02  0.00000E+00  9.000E+00
      21     1     1     2   501   511 -3.141018094E+01 -8.837937065E+00  6.621108760E+01  7.381474595E+01  0.000000000E+00  0.00000E+00  9.000E+00
#rwgt            1           1   9.4517214914140779E-002           1      164372           0
</event>
<event>
      5   9999  3.19816E-02  1.45926E+01 -1.00000E+00  1.78518E-01
      21    -1     0     0   502   512  0.000000000E+00  0.000000000E+00  3.952928111E+02  3.952928111E+02  0.000000000E+00  0.00000E+00  9.000E+00
      21    -1     0     0   501   502  0.000000000E+00  0.000000000E+00 -2.875154877E+02  2.875154877E+02  0.000000000E+00  0.00000E+00  9.000E+00
      25     1     1     2     0     0 -1.570470371E+02  1.993264059E+02 -9.821185314E+01  2.994417407E+02  1.250000000E+02  0.00000E+00  9.000E+00
      25     1     1     2     0     0  1.711298220E+02 -2.031499105E+02  1.583637471E+02  3.335556603E+02  1.250000000E+02  0.00000E+00  9.000E+00
      21     1     1     2   501   512 -1.408278484E+01  3.823504577E+00  4.762542939E+01  4.981089781E+01  0.000000000E+00  0.00000E+00  9.000E+00
#rwgt            1           1   2.6615632711874972E-002           1      164592           0
</event>
<event>
      5   9999  3.19816E-02  2.83632E+01 -1.00000E+00  1.54752E-01
      21    -1     0     0   502   501  0.000000000E+00  0.000000000E+00  1.025612992E+03  1.025612992E+03  0.000000000E+00  0.00000E+00  9.000E+00
      21    -1     0     0   511   502  0.000000000E+00  0.000000000E+00 -8.369225494E+01  8.369225494E+01  0.000000000E+00  0.00000E+00  9.000E+00
      25     1     1     2     0     0  1.966249925E+02  1.317132241E+02  6.636417552E+02  7.155802822E+02  1.250000000E+02  0.00000E+00  9.000E+00
      25     1     1     2     0     0 -1.683572847E+02 -1.340387411E+02  2.371692448E+02  3.437801770E+02  1.250000000E+02  0.00000E+00  9.000E+00
      21     1     1     2   511   501 -2.826770777E+01  2.325517002E+00  4.110973672E+01  4.994478736E+01  8.259061849E-07  0.00000E+00  9.000E+00
#rwgt            1           1   2.8920416273912848E-002           1      164757           0
</event>
<event>
      5   9999  3.19816E-02  1.07962E+02 -1.00000E+00  1.22350E-01
      21    -1     0     0   512   501  0.000000000E+00  0.000000000E+00  9.786856559E+01  9.786856559E+01  0.000000000E+00  0.00000E+00  9.000E+00
      21    -1     0     0   501   502  0.000000000E+00  0.000000000E+00 -1.049604945E+03  1.049604945E+03  0.000000000E+00  0.00000E+00  9.000E+00
      25     1     1     2     0     0 -1.007355675E+02  2.233597708E+02 -5.399881745E+02  6.060111140E+02  1.250000000E+02  0.00000E+00  9.000E+00
      25     1     1     2     0     0  1.088301607E+02 -1.157017915E+02 -3.774835198E+02  4.281935498E+02  1.250000000E+02  0.00000E+00  9.000E+00
      21     1     1     2   512   502 -8.094593234E+00 -1.076579793E+02 -3.426468488E+01  1.132688464E+02  1.066240300E-06  0.00000E+00  9.000E+00
#rwgt            1           1   3.2013304689889319E-002           1      164856           0
</event>
<event>
      5   9999  3.19816E-02  2.87842E+01 -1.00000E+00  1.54298E-01
       2    -1     0     0   502     0  0.000000000E+00  0.000000000E+00  1.152870542E+03  1.152870542E+03  0.000000000E+00  0.00000E+00  9.000E+00
      21    -1     0     0   501   502  0.000000000E+00  0.000000000E+00 -8.952388934E+01  8.952388934E+01  0.000000000E+00  0.00000E+00  9.000E+00
      25     1     1     2     0     0  8.621964745E+00 -5.364327277E+01  7.318086285E+02  7.443929122E+02  1.250000000E+02  0.00000E+00  9.000E+00
      25     1     1     2     0     0 -3.584532111E+01  4.429360863E+01 -2.557098391E+01  1.397343409E+02  1.250000000E+02  0.00000E+00  9.000E+00
       2     1     1     2   501     0  2.722335636E+01  9.349664140E+00  3.571090085E+02  3.582671787E+02  3.814697266E-06  0.00000E+00  9.000E+00
#rwgt            1           1   3.1481021965544781E-002           1      164898           0
</event>
<event>
      5   9999  3.19816E-02  8.56715E+01 -1.00000E+00  1.26926E-01
      21    -1     0     0   502   511  0.000000000E+00  0.000000000E+00  6.105345355E+02  6.105345355E+02  0.000000000E+00  0.00000E+00  9.000E+00
      21    -1     0     0   501   502  0.000000000E+00  0.000000000E+00 -1.595308651E+02  1.595308651E+02  0.000000000E+00  0.00000E+00  9.000E+00
      25     1     1     2     0     0  1.036918812E+02  1.456327197E+02  5.054553087E+01  2.239212941E+02  1.250000000E+02  0.00000E+00  9.000E+00
      25     1     1     2     0     0 -1.849070691E+02 -1.729037176E+02  2.742432366E+02  3.935996349E+02  1.250000000E+02  0.00000E+00  9.000E+00
      21     1     1     2   501   511  8.121518786E+01  2.727099787E+01  1.262149030E+02  1.525444716E+02  1.348699152E-06  0.00000E+00  9.000E+00
#rwgt            1           1   2.6969705699281636E-002           1      165111           0
</event>
<event>
      5   9999  3.24661E-02  2.29708E+01 -1.00000E+00  1.61555E-01
      21    -1     0     0   502   501  0.000000000E+00  0.000000000E+00  9.379908250E+02  9.379908250E+02  0.000000000E+00  0.00000E+00  9.000E+00
      21    -1     0     0   501   512  0.000000000E+00  0.000000000E+00 -1.607631029E+03  1.607631029E+03  0.000000000E+00  0.00000E+00  9.000E+00
      25     1     1     2     0     0 -2.147166772E+02  1.380737785E+02  9.003276977E+02  9.441305964E+02  1.250000000E+02  0.00000E+00  9.000E+00
      25     1     1     2     0     0  2.337609281E+02 -1.252296056E+02 -1.462529637E+03  1.491624807E+03  1.250000000E+02  0.00000E+00  9.000E+00
      21     1     1     2   502   512 -1.904425090E+01 -1.284417294E+01 -1.074382650E+02  1.098664510E+02  1.907348633E-06  0.00000E+00  9.000E+00
#rwgt            1           1   7.5756828316450517E-002           1      165163           0
</event>
<event>
      5   9999  3.19816E-02  6.41294E+01 -1.00000E+00  1.33177E-01
      21    -1     0     0   502   511  0.000000000E+00  0.000000000E+00  9.400632430E+02  9.400632430E+02  0.000000000E+00  0.00000E+00  9.000E+00
      21    -1     0     0   501   502  0.000000000E+00  0.000000000E+00 -3.080499586E+02  3.080499586E+02  0.000000000E+00  0.00000E+00  9.000E+00
      25     1     1     2     0     0  2.143523974E+01 -3.571692250E+02  5.789532300E+02  6.919835022E+02  1.250000000E+02  0.00000E+00  9.000E+00
      25     1     1     2     0     0 -9.822555602E+00  4.202384066E+02 -4.298078499E+01  4.406462854E+02  1.250000000E+02  0.00000E+00  9.000E+00
      21     1     1     2   501   511 -1.161268414E+01 -6.306918158E+01  9.604083935E+01  1.154834141E+02  1.348699152E-06  0.00000E+00  9.000E+00
#rwgt            1           1   2.5028818694384166E-002           1      165429           0
</event>
<event>
      5   9999  3.19816E-02  1.19988E+02 -1.00000E+00  1.20370E-01
      21    -1     0     0   502   501  0.000000000E+00  0.000000000E+00  3.313783879E+02  3.313783879E+02  0.000000000E+00  0.00000E+00  9.000E+00
      21    -1     0     0   501   512  0.000000000E+00  0.000000000E+00 -1.032016106E+03  1.032016106E+03  0.000000000E+00  0.00000E+00  9.000E+00
      25     1     1     2     0     0  1.192688321E+02 -3.518091419E+01 -1.068051187E+02  2.061433589E+02  1.250000000E+02  0.00000E+00  9.000E+00
      25     1     1     2     0     0 -1.786742693E+01 -2.896578715E+01  2.624075076E+02  2.926447707E+02  1.250000000E+02  0.00000E+00  9.000E+00
      21     1     1     2   502   512 -1.014014051E+02  6.414670134E+01 -8.562401075E+02  8.646063647E+02  0.000000000E+00  0.00000E+00  9.000E+00
#rwgt            1           1   2.3548637630268977E-002           1      165592           0
</event>
<event>
      5   9999  3.19816E-02  5.32662E+01 -1.00000E+00  1.37525E-01
      21    -1     0     0   502   501  0.000000000E+00  0.000000000E+00  1.817223454E+03  1.817223454E+03  0.000000000E+00  0.00000E+00  9.000E+00
      21    -1     0     0   501   511  0.000000000E+00  0.000000000E+00 -9.308368193E+01  9.308368193E+01  0.000000000E+00  0.00000E+00  9.000E+00
      25     1     1     2     0     0 -2.132232016E+02 -1.098202254E+01  1.390888575E+03  1.412721051E+03  1.250000000E+02  0.00000E+00  9.000E+00
      25     1     1     2     0     0  2.334389931E+02  6.026291810E+01  3.488400152E+02  4.420856693E+02  1.250000000E+02  0.00000E+00  9.000E+00
      21     1     1     2   502   511 -2.021579154E+01 -4.928089556E+01 -1.558881842E+01  5.550041580E+01  2.540025205E-06  0.00000E+00  9.000E+00
#rwgt            1           1   3.7393297716751477E-002           1      165653           0
</event>
<event>
      5   9999  3.19816E-02  8.93727E+01 -1.00000E+00  1.26063E-01
      21    -1     0     0   502   501  0.000000000E+00  0.000000000E+00  3.630514628E+02  3.630514628E+02  0.000000000E+00  0.00000E+00  9.000E+00
       5    -1     0     0   501     0  0.000000000E+00  0.000000000E+00 -4.174297813E+02  4.174297813E+02  0.000000000E+00  0.00000E+00  9.000E+00
      25     1     1     2     0     0  7.728356282E+01 -3.480582338E+02 -1.119584878E+01  3.779783462E+02  1.250000000E+02  0.00000E+00  9.000E+00
      25     1     1     2     0     0 -1.038126717E+02  2.627136888E+02 -1.698094205E+01  3.093685593E+02  1.250000000E+02  0.00000E+00  9.000E+00
       5     1     1     2   502     0  2.652910888E+01  8.534454497E+01 -2.620152762E+01  9.313433859E+01  1.118282261E-06  0.00000E+00  9.000E+00
#rwgt            1           1   2.7795611173876533E-002           1      165750           0
</event>
<event>
      5   9999  3.19816E-02  1.21300E+01 -1.00000E+00  1.86537E-01
      21    -1     0     0   511   501  0.000000000E+00  0.000000000E+00  2.836753896E+02  2.836753896E+02  0.000000000E+00  0.00000E+00  9.000E+00
      21    -1     0     0   501   502  0.000000000E+00  0.000000000E+00 -1.122550710E+03  1.122550710E+03  0.000000000E+00  0.00000E+00  9.000E+00
      25     1     1     2     0     0  1.501355185E+02  2.824860798E+01 -8.070862439E+02  8.308741559E+02  1.250000000E+02  0.00000E+00  9.000E+00
      25     1     1     2     0     0 -1.594914221E+02 -3.596901733E+01 -2.685156212E+02  3.383148279E+02  1.250000000E+02  0.00000E+00  9.000E+00
      21     1     1     2   511   502  9.355903604E+00  7.720409346E+00  2.367265444E+02  2.370371162E+02  2.697398305E-06  0.00000E+00  9.000E+00
#rwgt            1           1   2.8115384346768857E-002           1      165831           0
</event>
<event>
      5   9999  3.19816E-02  7.65746E+01 -1.00000E+00  1.29276E-01
      21    -1     0     0   502   512  0.000000000E+00  0.000000000E+00  1.060645095E+03  1.060645095E+03  0.000000000E+00  0.00000E+00  9.000E+00
      21    -1     0     0   501   502  0.000000000E+00  0.000000000E+00 -8.427953939E+02  8.427953939E+02  0.000000000E+00  0.00000E+00  9.000E+00
      25     1     1     2     0     0  2.393013223E+02 -2.847438508E+02 -7.172717682E+02  8.175866760E+02  1.250000000E+02  0.00000E+00  9.000E+00
      25     1     1     2     0     0 -3.131035152E+02  3.051621374E+02  6.688557281E+02  8.087958496E+02  1.250000000E+02  0.00000E+00  9.000E+00
      21     1     1     2   501   512  7.380219287E+01 -2.041828661E+01  2.662657410E+02  2.770579631E+02  3.814697266E-06  0.00000E+00  9.000E+00
#rwgt            1           1   3.2098637209291875E-002           1      166089           0
</event>
<event>
      5   9999  3.19816E-02  2.03530E+02 -1.00000E+00  1.11372E-01
      21    -1     0     0   502   501  0.000000000E+00  0.000000000E+00  6.532129613E+02  6.532129613E+02  0.000000000E+00  0.00000E+00  9.000E+00
      -4    -1     0     0     0   502  0.000000000E+00  0.000000000E+00 -5.513225038E+02  5.513225038E+02  0.000000000E+00  0.00000E+00  9.000E+00
      25     1     1     2     0     0  2.281434660E+02 -2.233018245E+02 -2.002894543E+02  3.970566854E+02  1.250000000E+02  0.00000E+00  9.000E+00
      25     1     1     2     0     0 -4.563719728E+01  1.332131324E+02  4.934651568E+02  5.281679216E+02  1.250000000E+02  0.00000E+00  9.000E+00
      -4     1     1     2     0   501 -1.825062687E+02  9.008869213E+01 -1.912852450E+02  2.793108582E+02  3.814697266E-06  0.00000E+00  9.000E+00
#rwgt            1           1   3.0965851278580581E-002           1      166209           0
</event>
<event>
      5   9999  3.19816E-02  5.66092E+01 -1.00000E+00  1.36067E-01
      21    -1     0     0   502   511  0.000000000E+00  0.000000000E+00  3.179084113E+02  3.179084113E+02  0.000000000E+00  0.00000E+00  9.000E+00
      21    -1     0     0   501   502  0.000000000E+00  0.000000000E+00 -1.100552303E+03  1.100552303E+03  0.000000000E+00  0.00000E+00  9.000E+00
      25     1     1     2     0     0  9.271900943E+01 -2.161586620E+02 -1.853861022E+02  3.245217847E+02  1.250000000E+02  0.00000E+00  9.000E+00
      25     1     1     2     0     0 -1.424621311E+02  2.431813739E+02 -8.137335225E+02  8.701838226E+02  1.250000000E+02  0.00000E+00  9.000E+00
      21     1     1     2   501   511  4.974312166E+01 -2.702271191E+01  2.164757328E+02  2.237551072E+02  2.697398305E-06  0.00000E+00  9.000E+00
#rwgt            1           1   3.2207598392569953E-002           1      166273           0
</event>
<event>
      5   9999  3.19816E-02  4.23964E+01 -1.00000E+00  1.43290E-01
      21    -1     0     0   512   501  0.000000000E+00  0.000000000E+00  5.192583405E+02  5.192583405E+02  0.000000000E+00  0.00000E+00  9.000E+00
      21    -1     0     0   501   502  0.000000000E+00  0.000000000E+00 -1.410207108E+03  1.410207108E+03  0.000000000E+00  0.00000E+00  9.000E+00
      25     1     1     2     0     0 -3.873380643E+02 -3.491665668E+02  2.769267923E+02  6.035408153E+02  1.250000000E+02  0.00000E+00  9.000E+00
      25     1     1     2     0     0  4.268067070E+02  3.336849894E+02 -1.154601463E+03  1.281498800E+03  1.250000000E+02  0.00000E+00  9.000E+00
      21     1     1     2   512   502 -3.946864264E+01  1.548157736E+01 -1.327409713E+01  4.442583307E+01  4.129530925E-07  0.00000E+00  9.000E+00
#rwgt            1           1   2.8247037958714374E-002           1      166396           0
</event>
<event>
      5   9999  3.19816E-02  1.13846E+02 -1.00000E+00  1.21347E-01
       2    -1     0     0   502     0  0.000000000E+00  0.000000000E+00  1.337613945E+03  1.337613945E+03  0.000000000E+00  0.00000E+00  9.000E+00
      21    -1     0     0   501   502  0.000000000E+00  0.000000000E+00 -4.675478328E+01  4.675478328E+01  0.000000000E+00  0.00000E+00  9.000E+00
      25     1     1     2     0     0  8.452136544E+01  7.832665740E+01  3.134743842E+02  3.566091923E+02  1.250000000E+02  0.00000E+00  9.000E+00
      25     1     1     2     0     0 -1.606022246E+02  6.364213452E+00  6.499954659E+02  6.811407222E+02  1.250000000E+02  0.00000E+00  9.000E+00
       2     1     1     2   501     0  7.608085912E+01 -8.469087085E+01  3.273893121E+02  3.466188143E+02  3.814697266E-06  0.00000E+00  9.000E+00
#rwgt            1           1   2.7062760526598451E-002           1      166577           0
</event>
<event>
      5   9999  3.19816E-02  1.32792E+02 -1.00000E+00  1.18530E-01
      21    -1     0     0   502   501  0.000000000E+00  0.000000000E+00  1.462253808E+03  1.462253808E+03  0.000000000E+00  0.00000E+00  9.000E+00
      21    -1     0     0   501   511  0.000000000E+00  0.000000000E+00 -5.941866203E+02  5.941866203E+02  0.000000000E+00  0.00000E+00  9.000E+00
      25     1     1     2     0     0  5.268953505E+02 -5.158641205E+02  7.869178333E+02  1.085633077E+03  1.250000000E+02  0.00000E+00  9.000E+00
      25     1     1     2     0     0 -5.093875075E+02  6.474964149E+02  8.753019663E+01  8.378626232E+02  1.250000000E+02  0.00000E+00  9.000E+00
      21     1     1     2   502   511 -1.750784303E+01 -1.316322944E+02 -6.380842614E+00  1.329447278E+02  2.721002629E-06  0.00000E+00  9.000E+00
#rwgt            1           1   3.3128428831370668E-002           1      166628           0
</event>
<event>
      5   9999  3.19816E-02  3.04091E+01 -1.00000E+00  1.52632E-01
      21    -1     0     0   502   501  0.000000000E+00  0.000000000E+00  5.835934648E+02  5.835934648E+02  0.000000000E+00  0.00000E+00  9.000E+00
      21    -1     0     0   512   502  0.000000000E+00  0.000000000E+00 -2.238323642E+02  2.238323642E+02  0.000000000E+00  0.00000E+00  9.000E+00
      25     1     1     2     0     0 -2.858534425E+02 -1.038572943E+02  2.264047501E+02  3.992275529E+02  1.250000000E+02  0.00000E+00  9.000E+00
      25     1     1     2     0     0  3.162543387E+02  1.031512806E+02  1.241958939E+02  3.764393889E+02  1.250000000E+02  0.00000E+00  9.000E+00
      21     1     1     2   512   501 -3.040089629E+01  7.060136938E-01  9.160456616E+00  3.175888720E+01  5.331201500E-07  0.00000E+00  9.000E+00
#rwgt            1           1   2.8300424310974275E-002           1      166741           0
</event>
<event>
      5   9999  3.19816E-02  1.14569E+02 -1.00000E+00  1.21228E-01
      21    -1     0     0   511   501  0.000000000E+00  0.000000000E+00  1.258217826E+03  1.258217826E+03  0.000000000E+00  0.00000E+00  9.000E+00
      21    -1     0     0   501   502  0.000000000E+00  0.000000000E+00 -2.620412929E+02  2.620412929E+02  0.000000000E+00  0.00000E+00  9.000E+00
      25     1     1     2     0     0  3.724035135E+02  3.283185502E+02  4.544785851E+02  6.845825236E+02  1.250000000E+02  0.00000E+00  9.000E+00
      25     1     1     2     0     0 -4.419079692E+02 -2.372412529E+02  4.008662490E+02  6.541290507E+02  1.250000000E+02  0.00000E+00  9.000E+00
      21     1     1     2   511   502  6.950445569E+01 -9.107729733E+01  1.408316986E+02  1.815475441E+02  2.697398305E-06  0.00000E+00  9.000E+00
#rwgt            1           1   2.7292704146543494E-002           1      166903           0
</event>
<event>
      5   9999  3.19816E-02  1.09120E+02 -1.00000E+00  1.22147E-01
      21    -1     0     0   502   501  0.000000000E+00  0.000000000E+00  4.554782044E+01  4.554782044E+01  0.000000000E+00  0.00000E+00  9.000E+00
      21    -1     0     0   512   502  0.000000000E+00  0.000000000E+00 -2.793497580E+03  2.793497580E+03  0.000000000E+00  0.00000E+00  9.000E+00
      25     1     1     2     0     0  1.394291577E+01  3.177951664E+01 -1.755978407E+03  1.760763900E+03  1.250000000E+02  0.00000E+00  9.000E+00
      25     1     1     2     0     0 -2.323344812E+01  7.694467459E+01 -9.877122413E+01  1.784405525E+02  1.250000000E+02  0.00000E+00  9.000E+00
      21     1     1     2   512   501  9.290532347E+00 -1.087241912E+02 -8.932001278E+02  8.998409482E+02  1.078959322E-05  0.00000E+00  9.000E+00
#rwgt            1           1   2.5270160554033042E-002           1      166953           0
</event>
<event>
      5   9999  3.19816E-02  6.13315E+01 -1.00000E+00  1.34196E-01
      21    -1     0     0   502   501  0.000000000E+00  0.000000000E+00  1.757325179E+03  1.757325179E+03  0.000000000E+00  0.00000E+00  9.000E+00
      21    -1     0     0   501   511  0.000000000E+00  0.000000000E+00 -3.821146997E+01  3.821146997E+01  0.000000000E+00  0.00000E+00  9.000E+00
      25     1     1     2     0     0 -1.214170627E+02  6.749238755E+01  3.173533398E+02  3.682872083E+02  1.250000000E+02  0.00000E+00  9.000E+00
      25     1     1     2     0     0  8.491892363E+01 -1.167816802E+02  1.232726235E+03  1.247432625E+03  1.250000000E+02  0.00000E+00  9.000E+00
      21     1     1     2   502   511  3.649813911E+01  4.928929268E+01  1.690341343E+02  1.798168153E+02  2.697398305E-06  0.00000E+00  9.000E+00
#rwgt            1           1   3.6793972901491126E-002           1      166985           0
</event>
<event>
      5   9999  3.19816E-02  7.81512E+01 -1.00000E+00  1.28843E-01
      21    -1     0     0   502   501  0.000000000E+00  0.000000000E+00  5.606669820E+02  5.606669820E+02  0.000000000E+00  0.00000E+00  9.000E+00
      21    -1     0     0   512   502  0.000000000E+00  0.000000000E+00 -4.717162100E+02  4.717162100E+02  0.000000000E+00  0.00000E+00  9.000E+00
      25     1     1     2     0     0  1.508101820E+02 -2.256716036E+01 -5.119511088E+01  2.037128545E+02  1.250000000E+02  0.00000E+00  9.000E+00
      25     1     1     2     0     0 -7.267243986E+01  2.401743184E+01  4.686305323E+02  4.910170021E+02  1.250000000E+02  0.00000E+00  9.000E+00
      21     1     1     2   512   501 -7.813774209E+01 -1.450271478E+00 -3.284846494E+02  3.376533354E+02  0.000000000E+00  0.00000E+00  9.000E+00
#rwgt            1           1   2.7980680353505993E-002           1      167089           0
</event>
<event>
      5   9999  3.19816E-02  6.03813E+01 -1.00000E+00  1.34557E-01
      21    -1     0     0   502   511  0.000000000E+00  0.000000000E+00  6.529746704E+02  6.529746704E+02  0.000000000E+00  0.00000E+00  9.000E+00
      21    -1     0     0   501   502  0.000000000E+00  0.000000000E+00 -3.995657852E+02  3.995657852E+02  0.000000000E+00  0.00000E+00  9.000E+00
      25     1     1     2     0     0 -1.772188818E+02  3.418187463E+02  2.931564326E+02  4.998122461E+02  1.250000000E+02  0.00000E+00  9.000E+00
      25     1     1     2     0     0  1.508161912E+02 -3.961215617E+02 -1.146307034E+02  4.565336936E+02  1.250000000E+02  0.00000E+00  9.000E+00
      21     1     1     2   501   511  2.640269063E+01  5.430281539E+01  7.488315613E+01  9.619451598E+01  9.536743164E-07  0.00000E+00  9.000E+00
#rwgt            1           1   2.4966968270912548E-002           1      167192           0
</event>
<event>
      5   9999  3.19816E-02  1.79585E+02 -1.00000E+00  1.13377E-01
      21    -1     0     0   502   501  0.000000000E+00  0.000000000E+00  3.015629568E+02  3.015629568E+02  0.000000000E+00  0.00000E+00  9.000E+00
      21    -1     0     0   501   512  0.000000000E+00  0.000000000E+00 -8.828117105E+02  8.828117105E+02  0.000000000E+00  0.00000E+00  9.000E+00
      25     1     1     2     0     0 -2.431370356E+02 -3.765428646E+02 -2.758635911E+02  5.409490437E+02  1.250000000E+02  0.00000E+00  9.000E+00
      25     1     1     2     0     0  2.612999758E+02  1.978790989E+02 -8.840022601E+01  3.617643087E+02  1.250000000E+02  0.00000E+00  9.000E+00
      21     1     1     2   502   512 -1.816294018E+01  1.786637657E+02 -2.169849366E+02  2.816613148E+02  5.394796609E-06  0.00000E+00  9.000E+00
#rwgt            1           1   3.0762590925166294E-002           1      167288           0
</event>
<event>
      5   9999  3.19816E-02  5.61528E+01 -1.00000E+00  1.36260E-01
       1    -1     0     0   502     0  0.000000000E+00  0.000000000E+00  6.638854670E+02  6.638854670E+02  0.000000000E+00  0.00000E+00  9.000E+00
      21    -1     0     0   501   502  0.000000000E+00  0.000000000E+00 -1.128088387E+03  1.128088387E+03  0.000000000E+00  0.00000E+00  9.000E+00
      25     1     1     2     0     0  2.745992331E+02 -2.355969896E+02 -3.616504465E+02  5.266181973E+02  1.250000000E+02  0.00000E+00  9.000E+00
      25     1     1     2     0     0 -3.296784462E+02  2.465246809E+02 -6.146136643E+02  7.502248013E+02  1.250000000E+02  0.00000E+00  9.000E+00
       1     1     1     2   501     0  5.507921309E+01 -1.092769125E+01  5.120611912E+02  5.151308549E+02  7.629394531E-06  0.00000E+00  9.000E+00
#rwgt            1           1   2.8616373673167165E-002           1      167343           0
</event>
<event>
      5   9999  3.19816E-02  1.90357E+01 -1.00000E+00  1.68159E-01
      21    -1     0     0   502   501  0.000000000E+00  0.000000000E+00  1.907399193E+02  1.907399193E+02  0.000000000E+00  0.00000E+00  9.000E+00
      21    -1     0     0   501   511  0.000000000E+00  0.000000000E+00 -1.985690386E+02  1.985690386E+02  0.000000000E+00  0.00000E+00  9.000E+00
      25     1     1     2     0     0 -6.532203513E+00 -8.606052658E+01  1.067709741E+02  1.856720895E+02  1.250000000E+02  0.00000E+00  9.000E+00
      25     1     1     2     0     0  2.274011813E+01  7.607741598E+01 -9.310280674E+01  1.749228939E+02  1.250000000E+02  0.00000E+00  9.000E+00
      21     1     1     2   502   511 -1.620791462E+01  9.983110596E+00 -2.149728673E+01  2.871397448E+01  2.384185791E-07  0.00000E+00  9.000E+00
#rwgt            1           1   3.2919900054208945E-002           1      167456           0
</event>
<event>
      5   9999  3.19816E-02  6.71638E+01 -1.00000E+00  1.32137E-01
      21    -1     0     0   502   512  0.000000000E+00  0.000000000E+00  7.156672637E+02  7.156672637E+02  0.000000000E+00  0.00000E+00  9.000E+00
      21    -1     0     0   501   502  0.000000000E+00  0.000000000E+00 -3.520536845E+02  3.520536845E+02  0.000000000E+00  0.00000E+00  9.000E+00
      25     1     1     2     0     0  2.324692982E+02  2.468495324E+02 -1.306879543E+02  3.842928670E+02  1.250000000E+02  0.00000E+00  9.000E+00
      25     1     1     2     0     0 -2.192054343E+02 -3.126905578E+02  3.942585962E+02  5.629309443E+02  1.250000000E+02  0.00000E+00  9.000E+00
      21     1     1     2   501   512 -1.326386390E+01  6.584102543E+01  1.000429372E+02  1.204971369E+02  1.348699152E-06  0.00000E+00  9.000E+00
#rwgt            1           1   3.1649754092764625E-002           1      167592           0
</event>
<event>
      5   9999  3.19816E-02  4.73240E+01 -1.00000E+00  1.40452E-01
      21    -1     0     0   502   511  0.000000000E+00  0.000000000E+00  2.158257546E+03  2.158257546E+03  0.000000000E+00  0.00000E+00  9.000E+00
      21    -1     0     0   501   502  0.000000000E+00  0.000000000E+00 -4.212711139E+02  4.212711139E+02  0.000000000E+00  0.00000E+00  9.000E+00
      25     1     1     2     0     0  3.962358379E+00  2.490890528E+02  4.880756548E+02  5.620532904E+02  1.250000000E+02  0.00000E+00  9.000E+00
      25     1     1     2     0     0  1.396779737E+01 -2.052932604E+02 -3.461867150E+02  4.216760175E+02  1.250000000E+02  0.00000E+00  9.000E+00
      21     1     1     2   501   511 -1.793015575E+01 -4.379579234E+01  1.595097493E+03  1.595799352E+03  0.000000000E+00  0.00000E+00  9.000E+00
#rwgt            1           1   3.4062155844944188E-002           1      167694           0
</event>
<event>
      5   9999  3.19816E-02  1.25454E+02 -1.00000E+00  1.19555E-01
      -3    -1     0     0     0   501  0.000000000E+00  0.000000000E+00  3.855323561E+02  3.855323561E+02  0.000000000E+00  0.00000E+00  9.000E+00
      21    -1     0     0   501   502  0.000000000E+00  0.000000000E+00 -7.175108503E+02  7.175108503E+02  0.000000000E+00  0.00000E+00  9.000E+00
      25     1     1     2     0     0  1.460966116E+02  2.630172029E+00  4.391621039E+01  1.972429245E+02  1.250000000E+02  0.00000E+00  9.000E+00
      25     1     1     2     0     0 -1.262013830E+02  1.212359410E+02 -6.063786401E+02  6.433855746E+02  1.250000000E+02  0.00000E+00  9.000E+00
      -3     1     1     2     0   502 -1.989522860E+01 -1.238661130E+02  2.304839355E+02  2.624147073E+02  2.697398305E-06  0.00000E+00  9.000E+00
#rwgt            1           1   2.7274940507620513E-002           1      167825           0
</event>
<event>
      5   9999  3.19816E-02  3.67441E+01 -1.00000E+00  1.47165E-01
      21    -1     0     0   502   511  0.000000000E+00  0.000000000E+00  1.651232563E+02  1.651232563E+02  0.000000000E+00  0.00000E+00  9.000E+00
      21    -1     0     0   501   502  0.000000000E+00  0.000000000E+00 -4.405707662E+02  4.405707662E+02  0.000000000E+00  0.00000E+00  9.000E+00
      25     1     1     2     0     0  5.843411560E+01 -2.612831984E+01 -3.782143874E+02  4.034456070E+02  1.250000000E+02  0.00000E+00  9.000E+00
      25     1     1     2     0     0 -2.215467150E+01  2.030326915E+01  1.041852532E+02  1.654769446E+02  1.250000000E+02  0.00000E+00  9.000E+00
      21     1     1     2   501   511 -3.627944410E+01  5.825050689E+00 -1.418375677E+00  3.677147086E+01  8.280541891E-07  0.00000E+00  9.000E+00
#rwgt            1           1   2.9702061158864854E-002           1      167892           0
</event>
<event>
      5   9999  3.19816E-02  7.84581E+01 -1.00000E+00  1.28760E-01
      21    -1     0     0   512   501  0.000000000E+00  0.000000000E+00  1.002477633E+03  1.002477633E+03  0.000000000E+00  0.00000E+00  9.000E+00
      21    -1     0     0   501   502  0.000000000E+00  0.000000000E+00 -6.772058728E+02  6.772058728E+02  0.000000000E+00  0.00000E+00  9.000E+00
      25     1     1     2     0     0  1.326459875E+02 -2.616822704E+02 -5.769700394E+02  6.592359176E+02  1.250000000E+02  0.00000E+00  9.000E+00
      25     1     1     2     0     0 -1.729262389E+02  3.290111633E+02  6.827251428E+02  7.873312202E+02  1.250000000E+02  0.00000E+00  9.000E+00
      21     1     1     2   512   502  4.028025132E+01 -6.732889285E+01  2.195166569E+02  2.331163682E+02  2.697398305E-06  0.00000E+00  9.000E+00
#rwgt            1           1   2.7432168856597654E-002           1      168067           0
</event>
<event>
      5   9999  3.19816E-02  6.05420E+01 -1.00000E+00  1.34495E-01
      21    -1     0     0   511   501  0.000000000E+00  0.000000000E+00  3.947336327E+02  3.947336327E+02  0.000000000E+00  0.00000E+00  9.000E+00
      21    -1     0     0   501   502  0.000000000E+00  0.000000000E+00 -5.264856728E+02  5.264856728E+02  0.000000000E+00  0.00000E+00  9.000E+00
      25     1     1     2     0     0 -1.589607803E+02  3.658892410E+02 -4.921685446E+01  4.209403344E+02  1.250000000E+02  0.00000E+00  9.000E+00
      25     1     1     2     0     0  2.100138734E+02 -3.333482164E+02 -1.183306767E+02  4.299465192E+02  1.250000000E+02  0.00000E+00  9.000E+00
      21     1     1     2   511   502 -5.105309311E+01 -3.254102468E+01  3.579549109E+01  7.033245187E+01  9.536743164E-07  0.00000E+00  9.000E+00
#rwgt            1           1   3.5431236518688736E-002           1      168162           0
</event>
<event>
      5   9999  3.19816E-02  4.11658E+01 -1.00000E+00  1.44071E-01
      21    -1     0     0   502   512  0.000000000E+00  0.000000000E+00  1.131150463E+02  1.131150463E+02  0.000000000E+00  0.00000E+00  9.000E+00
      21    -1     0     0   501   502  0.000000000E+00  0.000000000E+00 -1.378982762E+03  1.378982762E+03  0.000000000E+00  0.00000E+00  9.000E+00
      25     1     1     2     0     0 -1.549694052E+02  2.970106009E+02 -5.308069744E+02  6.400092637E+02  1.250000000E+02  0.00000E+00  9.000E+00
      25     1     1     2     0     0  1.444714789E+02 -3.368153595E+02 -6.886557242E+02  7.900558848E+02  1.250000000E+02  0.00000E+00  9.000E+00
      21     1     1     2   501   512  1.049792629E+01  3.980475864E+01 -4.640501691E+01  6.203265964E+01  1.168007728E-06  0.00000E+00  9.000E+00
#rwgt            1           1   2.7811222714919388E-002           1      168269           0
</event>
<event>
      5   9999  3.19816E-02  5.89079E+01 -1.00000E+00  1.35131E-01
       3    -1     0     0   502     0  0.000000000E+00  0.000000000E+00  6.754989082E+02  6.754989082E+02  0.000000000E+00  0.00000E+00  9.000E+00
      21    -1     0     0   501   502  0.000000000E+00  0.000000000E+00 -1.109089445E+03  1.109089445E+03  0.000000000E+00  0.00000E+00  9.000E+00
      25     1     1     2     0     0  3.451505325E+02 -4.323587754E+01 -4.345905727E+02  5.705192346E+02  1.250000000E+02  0.00000E+00  9.000E+00
      25     1     1     2     0     0 -3.926529884E+02  8.398231954E+00 -5.347157286E+02  6.751242923E+02  1.250000000E+02  0.00000E+00  9.000E+00
       3     1     1     2   501     0  4.750245594E+01  3.483764559E+01  5.357157648E+02  5.389448261E+02  7.629394531E-06  0.00000E+00  9.000E+00
#rwgt            1           1   2.6898017722885883E-002           1      168402           0
</event>
<event>
      5   9999  3.19816E-02  7.71619E+01 -1.00000E+00  1.29113E-01
       1    -1     0     0   502     0  0.000000000E+00  0.000000000E+00  7.234660679E+02  7.234660679E+02  0.000000000E+00  0.00000E+00  9.000E+00
      21    -1     0     0   501   502  0.000000000E+00  0.000000000E+00 -4.457021092E+02  4.457021092E+02  0.000000000E+00  0.00000E+00  9.000E+00
      25     1     1     2     0     0  3.680952176E+02 -2.393446616E+02  1.712859497E+02  4.875898202E+02  1.250000000E+02  0.00000E+00  9.000E+00
      25     1     1     2     0     0 -4.358421219E+02  2.762812302E+02 -2.233131827E+01  5.314257814E+02  1.250000000E+02  0.00000E+00  9.000E+00
       1     1     1     2   501     0  6.774690435E+01 -3.693656862E+01  1.288093272E+02  1.501525755E+02  0.000000000E+00  0.00000E+00  9.000E+00
#rwgt            2          17   1.0353667392712017E-004           1      168507           0
</event>
<event>
      5   9999  3.19816E-02  2.14371E+02 -1.00000E+00  1.10562E-01
      21    -1     0     0   511   501  0.000000000E+00  0.000000000E+00  2.226861702E+03  2.226861702E+03  0.000000000E+00  0.00000E+00  9.000E+00
      21    -1     0     0   501   502  0.000000000E+00  0.000000000E+00 -1.155103325E+03  1.155103325E+03  0.000000000E+00  0.00000E+00  9.000E+00
      25     1     1     2     0     0  1.709773441E+02 -9.801067588E+02  1.317492781E+03  1.655673500E+03  1.250000000E+02  0.00000E+00  9.000E+00
      25     1     1     2     0     0 -3.842512793E+02  1.001769511E+03 -6.557227807E+02  1.263640995E+03  1.250000000E+02  0.00000E+00  9.000E+00
      21     1     1     2   511   502  2.132739352E+02 -2.166275208E+01  4.099883764E+02  4.626505323E+02  5.394796609E-06  0.00000E+00  9.000E+00
#rwgt            2          11   1.1076724455292930E-002           1      168616           0
</event>
<event>
      5   9999  3.19816E-02  1.91398E+01 -1.00000E+00  1.67960E-01
      21    -1     0     0   502   501  0.000000000E+00  0.000000000E+00  1.291370682E+03  1.291370682E+03  0.000000000E+00  0.00000E+00  9.000E+00
      21    -1     0     0   501   512  0.000000000E+00  0.000000000E+00 -8.884428950E+01  8.884428950E+01  0.000000000E+00  0.00000E+00  9.000E+00
      25     1     1     2     0     0 -1.221990917E+02  2.179605569E+02  6.334424819E+02  6.923249239E+02  1.250000000E+02  0.00000E+00  9.000E+00
      25     1     1     2     0     0  1.243181411E+02 -2.369826608E+02  5.898373906E+02  6.596581911E+02  1.250000000E+02  0.00000E+00  9.000E+00
      21     1     1     2   502   512 -2.119049446E+00  1.902210393E+01 -2.075347980E+01  2.823185670E+01  1.092571186E-06  0.00000E+00  9.000E+00
#rwgt            1           1   2.3492981825265720E-002           1      168681           0
</event>
<event>
      5   9999  3.19816E-02  4.08677E+01 -1.00000E+00  1.44265E-01
      21    -1     0     0   502   501  0.000000000E+00  0.000000000E+00  2.911330876E+02  2.911330876E+02  0.000000000E+00  0.00000E+00  9.000E+00
      21    -1     0     0   511   502  0.000000000E+00  0.000000000E+00 -2.362670630E+02  2.362670630E+02  0.000000000E+00  0.00000E+00  9.000E+00
      25     1     1     2     0     0 -1.406620475E+02 -7.142190076E+01  1.355750541E+02  2.426777592E+02  1.250000000E+02  0.00000E+00  9.000E+00
      25     1     1     2     0     0  1.815297010E+02  7.142722743E+01 -6.242842901E+01  2.399524743E+02  1.250000000E+02  0.00000E+00  9.000E+00
      21     1     1     2   511   501 -4.086765349E+01 -5.326672769E-03 -1.828060046E+01  4.476991716E+01  8.920806376E-07  0.00000E+00  9.000E+00
#rwgt            1           1   2.6450849769759369E-002           1      168872           0
</event>
<event>
      5   9999  3.19816E-02  2.58458E+02 -1.00000E+00  1.07739E-01
      21    -1     0     0   512   501  0.000000000E+00  0.000000000E+00  7.905413299E+01  7.905413299E+01  0.000000000E+00  0.00000E+00  9.000E+00
      21    -1     0     0   501   502  0.000000000E+00  0.000000000E+00 -4.187156195E+03  4.187156195E+03  0.000000000E+00  0.00000E+00  9.000E+00
      25     1     1     2     0     0  6.666780974E+01 -2.754922016E+02 -2.307923552E+03  2.328621196E+03  1.250000000E+02  0.00000E+00  9.000E+00
      25     1     1     2     0     0 -2.236668331E+02  7.018327768E+01 -1.567411096E+03  1.589765734E+03  1.250000000E+02  0.00000E+00  9.000E+00
      21     1     1     2   512   502  1.569990233E+02  2.053089239E+02 -2.327674137E+02  3.478233984E+02  7.629394531E-06  0.00000E+00  9.000E+00
#rwgt            2          11   1.2949400059301373E-003           1      168996           0
</event>
<event>
      5   9999  3.19816E-02  4.10361E+01 -1.00000E+00  1.44155E-01
      21    -1     0     0   502   501  0.000000000E+00  0.000000000E+00  2.269170723E+02  2.269170723E+02  0.000000000E+00  0.00000E+00  9.000E+00
      21    -1     0     0   501   511  0.000000000E+00  0.000000000E+00 -2.678509118E+02  2.678509118E+02  0.000000000E+00  0.00000E+00  9.000E+00
      25     1     1     2     0     0 -1.207358308E+02  7.876483296E+01  6.547268695E+01  2.017243478E+02  1.250000000E+02  0.00000E+00  9.000E+00
      25     1     1     2     0     0  8.038456433E+01 -8.623046032E+01  7.486117144E+00  1.719837563E+02  1.250000000E+02  0.00000E+00  9.000E+00
      21     1     1     2   502   511  4.035126651E+01  7.465627360E+00 -1.138926436E+02  1.210598801E+02  2.336015456E-06  0.00000E+00  9.000E+00
#rwgt            1           1   3.0595001944249248E-002           1      169061           0
</event>
<event>
      5   9999  3.19816E-02  1.41162E+01 -1.00000E+00  1.79905E-01
      21    -1     0     0   502   501  0.000000000E+00  0.000000000E+00  6.407326065E+02  6.407326065E+02  0.000000000E+00  0.00000E+00  9.000E+00
       2    -1     0     0   501     0  0.000000000E+00  0.000000000E+00 -1.126074169E+03  1.126074169E+03  0.000000000E+00  0.00000E+00  9.000E+00
      25     1     1     2     0     0 -1.208162675E+02  1.845091125E+02  2.616571125E+02  3.643207757E+02  1.250000000E+02  0.00000E+00  9.000E+00
      25     1     1     2     0     0  1.251148385E+02 -1.710633409E+02  2.815079608E+02  3.738824968E+02  1.250000000E+02  0.00000E+00  9.000E+00
       2     1     1     2   502     0 -4.298570966E+00 -1.344577159E+01 -1.028506636E+03  1.028603503E+03  1.525878906E-05  0.00000E+00  9.000E+00
#rwgt            1           1   3.0372305823700204E-002           1      169167           0
</event>
<event>
      5   9999  3.19816E-02  2.41850E+01 -1.00000E+00  1.59837E-01
      21    -1     0     0   511   501  0.000000000E+00  0.000000000E+00  1.276971020E+03  1.276971020E+03  0.000000000E+00  0.00000E+00  9.000E+00
      21    -1     0     0   501   502  0.000000000E+00  0.000000000E+00 -9.983628913E+01  9.983628913E+01  0.000000000E+00  0.00000E+00  9.000E+00
      25     1     1     2     0     0 -9.595581452E+01 -9.702712902E+01  7.400730465E+02  7.628596832E+02  1.250000000E+02  0.00000E+00  9.000E+00
      25     1     1     2     0     0  1.014421113E+02  1.205816779E+02  2.672992680E+01  2.029037505E+02  1.250000000E+02  0.00000E+00  9.000E+00
      21     1     1     2   511   502 -5.486296766E+00 -2.355454890E+01  4.103317573E+02  4.110438751E+02  9.344061824E-06  0.00000E+00  9.000E+00
#rwgt            1           1   2.9559242806210220E-002           1      169306           0
</event>
<event>
      5   9999  3.19816E-02  2.38342E+02 -1.00000E+00  1.08944E-01
      21    -1     0     0   502   501  0.000000000E+00  0.000000000E+00  8.796201482E+02  8.796201482E+02  0.000000000E+00  0.00000E+00  9.000E+00
      21    -1     0     0   501   512  0.000000000E+00  0.000000000E+00 -4.806524302E+02  4.806524302E+02  0.000000000E+00  0.00000E+00  9.000E+00
      25     1     1     2     0     0  1.525455439E+02  4.668550250E+01  7.728286497E+02  7.989610759E+02  1.250000000E+02  0.00000E+00  9.000E+00
      25     1     1     2     0     0  4.183518303E+01  9.123829729E+01 -6.948533226E+01  1.747221246E+02  1.250000000E+02  0.00000E+00  9.000E+00
      21     1     1     2   502   512 -1.943807269E+02 -1.379237998E+02 -3.043755994E+02  3.865893778E+02  9.344061824E-06  0.00000E+00  9.000E+00
#rwgt            2          11   5.0914884048606163E-003           1      169511           0
</event>
<event>
      5   9999  3.19816E-02  3.19526E+02 -1.00000E+00  1.04710E-01
      21    -1     0     0   511   501  0.000000000E+00  0.000000000E+00  2.704254749E+02  2.704254749E+02  0.000000000E+00  0.00000E+00  9.000E+00
      21    -1     0     0   501   502  0.000000000E+00  0.000000000E+00 -9.766890539E+02  9.766890539E+02  0.000000000E+00  0.00000E+00  9.000E+00
      25     1     1     2     0     0 -1.125276465E+02  5.919092494E+01 -1.574075096E+02  2.378406208E+02  1.250000000E+02  0.00000E+00  9.000E+00
      25     1     1     2     0     0  8.286178538E+01 -3.773372711E+02 -5.574214873E+02  6.896326603E+02  1.250000000E+02  0.00000E+00  9.000E+00
      21     1     1     2   511   502  2.966586115E+01  3.181463462E+02  8.565417888E+00  3.196412478E+02  3.041589456E-06  0.00000E+00  9.000E+00
#rwgt            1           1   2.9884514398370626E-002           1      169531           0
</event>
<event>
      5   9999  3.19816E-02  4.30973E+01 -1.00000E+00  1.42860E-01
      21    -1     0     0   512   501  0.000000000E+00  0.000000000E+00  1.196820524E+03  1.196820524E+03  0.000000000E+00  0.00000E+00  9.000E+00
      21    -1     0     0   501   502  0.000000000E+00  0.000000000E+00 -8.664664022E+01  8.664664022E+01  0.000000000E+00  0.00000E+00  9.000E+00
      25     1     1     2     0     0  9.031232242E+01  1.874356434E+02  3.825274942E+02  4.530350095E+02  1.250000000E+02  0.00000E+00  9.000E+00
      25     1     1     2     0     0 -7.420003809E+01 -2.274078130E+02  3.119254839E+02  4.124832924E+02  1.250000000E+02  0.00000E+00  9.000E+00
      21     1     1     2   512   502 -1.611228433E+01  3.997216954E+01  4.157209059E+02  4.179488625E+02  0.000000000E+00  0.00000E+00  9.000E+00
#rwgt            1           1   2.7719090598952657E-002           1      169571           0
</event>
<event>
      5   9999  3.19816E-02  1.40659E+02 -1.00000E+00  1.17511E-01
       1    -1     0     0   502     0  0.000000000E+00  0.000000000E+00  3.302056141E+03  3.302056141E+03  0.000000000E+00  0.00000E+00  9.000E+00
      21    -1     0     0   501   502  0.000000000E+00  0.000000000E+00 -3.096418412E+02  3.096418412E+02  0.000000000E+00  0.00000E+00  9.000E+00
      25     1     1     2     0     0  6.019928406E+02 -1.014747971E+02  5.149230577E+02  8.083707503E+02  1.250000000E+02  0.00000E+00  9.000E+00
      25     1     1     2     0     0 -6.527027767E+02  2.326751289E+02  6.130941433E+02  9.336316505E+02  1.250000000E+02  0.00000E+00  9.000E+00
       1     1     1     2   501     0  5.070993606E+01 -1.312003317E+02  1.864397099E+03  1.869695582E+03  3.051757812E-05  0.00000E+00  9.000E+00
#rwgt            1           1   2.5440778097842967E-002           1      169651           0
</event>
<event>
      5   9999  3.19816E-02  1.90870E+01 -1.00000E+00  1.68061E-01
      21    -1     0     0   502   511  0.000000000E+00  0.000000000E+00  3.007917621E+03  3.007917621E+03  0.000000000E+00  0.00000E+00  9.000E+00
      21    -1     0     0   501   502  0.000000000E+00  0.000000000E+00 -3.897920463E+02  3.897920463E+02  0.000000000E+00  0.00000E+00  9.000E+00
      25     1     1     2     0     0  7.629785093E+02 -6.992178079E+02  9.597062973E+02  1.416934341E+03  1.250000000E+02  0.00000E+00  9.000E+00
      25     1     1     2     0     0 -7.539797091E+02  6.823851947E+02  1.472523841E+03  1.793902567E+03  1.250000000E+02  0.00000E+00  9.000E+00
      21     1     1     2   501   511 -8.998800243E+00  1.683261316E+01  1.858954357E+02  1.868727596E+02  2.697398305E-06  0.00000E+00  9.000E+00
#rwgt            1           1   2.5657539395902474E-002           1      169718           0
</event>
<event>
      5   9999  3.19816E-02  5.10674E+01 -1.00000E+00  1.38554E-01
      21    -1     0     0   502   501  0.000000000E+00  0.000000000E+00  1.806469533E+03  1.806469533E+03  0.000000000E+00  0.00000E+00  9.000E+00
       2    -1     0     0   501     0  0.000000000E+00  0.000000000E+00 -6.506426231E+01  6.506426231E+01  0.000000000E+00  0.00000E+00  9.000E+00
      25     1     1     2     0     0  4.283087727E+01 -2.526491441E+02  1.189595272E+03  1.223285733E+03  1.250000000E+02  0.00000E+00  9.000E+00
      25     1     1     2     0     0 -3.836605188E+01  2.017772702E+02  5.463166720E+02  5.968860250E+02  1.250000000E+02  0.00000E+00  9.000E+00
       2     1     1     2   502     0 -4.464825397E+00  5.087187386E+01  5.493326731E+00  5.136203710E+01  6.078504936E-07  0.00000E+00  9.000E+00
#rwgt            1           1   3.0025331600668021E-002           1      169980           0
</event>
<event>
      5   9999  3.19816E-02  2.41582E+02 -1.00000E+00  1.08741E-01
      21    -1     0     0   502   511  0.000000000E+00  0.000000000E+00  2.443009876E+03  2.443009876E+03  0.000000000E+00  0.00000E+00  9.000E+00
      21    -1     0     0   501   502  0.000000000E+00  0.000000000E+00 -1.701825697E+02  1.701825697E+02  0.000000000E+00  0.00000E+00  9.000E+00
      25     1     1     2     0     0 -1.359206636E+02 -1.193754513E+02 -3.613400317E+01  2.228353459E+02  1.250000000E+02  0.00000E+00  9.000E+00
      25     1     1     2     0     0  2.308677864E+01  3.329883790E+02  1.661347346E+03  1.699151043E+03  1.250000000E+02  0.00000E+00  9.000E+00
      21     1     1     2   501   511  1.128338850E+02 -2.136129277E+02  6.476139632E+02  6.912060574E+02  7.629394531E-06  0.00000E+00  9.000E+00
#rwgt            1           1   2.6728502050539685E-002           1      170065           0
</event>
<event>
      5   9999  3.19816E-02  8.66464E+01 -1.00000E+00  1.26694E-01
      21    -1     0     0   502   501  0.000000000E+00  0.000000000E+00  6.568696773E+02  6.568696773E+02  0.000000000E+00  0.00000E+00  9.000E+00
      -2    -1     0     0     0   502  0.000000000E+00  0.000000000E+00 -2.449273294E+02  2.449273294E+02  0.000000000E+00  0.00000E+00  9.000E+00
      25     1     1     2     0     0 -4.561621345E+01  1.800964450E+02  3.402462088E+02  4.073181202E+02  1.250000000E+02  0.00000E+00  9.000E+00
      25     1     1     2     0     0  1.200696527E+02 -2.244167075E+02  1.947397471E+02  3.439885887E+02  1.250000000E+02  0.00000E+00  9.000E+00
      -2     1     1     2     0   501 -7.445343922E+01  4.432026251E+01 -1.230436079E+02  1.504902978E+02  3.568322551E-06  0.00000E+00  9.000E+00
#rwgt            1           1   2.7532944187665907E-002           1      170124           0
</event>
<event>
      5   9999  3.19816E-02  1.49539E+02 -1.00000E+00  1.16447E-01
      21    -1     0     0   502   511  0.000000000E+00  0.000000000E+00  1.608805267E+03  1.608805267E+03  0.000000000E+00  0.00000E+00  9.000E+00
      21    -1     0     0   501   502  0.000000000E+00  0.000000000E+00 -1.277590700E+02  1.277590700E+02  0.000000000E+00  0.00000E+00  9.000E+00
      25     1     1     2     0     0  2.348300527E+01 -2.022982067E+02  4.490041764E+02  5.086312677E+02  1.250000000E+02  0.00000E+00  9.000E+00
      25     1     1     2     0     0  7.168485596E+01  8.695134330E+01 -1.620223233E+01  1.690762166E+02  1.250000000E+02  0.00000E+00  9.000E+00
      21     1     1     2   501   511 -9.516786122E+01  1.153468635E+02  1.048244253E+03  1.058856852E+03  1.525878906E-05  0.00000E+00  9.000E+00
#rwgt            1           1   3.1536693941596451E-002           1      170280           0
</event>
<event>
      5   9999  3.19816E-02  1.19911E+02 -1.00000E+00  1.20382E-01
      21    -1     0     0   502   501  0.000000000E+00  0.000000000E+00  7.762380953E+02  7.762380953E+02  0.000000000E+00  0.00000E+00  9.000E+00
       5    -1     0     0   501     0  0.000000000E+00  0.000000000E+00 -1.849597827E+02  1.849597827E+02  0.000000000E+00  0.00000E+00  9.000E+00
      25     1     1     2     0     0 -1.614596521E+02 -7.181129553E+01  5.088573097E+02  5.529799663E+02  1.250000000E+02  0.00000E+00  9.000E+00
      25     1     1     2     0     0  1.044662815E+02  1.773115751E+02  1.363803361E+02  2.767258476E+02  1.250000000E+02  0.00000E+00  9.000E+00
       5     1     1     2   502     0  5.699337056E+01 -1.055002796E+02 -5.395933330E+01  1.314920641E+02  6.743495762E-07  0.00000E+00  9.000E+00
#rwgt            1           1   2.9568943700706042E-002           1      170358           0
</event>
<event>
      5   9999  3.19816E-02  1.47476E+02 -1.00000E+00  1.16686E-01
      21    -1     0     0   511   501  0.000000000E+00  0.000000000E+00  5.892572751E+02  5.892572751E+02  0.000000000E+00  0.00000E+00  9.000E+00
      21    -1     0     0   501   502  0.000000000E+00  0.000000000E+00 -9.168358099E+02  9.168358099E+02  0.000000000E+00  0.00000E+00  9.000E+00
      25     1     1     2     0     0 -7.132717887E+01 -1.148683345E+02 -4.516140636E+02  4.877115574E+02  1.250000000E+02  0.00000E+00  9.000E+00
      25     1     1     2     0     0  2.181763169E+02  1.284552349E+02 -3.911994282E+02  4.824558480E+02  1.250000000E+02  0.00000E+00  9.000E+00
      21     1     1     2   511   502 -1.468491380E+02 -1.358690041E+01  5.152349570E+02  5.359256796E+02  1.078959322E-05  0.00000E+00  9.000E+00
#rwgt            1           1   2.5384306605392964E-002           1      170401           0
</event>
<event>
      5   9999  3.19816E-02  7.30375E+02 -1.00000E+00  9.43911E-02
      21    -1     0     0   502   501  0.000000000E+00  0.000000000E+00  7.003700675E+02  7.003700675E+02  0.000000000E+00  0.00000E+00  9.000E+00
       2    -1     0     0   501     0  0.000000000E+00  0.000000000E+00 -9.900813497E+02  9.900813497E+02  0.000000000E+00  0.00000E+00  9.000E+00
      25     1     1     2     0     0 -2.129250161E+02  7.776786690E+01 -2.905046028E+02  3.891051630E+02  1.250000000E+02  0.00000E+00  9.000E+00
      25     1     1     2     0     0 -2.430586086E+02  4.927816622E+02 -6.868424998E+01  5.676740086E+02  1.250000000E+02  0.00000E+00  9.000E+00
       2     1     1     2   502     0  4.559836248E+02 -5.705495291E+02  6.947757050E+01  7.336722456E+02  1.601491511E-05  0.00000E+00  9.000E+00
#rwgt            2          13   4.3019473706748334E-004           1      170469           0
</event>
<event>
      5   9999  3.19816E-02  1.47487E+01 -1.00000E+00  1.78078E-01
      21    -1     0     0   502   511  0.000000000E+00  0.000000000E+00  3.706760582E+01  3.706760582E+01  0.000000000E+00  0.00000E+00  9.000E+00
      21    -1     0     0   501   502  0.000000000E+00  0.000000000E+00 -1.294235280E+03  1.294235280E+03  0.000000000E+00  0.00000E+00  9.000E+00
      25     1     1     2     0     0 -5.039541951E+00  1.628264661E+02 -5.337197394E+02  5.718562890E+02  1.250000000E+02  0.00000E+00  9.000E+00
      25     1     1     2     0     0  1.183242539E+01 -1.759177397E+02 -6.838624617E+02  7.172028471E+02  1.250000000E+02  0.00000E+00  9.000E+00
      21     1     1     2   501   511 -6.792883436E+00  1.309127362E+01 -3.958547343E+01  4.224375004E+01  6.743495762E-07  0.00000E+00  9.000E+00
#rwgt            1           1   2.7877865765719566E-002           1      170488           0
</event>
<event>
      5   9999  3.19816E-02  5.02774E+01 -1.00000E+00  1.38939E-01
      21    -1     0     0   502   501  0.000000000E+00  0.000000000E+00  8.435373809E+02  8.435373809E+02  0.000000000E+00  0.00000E+00  9.000E+00
      21    -1     0     0   501   512  0.000000000E+00  0.000000000E+00 -3.498746635E+02  3.498746635E+02  0.000000000E+00  0.00000E+00  9.000E+00
      25     1     1     2     0     0 -1.488044152E-01 -2.971682884E+02  3.963529824E+02  5.109106580E+02  1.250000000E+02  0.00000E+00  9.000E+00
      25     1     1     2     0     0 -4.477214466E+01  2.745867955E+02  3.271217255E+02  4.472539284E+02  1.250000000E+02  0.00000E+00  9.000E+00
      21     1     1     2   502   512  4.492094908E+01  2.258149285E+01 -2.298119905E+02  2.352474579E+02  3.814697266E-06  0.00000E+00  9.000E+00
#rwgt            1           1   2.9633013570436947E-002           1      170686           0
</event>
<event>
      5   9999  3.19816E-02  1.01483E+02 -1.00000E+00  1.23541E-01
      21    -1     0     0   502   501  0.000000000E+00  0.000000000E+00  6.464087565E+02  6.464087565E+02  0.000000000E+00  0.00000E+00  9.000E+00
      21    -1     0     0   511   502  0.000000000E+00  0.000000000E+00 -2.748166693E+02  2.748166693E+02  0.000000000E+00  0.00000E+00  9.000E+00
      25     1     1     2     0     0  6.607851503E+01 -3.626632493E+02  3.068493667E+02  4.956536456E+02  1.250000000E+02  0.00000E+00  9.000E+00
      25     1     1     2     0     0 -1.069414342E+02  2.697702760E+02  7.116388734E+01  3.238854289E+02  1.250000000E+02  0.00000E+00  9.000E+00
      21     1     1     2   511   501  4.086291920E+01  9.289297332E+01 -6.421166862E+00  1.016863513E+02  4.129530925E-07  0.00000E+00  9.000E+00
#rwgt            1           1   2.9314875749165914E-002           1      170779           0
</event>
<event>
      5   9999  3.19816E-02  1.53489E+02 -1.00000E+00  1.15999E-01
      21    -1     0     0   502   501  0.000000000E+00  0.000000000E+00  1.050021503E+03  1.050021503E+03  0.000000000E+00  0.00000E+00  9.000E+00
       2    -1     0     0   501     0  0.000000000E+00  0.000000000E+00 -1.092762388E+03  1.092762388E+03  0.000000000E+00  0.00000E+00  9.000E+00
      25     1     1     2     0     0  5.441826226E+01 -1.403556713E+02  7.949507377E+02  8.186774317E+02  1.250000000E+02  0.00000E+00  9.000E+00
      25     1     1     2     0     0 -8.309642850E+01  2.911418280E+02  1.240007533E+02  3.502424407E+02  1.250000000E+02  0.00000E+00  9.000E+00
       2     1     1     2   502     0  2.867816624E+01 -1.507861567E+02 -9.616923752E+02  9.738640186E+02  1.078959322E-05  0.00000E+00  9.000E+00
#rwgt            1           1   2.7563759948752872E-002           1      170867           0
</event>
<event>
      5   9999  3.19816E-02  6.05308E+01 -1.00000E+00  1.34499E-01
      21    -1     0     0   511   501  0.000000000E+00  0.000000000E+00  2.496197076E+03  2.496197076E+03  0.000000000E+00  0.00000E+00  9.000E+00
      21    -1     0     0   501   502  0.000000000E+00  0.000000000E+00 -1.289854287E+03  1.289854287E+03  0.000000000E+00  0.00000E+00  9.000E+00
      25     1     1     2     0     0 -1.162820129E+03 -1.346478168E+03  7.857119174E+02  1.948877196E+03  1.250000000E+02  0.00000E+00  9.000E+00
      25     1     1     2     0     0  1.117041146E+03  1.306876897E+03  3.826566838E+02  1.765717781E+03  1.250000000E+02  0.00000E+00  9.000E+00
      21     1     1     2   511   502  4.577898283E+01  3.960127120E+01  3.797418834E+01  7.145638481E+01  9.536743164E-07  0.00000E+00  9.000E+00
#rwgt            1           1   2.3827406879958702E-002           1      170942           0
</event>
<event>
      5   9999  3.19816E-02  9.29126E+01 -1.00000E+00  1.25281E-01
      21    -1     0     0   502   501  0.000000000E+00  0.000000000E+00  5.023913768E+02  5.023913768E+02  0.000000000E+00  0.00000E+00  9.000E+00
      21    -1     0     0   512   502  0.000000000E+00  0.000000000E+00 -1.131713065E+02  1.131713065E+02  0.000000000E+00  0.00000E+00  9.000E+00
      25     1     1     2     0     0  4.189767016E+01 -2.068582485E+01  3.059267486E+02  3.337656268E+02  1.250000000E+02  0.00000E+00  9.000E+00
      25     1     1     2     0     0 -2.009330206E+01  1.110037260E+02  2.041865861E+01  1.696098158E+02  1.250000000E+02  0.00000E+00  9.000E+00
      21     1     1     2   512   501 -2.180436810E+01 -9.031790118E+01  6.287466304E+01  1.121872408E+02  1.507891493E-06  0.00000E+00  9.000E+00
#rwgt            1           1   2.6725975277673994E-002           1      171122           0
</event>
<event>
      5   9999  3.19816E-02  1.13700E+01 -1.00000E+00  1.89525E-01
      21    -1     0     0   502   501  0.000000000E+00  0.000000000E+00  1.980660972E+02  1.980660972E+02  0.000000000E+00  0.00000E+00  9.000E+00
      21    -1     0     0   511   502  0.000000000E+00  0.000000000E+00 -1.098339373E+03  1.098339373E+03  0.000000000E+00  0.00000E+00  9.000E+00
      25     1     1     2     0     0 -3.639125397E+02 -2.474932398E+02 -5.729385593E+02  7.331908572E+02  1.250000000E+02  0.00000E+00  9.000E+00
      25     1     1     2     0     0  3.535828108E+02  2.427421831E+02 -3.163074503E+02  5.473755335E+02  1.250000000E+02  0.00000E+00  9.000E+00
      21     1     1     2   511   501  1.032972885E+01  4.751056689E+00 -1.102726618E+01  1.583907943E+01  2.064765462E-07  0.00000E+00  9.000E+00
#rwgt            1           1   2.8152791994543201E-002           1      171196           0
</event>
<event>
      5   9999  3.19816E-02  3.53899E+01 -1.00000E+00  1.48217E-01
      21    -1     0     0   512   501  0.000000000E+00  0.000000000E+00  1.485572794E+03  1.485572794E+03  0.000000000E+00  0.00000E+00  9.000E+00
      21    -1     0     0   501   502  0.000000000E+00  0.000000000E+00 -1.267522705E+02  1.267522705E+02  0.000000000E+00  0.00000E+00  9.000E+00
      25     1     1     2     0     0  3.457199535E+02 -1.126136345E+02  7.504862483E+02  8.432429815E+02  1.250000000E+02  0.00000E+00  9.000E+00
      25     1     1     2     0     0 -3.810153067E+02  1.100284893E+02  4.757505969E+02  6.318564416E+02  1.250000000E+02  0.00000E+00  9.000E+00
      21     1     1     2   512   502  3.529535316E+01  2.585145264E+00  1.325836784E+02  1.372256416E+02  1.907348633E-06  0.00000E+00  9.000E+00
#rwgt            1           1   2.9068277499344174E-002           1      171417           0
</event>
<event>
      5   9999  3.19816E-02  8.17339E+01 -1.00000E+00  1.27900E-01
      21    -1     0     0   502   501  0.000000000E+00  0.000000000E+00  2.264849586E+02  2.264849586E+02  0.000000000E+00  0.00000E+00  9.000E+00
       2    -1     0     0   501     0  0.000000000E+00  0.000000000E+00 -2.493101738E+03  2.493101738E+03  0.000000000E+00  0.00000E+00  9.000E+00
      25     1     1     2     0     0 -6.482556875E+01  2.889785676E+02 -2.396309712E+02  4.009475892E+02  1.250000000E+02  0.00000E+00  9.000E+00
      25     1     1     2     0     0  3.149477134E+01 -3.636076016E+02 -1.117235108E+02  4.016336034E+02  1.250000000E+02  0.00000E+00  9.000E+00
       2     1     1     2   502     0  3.333079741E+01  7.462903400E+01 -1.915262298E+03  1.917005504E+03  2.157918644E-05  0.00000E+00  9.000E+00
#rwgt            1           1   2.7678098442443354E-002           1      171569           0
</event>
<event>
      5   9999  3.19816E-02  7.87471E+01 -1.00000E+00  1.28682E-01
      21    -1     0     0   502   501  0.000000000E+00  0.000000000E+00  7.046498862E+02  7.046498862E+02  0.000000000E+00  0.00000E+00  9.000E+00
      21    -1     0     0   501   511  0.000000000E+00  0.000000000E+00 -9.884105596E+01  9.884105596E+01  0.000000000E+00  0.00000E+00  9.000E+00
      25     1     1     2     0     0 -9.619838560E+01 -6.691677234E+01  7.998290152E+01  1.890879381E+02  1.250000000E+02  0.00000E+00  9.000E+00
      25     1     1     2     0     0  1.706581222E+02  9.254598036E+01  4.462677115E+02  5.024627583E+02  1.250000000E+02  0.00000E+00  9.000E+00
      21     1     1     2   502   511 -7.445973664E+01 -2.562920802E+01  7.955821721E+01  1.119402457E+02  9.536743164E-07  0.00000E+00  9.000E+00
#rwgt            1           1   2.8104749878975283E-002           1      171667           0
</event>
<event>
      5   9999  3.19816E-02  5.43545E+01 -1.00000E+00  1.37037E-01
      21    -1     0     0   502   512  0.000000000E+00  0.000000000E+00  8.292398855E+02  8.292398855E+02  0.000000000E+00  0.00000E+00  9.000E+00
      21    -1     0     0   501   502  0.000000000E+00  0.000000000E+00 -9.345118021E+02  9.345118021E+02  0.000000000E+00  0.00000E+00  9.000E+00
      25     1     1     2     0     0  5.503583712E+02 -7.089417275E+01 -7.015163749E+02  9.031448083E+02  1.250000000E+02  0.00000E+00  9.000E+00
      25     1     1     2     0     0 -5.350961458E+02  1.230619300E+02  5.165899894E+02  7.641742871E+02  1.250000000E+02  0.00000E+00  9.000E+00
      21     1     1     2   501   512 -1.526222542E+01 -5.216775722E+01  7.965446893E+01  9.643259220E+01  0.000000000E+00  0.00000E+00  9.000E+00
#rwgt            1           1   3.1302890806177555E-002           1      171701           0
</event>
<event>
      5   9999  3.19816E-02  2.01901E+01 -1.00000E+00  1.66031E-01
      21    -1     0     0   502   501  0.000000000E+00  0.000000000E+00  6.517500338E+02  6.517500338E+02  0.000000000E+00  0.00000E+00  9.000E+00
      21    -1     0     0   511   502  0.000000000E+00  0.000000000E+00 -3.194660304E+02  3.194660304E+02  0.000000000E+00  0.00000E+00  9.000E+00
      25     1     1     2     0     0 -1.952690836E+02  1.152138024E+02  4.951427445E+02  5.587446399E+02  1.250000000E+02  0.00000E+00  9.000E+00
      25     1     1     2     0     0  1.820014783E+02 -9.999506880E+01  5.955450361E+00  2.424541591E+02  1.250000000E+02  0.00000E+00  9.000E+00
      21     1     1     2   511   501  1.326760528E+01 -1.521873360E+01 -1.688141914E+02  1.700172651E+02  2.697398305E-06  0.00000E+00  9.000E+00
#rwgt            1           1   2.5403337874270487E-002           1      171836           0
</event>
<event>
      5   9999  3.19816E-02  6.63926E+01 -1.00000E+00  1.32395E-01
      21    -1     0     0   502   501  0.000000000E+00  0.000000000E+00  1.789756541E+02  1.789756541E+02  0.000000000E+00  0.00000E+00  9.000E+00
      21    -1     0     0   501   512  0.000000000E+00  0.000000000E+00 -5.788955209E+02  5.788955209E+02  0.000000000E+00  0.00000E+00  9.000E+00
      25     1     1     2     0     0 -3.454690692E+01  2.556945643E+01 -4.702533610E+02  4.884777471E+02  1.250000000E+02  0.00000E+00  9.000E+00
      25     1     1     2     0     0  3.778856211E+01  4.074393277E+01  1.235308188E+02  1.843174074E+02  1.250000000E+02  0.00000E+00  9.000E+00
      21     1     1     2   502   512 -3.241655193E+00 -6.631338920E+01 -5.319732459E+01  8.507602047E+01  0.000000000E+00  0.00000E+00  9.000E+00
#rwgt            1           1   3.0287452445980835E-002           1      171938           0
</event>
<event>
      5   9999  3.19816E-02  4.14991E+01 -1.00000E+00  1.43856E-01
      21    -1     0     0   502   501  0.000000000E+00  0.000000000E+00  2.278700457E+02  2.278700457E+02  0.000000000E+00  0.00000E+00  9.000E+00
      21    -1     0     0   511   502  0.000000000E+00  0.000000000E+00 -3.140768154E+02  3.140768154E+02  0.000000000E+00  0.00000E+00  9.000E+00
      25     1     1     2     0     0  1.386710903E+02 -1.119934960E+02 -6.922735549E+01  2.284505224E+02  1.250000000E+02  0.00000E+00  9.000E+00
      25     1     1     2     0     0 -1.341394306E+02  1.532444173E+02  4.073816841E+01  2.424084088E+02  1.250000000E+02  0.00000E+00  9.000E+00
      21     1     1     2   511   501 -4.531659716E+00 -4.125092125E+01 -5.771758254E+01  7.108792990E+01  6.743495762E-07  0.00000E+00  9.000E+00
#rwgt            1           1   2.6178640559913639E-002           1      172002           0
</event>
<event>
      5   9999  3.19816E-02  7.06418E+01 -1.00000E+00  1.31020E-01
      21    -1     0     0   512   501  0.000000000E+00  0.000000000E+00  7.984346450E+02  7.984346450E+02  0.000000000E+00  0.00000E+00  9.000E+00
      21    -1     0     0   501   502  0.000000000E+00  0.000000000E+00 -1.018985247E+03  1.018985247E+03  0.000000000E+00  0.00000E+00  9.000E+00
      25     1     1     2     0     0 -4.206823215E+02 -6.088430814E+02 -5.132692412E+02  9.092490458E+02  1.250000000E+02  0.00000E+00  9.000E+00
      25     1     1     2     0     0  4.910650385E+02  6.027988341E+02  2.833376577E+02  8.369089166E+02  1.250000000E+02  0.00000E+00  9.000E+00
      21     1     1     2   512   502 -7.038271699E+01  6.044247284E+00  9.380981556E+00  7.126192946E+01  9.078709013E-07  0.00000E+00  9.000E+00
#rwgt            1           1   3.3525465673927148E-002           1      172116           0
</event>
<event>
      5   9999  3.19816E-02  2.47489E+01 -1.00000E+00  1.59080E-01
      21    -1     0     0   502   511  0.000000000E+00  0.000000000E+00  2.309118814E+03  2.309118814E+03  0.000000000E+00  0.00000E+00  9.000E+00
      21    -1     0     0   501   502  0.000000000E+00  0.000000000E+00 -3.995359939E+02  3.995359939E+02  0.000000000E+00  0.00000E+00  9.000E+00
      25     1     1     2     0     0 -7.611157305E+02 -3.229048007E+02  1.305263234E+03  1.550129600E+03  1.250000000E+02  0.00000E+00  9.000E+00
      25     1     1     2     0     0  7.364038519E+02  3.215512607E+02  3.212312753E+02  8.743571231E+02  1.250000000E+02  0.00000E+00  9.000E+00
      21     1     1     2   501   511  2.471187855E+01  1.353539987E+00  2.830883109E+02  2.841680854E+02  3.814697266E-06  0.00000E+00  9.000E+00
#rwgt            1           1   2.4350303925952728E-002           1      172226           0
</event>
<event>
      5   9999  3.19816E-02  2.32887E+02 -1.00000E+00  1.09293E-01
      21    -1     0     0   512   501  0.000000000E+00  0.000000000E+00  9.007998309E+02  9.007998309E+02  0.000000000E+00  0.00000E+00  9.000E+00
      21    -1     0     0   501   502  0.000000000E+00  0.000000000E+00 -8.340985342E+02  8.340985342E+02  0.000000000E+00  0.00000E+00  9.000E+00
      25     1     1     2     0     0 -1.097757686E+02 -2.318249851E+02 -5.285329564E+01  2.901930632E+02  1.250000000E+02  0.00000E+00  9.000E+00
      25     1     1     2     0     0  2.829757811E+01  4.499943496E+02 -5.580219221E+02  7.282232715E+02  1.250000000E+02  0.00000E+00  9.000E+00
      21     1     1     2   512   502  8.147819051E+01 -2.181693645E+02  6.775765144E+02  7.164820305E+02  1.078959322E-05  0.00000E+00  9.000E+00
#rwgt            2          11   4.7787405317164505E-003           1      172536           0
</event>
<event>
      5   9999  3.19816E-02  4.54462E+01 -1.00000E+00  1.41484E-01
      21    -1     0     0   502   511  0.000000000E+00  0.000000000E+00  1.856759115E+03  1.856759115E+03  0.000000000E+00  0.00000E+00  9.000E+00
      21    -1     0     0   501   502  0.000000000E+00  0.000000000E+00 -1.107723599E+03  1.107723599E+03  0.000000000E+00  0.00000E+00  9.000E+00
      25     1     1     2     0     0 -1.295944121E+03  1.769781053E+02  6.133292905E+02  1.450031115E+03  1.250000000E+02  0.00000E+00  9.000E+00
      25     1     1     2     0     0  1.297895386E+03 -1.315738159E+02 -6.160953703E+01  1.311969831E+03  1.250000000E+02  0.00000E+00  9.000E+00
      21     1     1     2   501   511 -1.951264514E+00 -4.540428944E+01  1.973157624E+02  2.024817696E+02  3.814697266E-06  0.00000E+00  9.000E+00
#rwgt            1           1   3.0610279419494978E-002           1      172571           0
</event>
<event>
      5   9999  3.19816E-02  3.69856E+02 -1.00000E+00  1.02720E-01
      -3    -1     0     0     0   501  0.000000000E+00  0.000000000E+00  2.753790837E+02  2.753790837E+02  0.000000000E+00  0.00000E+00  9.000E+00
      21    -1     0     0   501   502  0.000000000E+00  0.000000000E+00 -1.345129692E+03  1.345129692E+03  0.000000000E+00  0.00000E+00  9.000E+00
      25     1     1     2     0     0  1.461184499E+02 -1.249707969E+02 -7.289372254E+02  7.641614882E+02  1.250000000E+02  0.00000E+00  9.000E+00
      25     1     1     2     0     0  2.179193487E+02  5.962359012E+01 -4.056467427E+02  4.808514271E+02  1.250000000E+02  0.00000E+00  9.000E+00
      -3     1     1     2     0   502 -3.640377987E+02  6.534720678E+01  6.483336028E+01  3.754958600E+02  3.162979880E-06  0.00000E+00  9.000E+00
#rwgt            1           1   3.1867266251682819E-002           1      172771           0
</event>
<event>
      5   9999  3.19816E-02  1.07122E+02 -1.00000E+00  1.22499E-01
      21    -1     0     0   502   501  0.000000000E+00  0.000000000E+00  1.072944323E+03  1.072944323E+03  0.000000000E+00  0.00000E+00  9.000E+00
      21    -1     0     0   501   511  0.000000000E+00  0.000000000E+00 -2.520242777E+02  2.520242777E+02  0.000000000E+00  0.00000E+00  9.000E+00
      25     1     1     2     0     0 -2.440284277E+01 -4.354516032E+02  5.731490483E+02  7.309845614E+02  1.250000000E+02  0.00000E+00  9.000E+00
      25     1     1     2     0     0 -3.231311963E+01  3.445759387E+02  3.000401576E+02  4.747902815E+02  1.250000000E+02  0.00000E+00  9.000E+00
      21     1     1     2   502   511  5.671596241E+01  9.087566448E+01 -5.226916053E+01  1.191937579E+02  2.336015456E-06  0.00000E+00  9.000E+00
#rwgt            1           1   2.7027791565786274E-002           1      172800           0
</event>
<event>
      5   9999  3.19816E-02  3.11537E+01 -1.00000E+00  1.51910E-01
      21    -1     0     0   512   501  0.000000000E+00  0.000000000E+00  2.069376577E+03  2.069376577E+03  0.000000000E+00  0.00000E+00  9.000E+00
      21    -1     0     0   501   502  0.000000000E+00  0.000000000E+00 -6.582793433E+02  6.582793433E+02  0.000000000E+00  0.00000E+00  9.000E+00
      25     1     1     2     0     0 -4.314670029E+02 -2.124293846E+02 -5.645051211E+01  5.001016680E+02  1.250000000E+02  0.00000E+00  9.000E+00
      25     1     1     2     0     0  4.175380152E+02  2.402957625E+02 -2.168349681E+02  5.428834599E+02  1.250000000E+02  0.00000E+00  9.000E+00
      21     1     1     2   512   502  1.392898770E+01 -2.786637782E+01  1.684382714E+03  1.684670793E+03  0.000000000E+00  0.00000E+00  9.000E+00
#rwgt            1           1   3.2805595352608581E-002           1      172869           0
</event>
<event>
      5   9999  3.19816E-02  1.68271E+02 -1.00000E+00  1.14449E-01
       2    -1     0     0   502     0  0.000000000E+00  0.000000000E+00  1.607162455E+03  1.607162455E+03  0.000000000E+00  0.00000E+00  9.000E+00
      21    -1     0     0   501   502  0.000000000E+00  0.000000000E+00 -4.165400892E+02  4.165400892E+02  0.000000000E+00  0.00000E+00  9.000E+00
      25     1     1     2     0     0 -1.123952308E+01 -1.803835573E+01 -3.838684518E+02  4.042668642E+02  1.250000000E+02  0.00000E+00  9.000E+00
      25     1     1     2     0     0 -1.324023676E+02  1.056863803E+02  8.590823189E+02  8.845040580E+02  1.250000000E+02  0.00000E+00  9.000E+00
       2     1     1     2   501     0  1.436418906E+02 -8.764802453E+01  7.154084987E+02  7.349316220E+02  1.321449896E-05  0.00000E+00  9.000E+00
#rwgt            1           1   3.1275141272452900E-002           1      172986           0
</event>
<event>
      5   9999  3.19816E-02  1.25594E+02 -1.00000E+00  1.19534E-01
      21    -1     0     0   502   501  0.000000000E+00  0.000000000E+00  7.715294169E+01  7.715294169E+01  0.000000000E+00  0.00000E+00  9.000E+00
      21    -1     0     0   511   502  0.000000000E+00  0.000000000E+00 -1.656599241E+03  1.656599241E+03  0.000000000E+00  0.00000E+00  9.000E+00
      25     1     1     2     0     0  7.157767115E+01  6.073538032E+01 -5.461112141E+01  1.655884175E+02  1.250000000E+02  0.00000E+00  9.000E+00
      25     1     1     2     0     0 -7.899462686E+01 -1.861106660E+02 -1.086005557E+03  1.111715072E+03  1.250000000E+02  0.00000E+00  9.000E+00
      21     1     1     2   511   501  7.416955716E+00  1.253752857E+02 -4.388296203E+02  4.564486928E+02  5.394796609E-06  0.00000E+00  9.000E+00
#rwgt            1           1   2.9441389421117670E-002           1      173052           0
</event>
<event>
      5   9999  3.19816E-02  1.45500E+01 -1.00000E+00  1.78639E-01
      21    -1     0     0   502   512  0.000000000E+00  0.000000000E+00  3.471285007E+02  3.471285007E+02  0.000000000E+00  0.00000E+00  9.000E+00
      21    -1     0     0   501   502  0.000000000E+00  0.000000000E+00 -4.388978565E+02  4.388978565E+02  0.000000000E+00  0.00000E+00  9.000E+00
      25     1     1     2     0     0 -1.378948690E+02  2.452795285E+02  9.899231023E+01  3.234215817E+02  1.250000000E+02  0.00000E+00  9.000E+00
      25     1     1     2     0     0  1.473004723E+02 -2.563806927E+02 -2.466630507E+02  4.048408938E+02  1.250000000E+02  0.00000E+00  9.000E+00
      21     1     1     2   501   512 -9.405603235E+00  1.110116419E+01  5.590138472E+01  5.776388173E+01  9.536743164E-07  0.00000E+00  9.000E+00
#rwgt            1           1   2.0439286733314910E-002           1      173135           0
</event>
<event>
      5   9999  3.19816E-02  8.10905E+01 -1.00000E+00  1.28066E-01
      21    -1     0     0   511   501  0.000000000E+00  0.000000000E+00  7.727630106E+01  7.727630106E+01  0.000000000E+00  0.00000E+00  9.000E+00
      21    -1     0     0   501   502  0.000000000E+00  0.000000000E+00 -1.932784471E+03  1.932784471E+03  0.000000000E+00  0.00000E+00  9.000E+00
      25     1     1     2     0     0  4.849363137E+01 -1.927366312E+02 -4.348266224E+02  4.941641760E+02  1.250000000E+02  0.00000E+00  9.000E+00
      25     1     1     2     0     0 -1.020721633E+00  2.584784352E+02 -1.404065274E+03  1.433121222E+03  1.250000000E+02  0.00000E+00  9.000E+00
      21     1     1     2   511   502 -4.747290973E+01 -6.574180396E+01 -1.661627310E+01  8.277537362E+01  2.223820461E-06  0.00000E+00  9.000E+00
#rwgt            1           1   3.0939495379695595E-002           1      173340           0
</event>
<event>
      5   9999  3.19816E-02  2.67659E+02 -1.00000E+00  1.07227E-01
      21    -1     0     0   502   501  0.000000000E+00  0.000000000E+00  4.152316353E+02  4.152316353E+02  0.000000000E+00  0.00000E+00  9.000E+00
       1    -1     0     0   501     0  0.000000000E+00  0.000000000E+00 -2.329043169E+03  2.329043169E+03  0.000000000E+00  0.00000E+00  9.000E+00
      25     1     1     2     0     0  3.423189629E+02  5.192840642E+02 -3.245556762E+02  7.126005885E+02  1.250000000E+02  0.00000E+00  9.000E+00
      25     1     1     2     0     0 -3.550649794E+02 -7.866394061E+02 -7.481611260E+02  1.149018174E+03  1.250000000E+02  0.00000E+00  9.000E+00
       1     1     1     2   502     0  1.274601649E+01  2.673553419E+02 -8.410947314E+02  8.826560412E+02  1.078959322E-05  0.00000E+00  9.000E+00
#rwgt            1           1   3.0090664704796533E-002           1      173410           0
</event>
<event>
      5   9999  3.19816E-02  2.60965E+01 -1.00000E+00  1.57367E-01
      21    -1     0     0   511   501  0.000000000E+00  0.000000000E+00  5.389549838E+02  5.389549838E+02  0.000000000E+00  0.00000E+00  9.000E+00
      21    -1     0     0   501   502  0.000000000E+00  0.000000000E+00 -3.119331780E+02  3.119331780E+02  0.000000000E+00  0.00000E+00  9.000E+00
      25     1     1     2     0     0 -8.794649772E+01 -3.656307492E+02  1.692584143E+02  4.309220835E+02  1.250000000E+02  0.00000E+00  9.000E+00
      25     1     1     2     0     0  7.285563536E+01  3.443400409E+02  1.996517692E+01  3.740342439E+02  1.250000000E+02  0.00000E+00  9.000E+00
      21     1     1     2   511   502  1.509086237E+01  2.129070830E+01  3.779821455E+01  4.593183439E+01  6.743495762E-07  0.00000E+00  9.000E+00
#rwgt            1           1   2.7753746518812485E-002           1      173477           0
</event>
<event>
      5   9999  3.19816E-02  4.81284E+01 -1.00000E+00  1.40027E-01
      21    -1     0     0   512   501  0.000000000E+00  0.000000000E+00  5.150962869E+02  5.150962869E+02  0.000000000E+00  0.00000E+00  9.000E+00
      21    -1     0     0   501   502  0.000000000E+00  0.000000000E+00 -2.523420487E+02  2.523420487E+02  0.000000000E+00  0.00000E+00  9.000E+00
      25     1     1     2     0     0 -1.799175687E+02  2.012157502E+02 -2.578006599E+01  2.985761569E+02  1.250000000E+02  0.00000E+00  9.000E+00
      25     1     1     2     0     0  1.324374146E+02 -2.090884847E+02  1.358427263E+02  3.087651365E+02  1.250000000E+02  0.00000E+00  9.000E+00
      21     1     1     2   512   502  4.748015409E+01  7.872734474E+00  1.526915779E+02  1.600970422E+02  1.907348633E-06  0.00000E+00  9.000E+00
#rwgt            1           1   2.5622477693742533E-002           1      173637           0
</event>
<event>
      5   9999  3.19816E-02  8.05947E+01 -1.00000E+00  1.28194E-01
      21    -1     0     0   502   511  0.000000000E+00  0.000000000E+00  2.271446338E+02  2.271446338E+02  0.000000000E+00  0.00000E+00  9.000E+00
      21    -1     0     0   501   502  0.000000000E+00  0.000000000E+00 -4.416118756E+02  4.416118756E+02  0.000000000E+00  0.00000E+00  9.000E+00
      25     1     1     2     0     0  2.190663509E+02 -6.528228168E+01  3.406931710E+01  2.627499967E+02  1.250000000E+02  0.00000E+00  9.000E+00
      25     1     1     2     0     0 -1.876372220E+02 -8.931733735E+00 -2.321983445E+02  3.237724110E+02  1.250000000E+02  0.00000E+00  9.000E+00
      21     1     1     2   501   511 -3.142912888E+01  7.421401541E+01 -1.633821437E+01  8.223410165E+01  5.840038640E-07  0.00000E+00  9.000E+00
#rwgt            1           1   2.6870081425961281E-002           1      173719           0
</event>
<event>
      5   9999  3.19816E-02  8.27809E+01 -1.00000E+00  1.27635E-01
       2    -1     0     0   502     0  0.000000000E+00  0.000000000E+00  4.048917809E+02  4.048917809E+02  0.000000000E+00  0.00000E+00  9.000E+00
      21    -1     0     0   501   502  0.000000000E+00  0.000000000E+00 -8.236932836E+02  8.236932836E+02  0.000000000E+00  0.00000E+00  9.000E+00
      25     1     1     2     0     0  2.042525577E+02 -6.577071892E+01  2.224353326E+02  3.333877202E+02  1.250000000E+02  0.00000E+00  9.000E+00
      25     1     1     2     0     0 -1.290411884E+02  3.118863046E+01 -7.424092573E+02  7.644742404E+02  1.250000000E+02  0.00000E+00  9.000E+00
       2     1     1     2   501     0 -7.521136929E+01  3.458208846E+01  1.011724221E+02  1.307231039E+02  0.000000000E+00  0.00000E+00  9.000E+00
#rwgt            1           1   2.0031189076136210E-002           1      173829           0
</event>
<event>
      5   9999  3.19816E-02  1.16965E+02 -1.00000E+00  1.20842E-01
      21    -1     0     0   511   501  0.000000000E+00  0.000000000E+00  2.393247384E+02  2.393247384E+02  0.000000000E+00  0.00000E+00  9.000E+00
      21    -1     0     0   501   502  0.000000000E+00  0.000000000E+00 -4.625967010E+02  4.625967010E+02  0.000000000E+00  0.00000E+00  9.000E+00
      25     1     1     2     0     0 -1.155574293E+02 -1.808847004E+02 -7.396875994E+01  2.591701599E+02  1.250000000E+02  0.00000E+00  9.000E+00
      25     1     1     2     0     0  2.279313031E+02  1.484358203E+02 -1.170460983E+02  3.214197580E+02  1.250000000E+02  0.00000E+00  9.000E+00
      21     1     1     2   511   502 -1.123738738E+02  3.244888014E+01 -3.225710440E+01  1.213315215E+02  2.567846683E-06  0.00000E+00  9.000E+00
#rwgt            1           1   2.7320902033128730E-002           1      173948           0
</event>
<event>
      5   9999  3.19816E-02  4.54651E+01 -1.00000E+00  1.41473E-01
      21    -1     0     0   502   501  0.000000000E+00  0.000000000E+00  1.241174573E+03  1.241174573E+03  0.000000000E+00  0.00000E+00  9.000E+00
       2    -1     0     0   501     0  0.000000000E+00  0.000000000E+00 -1.162088601E+03  1.162088601E+03  0.000000000E+00  0.00000E+00  9.000E+00
      25     1     1     2     0     0 -3.306986685E+02  5.543687349E+01  2.819551620E+02  4.555859630E+02  1.250000000E+02  0.00000E+00  9.000E+00
      25     1     1     2     0     0  3.311681529E+02 -9.974184710E+00  8.359520219E+02  9.078615604E+02  1.250000000E+02  0.00000E+00  9.000E+00
       2     1     1     2   502     0 -4.694843879E-01 -4.546268878E+01 -1.038821212E+03  1.039815650E+03  2.642899792E-05  0.00000E+00  9.000E+00
#rwgt            1           1   2.7388507827445441E-002           1      173986           0
</event>
<event>
      5   9999  3.19816E-02  7.05102E+01 -1.00000E+00  1.31061E-01
       2    -1     0     0   502     0  0.000000000E+00  0.000000000E+00  2.306677435E+03  2.306677435E+03  0.000000000E+00  0.00000E+00  9.000E+00
      21    -1     0     0   501   502  0.000000000E+00  0.000000000E+00 -9.284375094E+02  9.284375094E+02  0.000000000E+00  0.00000E+00  9.000E+00
      25     1     1     2     0     0 -2.247758255E+02 -9.022787343E+00 -1.240995628E+02  2.857118897E+02  1.250000000E+02  0.00000E+00  9.000E+00
      25     1     1     2     0     0  1.569093657E+02  2.814949067E+01 -7.087790497E+02  7.371605552E+02  1.250000000E+02  0.00000E+00  9.000E+00
       2     1     1     2   501     0  6.786645985E+01 -1.912670333E+01  2.211118539E+03  2.212242500E+03  0.000000000E+00  0.00000E+00  9.000E+00
#rwgt            1           1   3.0228834292825465E-002           1      174167           0
</event>
<event>
      5   9999  3.19816E-02  1.17073E+01 -1.00000E+00  1.88163E-01
      21    -1     0     0   511   501  0.000000000E+00  0.000000000E+00  1.690658593E+02  1.690658593E+02  0.000000000E+00  0.00000E+00  9.000E+00
      21    -1     0     0   501   502  0.000000000E+00  0.000000000E+00 -5.296553859E+02  5.296553859E+02  0.000000000E+00  0.00000E+00  9.000E+00
      25     1     1     2     0     0 -4.331256991E+01  1.234687849E+02 -4.490184887E+02  4.841106513E+02  1.250000000E+02  0.00000E+00  9.000E+00
      25     1     1     2     0     0  3.167523917E+01 -1.247467208E+02  9.294622926E+01  2.020620366E+02  1.250000000E+02  0.00000E+00  9.000E+00
      21     1     1     2   511   502  1.163733074E+01  1.277935902E+00 -4.517267115E+00  1.254855725E+01  2.064765462E-07  0.00000E+00  9.000E+00
#rwgt            1           1   2.5105230312631607E-002           1      174325           0
</event>
<event>
      5   9999  3.19816E-02  2.16812E+02 -1.00000E+00  1.10387E-01
      21    -1     0     0   502   501  0.000000000E+00  0.000000000E+00  2.648211222E+02  2.648211222E+02  0.000000000E+00  0.00000E+00  9.000E+00
      21    -1     0     0   512   502  0.000000000E+00  0.000000000E+00 -7.711385153E+02  7.711385153E+02  0.000000000E+00  0.00000E+00  9.000E+00
      25     1     1     2     0     0 -3.618114090E+02  9.746574404E+01 -1.017171430E+02  4.078951386E+02  1.250000000E+02  0.00000E+00  9.000E+00
      25     1     1     2     0     0  1.548409260E+02 -1.620476037E+02 -1.658464212E+02  3.055571528E+02  1.250000000E+02  0.00000E+00  9.000E+00
      21     1     1     2   512   501  2.069704829E+02  6.458185964E+01 -2.387538290E+02  3.225073460E+02  4.672030912E-06  0.00000E+00  9.000E+00
#rwgt            1           1   2.7756092324598518E-002           1      174520           0
</event>
<event>
      5   9999  3.19816E-02  3.08921E+01 -1.00000E+00  1.52161E-01
      21    -1     0     0   502   501  0.000000000E+00  0.000000000E+00  6.913713278E+02  6.913713278E+02  0.000000000E+00  0.00000E+00  9.000E+00
      21    -1     0     0   501   511  0.000000000E+00  0.000000000E+00 -2.889996536E+02  2.889996536E+02  0.000000000E+00  0.00000E+00  9.000E+00
      25     1     1     2     0     0  2.020087638E+02  2.938949778E+02  1.367416503E+02  4.018769433E+02  1.250000000E+02  0.00000E+00  9.000E+00
      25     1     1     2     0     0 -2.321960269E+02 -3.004564401E+02  3.225934806E+02  5.136931195E+02  1.250000000E+02  0.00000E+00  9.000E+00
      21     1     1     2   502   511  3.018726309E+01  6.561462298E+00 -5.696345675E+01  6.480091855E+01  1.168007728E-06  0.00000E+00  9.000E+00
#rwgt            1           1   2.7623383177692373E-002           1      174550           0
</event>
<event>
      5   9999  4.57947E-02  3.20422E+02 -1.00000E+00  1.04671E-01
      21    -1     0     0   502   501  0.000000000E+00  0.000000000E+00  9.321865743E+02  9.321865743E+02  0.000000000E+00  0.00000E+00  9.000E+00
       1    -1     0     0   501     0  0.000000000E+00  0.000000000E+00 -8.544018850E+02  8.544018850E+02  0.000000000E+00  0.00000E+00  9.000E+00
      25     1     1     2     0     0 -2.192774496E+01  2.176915033E+02  6.867257564E+02  7.314968770E+02  1.250000000E+02  0.00000E+00  9.000E+00
      25     1     1     2     0     0  8.052508869E+01  9.732738955E+01  1.491866068E+02  2.320313649E+02  1.250000000E+02  0.00000E+00  9.000E+00
       1     1     1     2   502     0 -5.859734373E+01 -3.150188929E+02 -7.581276739E+02  8.230602174E+02  0.000000000E+00  0.00000E+00  9.000E+00
#rwgt            2          12   1.9857092944231408E-002           1      174997           0
</event>
<event>
      5   9999  3.19816E-02  1.18523E+01 -1.00000E+00  1.87595E-01
      21    -1     0     0   511   501  0.000000000E+00  0.000000000E+00  2.056448223E+02  2.056448223E+02  0.000000000E+00  0.00000E+00  9.000E+00
      21    -1     0     0   501   502  0.000000000E+00  0.000000000E+00 -3.540982635E+02  3.540982635E+02  0.000000000E+00  0.00000E+00  9.000E+00
      25     1     1     2     0     0 -1.095610958E+02 -1.274560615E+02  3.718581144E+01  2.127356714E+02  1.250000000E+02  0.00000E+00  9.000E+00
      25     1     1     2     0     0  1.122640870E+02  1.159160501E+02 -2.262401288E+02  3.047119161E+02  1.250000000E+02  0.00000E+00  9.000E+00
      21     1     1     2   511   502 -2.702991208E+00  1.154001139E+01  4.060087625E+01  4.229549830E+01  0.000000000E+00  0.00000E+00  9.000E+00
#rwgt            1           1   2.8370441218389074E-002           1      175016           0
</event>
<event>
      5   9999  3.19816E-02  1.13645E+02 -1.00000E+00  1.21380E-01
      21    -1     0     0   502   501  0.000000000E+00  0.000000000E+00  4.077152316E+02  4.077152316E+02  0.000000000E+00  0.00000E+00  9.000E+00
       2    -1     0     0   501     0  0.000000000E+00  0.000000000E+00 -4.985012767E+03  4.985012767E+03  0.000000000E+00  0.00000E+00  9.000E+00
      25     1     1     2     0     0 -3.399692371E+02 -7.998101732E+02 -4.904734890E+02  1.005715983E+03  1.250000000E+02  0.00000E+00  9.000E+00
      25     1     1     2     0     0  2.265593802E+02  7.925061967E+02 -1.016765026E+03  1.314850312E+03  1.250000000E+02  0.00000E+00  9.000E+00
       2     1     1     2   502     0  1.134098568E+02  7.303976576E+00 -3.070059021E+03  3.072161704E+03  0.000000000E+00  0.00000E+00  9.000E+00
#rwgt            1           1   2.4613747933747585E-002           1      175142           0
</event>
<event>
      5   9999  3.19816E-02  3.42286E+01 -1.00000E+00  1.49166E-01
      21    -1     0     0   502   511  0.000000000E+00  0.000000000E+00  2.436857523E+02  2.436857523E+02  0.000000000E+00  0.00000E+00  9.000E+00
      21    -1     0     0   501   502  0.000000000E+00  0.000000000E+00 -4.109490836E+02  4.109490836E+02  0.000000000E+00  0.00000E+00  9.000E+00
      25     1     1     2     0     0  2.722458553E+02  6.714742884E+01 -3.437797412E+01  3.089230131E+02  1.250000000E+02  0.00000E+00  9.000E+00
      25     1     1     2     0     0 -2.470265233E+02 -4.400481879E+01 -1.355499398E+02  3.113796934E+02  1.250000000E+02  0.00000E+00  9.000E+00
      21     1     1     2   501   511 -2.521933200E+01 -2.314261004E+01  2.664582618E+00  3.433212936E+01  4.986882368E-07  0.00000E+00  9.000E+00
#rwgt            1           1   2.2710999194900303E-002           1      175256           0
</event>
<event>
      5   9999  3.19816E-02  2.95270E+02 -1.00000E+00  1.05817E-01
      21    -1     0     0   502   501  0.000000000E+00  0.000000000E+00  1.278517100E+03  1.278517100E+03  0.000000000E+00  0.00000E+00  9.000E+00
      21    -1     0     0   512   502  0.000000000E+00  0.000000000E+00 -5.351854044E+02  5.351854044E+02  0.000000000E+00  0.00000E+00  9.000E+00
      25     1     1     2     0     0  6.342426273E+02 -1.213451031E+02  5.438318453E+02  8.534438589E+02  1.250000000E+02  0.00000E+00  9.000E+00
      25     1     1     2     0     0 -6.007996537E+02 -1.720246779E+02  1.891909023E+02  6.648089283E+02  1.250000000E+02  0.00000E+00  9.000E+00
      21     1     1     2   512   501 -3.344297358E+01  2.933697810E+02  1.030894793E+01  2.954497171E+02  3.888489349E-06  0.00000E+00  9.000E+00
#rwgt            2          11   4.9750675670468441E-003           1      175369           0
</event>
<event>
      5   9999  3.19816E-02  2.10263E+02 -1.00000E+00  1.10863E-01
      21    -1     0     0   502   501  0.000000000E+00  0.000000000E+00  1.418989072E+02  1.418989072E+02  0.000000000E+00  0.00000E+00  9.000E+00
      21    -1     0     0   511   502  0.000000000E+00  0.000000000E+00 -1.544753030E+03  1.544753030E+03  0.000000000E+00  0.00000E+00  9.000E+00
      25     1     1     2     0     0  3.153665498E+02  2.919491324E+02 -7.018676839E+02  8.324263345E+02  1.250000000E+02  0.00000E+00  9.000E+00
      25     1     1     2     0     0 -1.868627927E+02 -1.255246005E+02 -2.612823418E+02  3.668345551E+02  1.250000000E+02  0.00000E+00  9.000E+00
      21     1     1     2   511   501 -1.285037570E+02 -1.664245319E+02 -4.397040974E+02  4.873910480E+02  5.394796609E-06  0.00000E+00  9.000E+00
#rwgt            2          11   2.7514519721398975E-003           1      175404           0
</event>
<event>
      5   9999  3.19816E-02  7.18229E+01 -1.00000E+00  1.30658E-01
      21    -1     0     0   502   501  0.000000000E+00  0.000000000E+00  3.744109836E+02  3.744109836E+02  0.000000000E+00  0.00000E+00  9.000E+00
      21    -1     0     0   501   512  0.000000000E+00  0.000000000E+00 -7.206663767E+02  7.206663767E+02  0.000000000E+00  0.00000E+00  9.000E+00
      25     1     1     2     0     0 -1.697889468E+02  1.968449510E+02 -6.831391943E+01  2.964253916E+02  1.250000000E+02  0.00000E+00  9.000E+00
      25     1     1     2     0     0  1.132072246E+02 -2.410833864E+02  1.734807439E+02  3.415518166E+02  1.250000000E+02  0.00000E+00  9.000E+00
      21     1     1     2   502   512  5.658172219E+01  4.423843539E+01 -4.514222177E+02  4.571001521E+02  7.629394531E-06  0.00000E+00  9.000E+00
#rwgt            1           1   2.8378241539023977E-002           1      175469           0
</event>
<event>
      5   9999  3.19816E-02  7.32228E+01 -1.00000E+00  1.30238E-01
      21    -1     0     0   502   501  0.000000000E+00  0.000000000E+00  1.691387788E+02  1.691387788E+02  0.000000000E+00  0.00000E+00  9.000E+00
      21    -1     0     0   511   502  0.000000000E+00  0.000000000E+00 -2.489183004E+03  2.489183004E+03  0.000000000E+00  0.00000E+00  9.000E+00
      25     1     1     2     0     0 -1.176780774E+02  1.484764172E+02 -1.118201954E+03  1.141005691E+03  1.250000000E+02  0.00000E+00  9.000E+00
      25     1     1     2     0     0  1.713339030E+02 -9.865043611E+01  6.938595925E+01  2.439807906E+02  1.250000000E+02  0.00000E+00  9.000E+00
      21     1     1     2   511   501 -5.365582560E+01 -4.982598114E+01 -1.271228230E+03  1.273335301E+03  1.525878906E-05  0.00000E+00  9.000E+00
#rwgt            1           1   2.2547680450124129E-002           1      175544           0
</event>
<event>
      5   9999  3.19816E-02  7.12569E+00 -1.00000E+00  2.14467E-01
      21    -1     0     0   502   501  0.000000000E+00  0.000000000E+00  2.389782358E+01  2.389782358E+01  0.000000000E+00  0.00000E+00  9.000E+00
      21    -1     0     0   501   512  0.000000000E+00  0.000000000E+00 -1.065659332E+03  1.065659332E+03  0.000000000E+00  0.00000E+00  9.000E+00
      25     1     1     2     0     0 -1.588280873E+01  2.119869371E+01 -7.232181508E+02  7.344189144E+02  1.250000000E+02  0.00000E+00  9.000E+00
      25     1     1     2     0     0  1.679367885E+01 -2.826593025E+01 -2.115651445E+02  2.479229736E+02  1.250000000E+02  0.00000E+00  9.000E+00
      21     1     1     2   502   512 -9.108701161E-01  7.067236547E+00 -1.069782130E+02  1.072152675E+02  1.907348633E-06  0.00000E+00  9.000E+00
#rwgt            1           1   5.3145877725319819E-002           1      175659           0
</event>
<event>
      5   9999  3.19816E-02  2.02906E+01 -1.00000E+00  1.65854E-01
       2    -1     0     0   502     0  0.000000000E+00  0.000000000E+00  1.494697636E+03  1.494697636E+03  0.000000000E+00  0.00000E+00  9.000E+00
      21    -1     0     0   501   502  0.000000000E+00  0.000000000E+00 -7.775854699E+01  7.775854699E+01  0.000000000E+00  0.00000E+00  9.000E+00
      25     1     1     2     0     0  9.288464455E+01 -1.951971655E+01  3.672568020E+02  3.993884514E+02  1.250000000E+02  0.00000E+00  9.000E+00
      25     1     1     2     0     0 -8.310971071E+01  3.730058176E+01  3.551492081E+01  1.586974071E+02  1.250000000E+02  0.00000E+00  9.000E+00
       2     1     1     2   501     0 -9.774933833E+00 -1.778086522E+01  1.014167366E+03  1.014370324E+03  1.525878906E-05  0.00000E+00  9.000E+00
#rwgt            1           1   2.5742274116067436E-002           1      175914           0
</event>
<event>
      5   9999  3.19816E-02  2.86071E+02 -1.00000E+00  1.06267E-01
      21    -1     0     0   502   501  0.000000000E+00  0.000000000E+00  1.775150917E+03  1.775150917E+03  0.000000000E+00  0.00000E+00  9.000E+00
      21    -1     0     0   511   502  0.000000000E+00  0.000000000E+00 -3.517413515E+02  3.517413515E+02  0.000000000E+00  0.00000E+00  9.000E+00
      25     1     1     2     0     0 -5.751534292E+02 -2.742766456E+02  4.093204220E+02  7.675919185E+02  1.250000000E+02  0.00000E+00  9.000E+00
      25     1     1     2     0     0  3.173117982E+02  3.981883584E+02  9.186567429E+02  1.057731515E+03  1.250000000E+02  0.00000E+00  9.000E+00
      21     1     1     2   511   501  2.578416311E+02 -1.239117128E+02  9.543240049E+01  3.015688352E+02  8.740569487E-06  0.00000E+00  9.000E+00
#rwgt            1           1   2.4569593645471073E-002           1      176003           0
</event>
<event>
      5   9999  3.19816E-02  1.63426E+02 -1.00000E+00  1.14937E-01
      21    -1     0     0   512   501  0.000000000E+00  0.000000000E+00  1.248623362E+03  1.248623362E+03  0.000000000E+00  0.00000E+00  9.000E+00
      21    -1     0     0   501   502  0.000000000E+00  0.000000000E+00 -1.914802514E+02  1.914802514E+02  0.000000000E+00  0.00000E+00  9.000E+00
      25     1     1     2     0     0  1.403961495E+02  1.753918749E+02  8.261885829E+02  8.652664116E+02  1.250000000E+02  0.00000E+00  9.000E+00
      25     1     1     2     0     0 -2.483973457E+02 -5.273873651E+01 -1.055514441E+01  2.832296361E+02  1.250000000E+02  0.00000E+00  9.000E+00
      21     1     1     2   512   502  1.080011962E+02 -1.226531384E+02  2.415096724E+02  2.916075661E+02  3.814697266E-06  0.00000E+00  9.000E+00
#rwgt            1           1   2.8404607388532961E-002           1      176031           0
</event>
<event>
      5   9999  3.19816E-02  1.91767E+02 -1.00000E+00  1.12317E-01
       1    -1     0     0   502     0  0.000000000E+00  0.000000000E+00  2.143412119E+03  2.143412119E+03  0.000000000E+00  0.00000E+00  9.000E+00
      21    -1     0     0   501   502  0.000000000E+00  0.000000000E+00 -1.983995369E+02  1.983995369E+02  0.000000000E+00  0.00000E+00  9.000E+00
      25     1     1     2     0     0  4.309719999E+02  1.087357669E+02  4.040311479E+02  6.135360627E+02  1.250000000E+02  0.00000E+00  9.000E+00
      25     1     1     2     0     0 -5.662389527E+02  2.719569325E+01  1.269121016E+03  1.395585652E+03  1.250000000E+02  0.00000E+00  9.000E+00
       1     1     1     2   501     0  1.352669528E+02 -1.359314602E+02  2.718604183E+02  3.326899419E+02  0.000000000E+00  0.00000E+00  9.000E+00
#rwgt            2          17   4.3944204771251917E-004           1      176472           0
</event>
<event>
      5   9999  3.19816E-02  2.53855E+01 -1.00000E+00  1.58255E-01
      21    -1     0     0   502   501  0.000000000E+00  0.000000000E+00  1.944537588E+02  1.944537588E+02  0.000000000E+00  0.00000E+00  9.000E+00
      21    -1     0     0   501   511  0.000000000E+00  0.000000000E+00 -4.868442229E+02  4.868442229E+02  0.000000000E+00  0.00000E+00  9.000E+00
      25     1     1     2     0     0  3.552068008E+01  1.788744572E+02  4.507530291E+01  2.256425782E+02  1.250000000E+02  0.00000E+00  9.000E+00
      25     1     1     2     0     0 -3.199644226E+01 -2.040141458E+02 -1.932391578E+02  3.092117658E+02  1.250000000E+02  0.00000E+00  9.000E+00
      21     1     1     2   502   511 -3.524237822E+00  2.513968854E+01 -1.442266093E+02  1.464436377E+02  0.000000000E+00  0.00000E+00  9.000E+00
#rwgt            1           1   2.5643854869998012E-002           1      176506           0
</event>
<event>
      5   9999  3.19816E-02  4.66096E+01 -1.00000E+00  1.40838E-01
      21    -1     0     0   502   501  0.000000000E+00  0.000000000E+00  2.211356555E+02  2.211356555E+02  0.000000000E+00  0.00000E+00  9.000E+00
       3    -1     0     0   501     0  0.000000000E+00  0.000000000E+00 -8.580733313E+02  8.580733313E+02  0.000000000E+00  0.00000E+00  9.000E+00
      25     1     1     2     0     0 -2.115595730E+02  2.563644703E+02 -1.338707721E+02  3.795083374E+02  1.250000000E+02  0.00000E+00  9.000E+00
      25     1     1     2     0     0  2.484310541E+02 -2.278521651E+02 -2.393861231E+02  4.319320707E+02  1.250000000E+02  0.00000E+00  9.000E+00
       3     1     1     2   502     0 -3.687148107E+01 -2.851230520E+01 -2.636807806E+02  2.677685787E+02  3.814697266E-06  0.00000E+00  9.000E+00
#rwgt            1           1   2.7464574976836319E-002           1      176642           0
</event>
<event>
      5   9999  3.19816E-02  4.91186E+01 -1.00000E+00  1.39518E-01
      21    -1     0     0   502   501  0.000000000E+00  0.000000000E+00  1.029526924E+03  1.029526924E+03  0.000000000E+00  0.00000E+00  9.000E+00
      21    -1     0     0   501   511  0.000000000E+00  0.000000000E+00 -3.668592687E+02  3.668592687E+02  0.000000000E+00  0.00000E+00  9.000E+00
      25     1     1     2     0     0 -1.173789322E+02  2.668605382E+01  8.841906081E+02  9.010593713E+02  1.250000000E+02  0.00000E+00  9.000E+00
      25     1     1     2     0     0  1.639380566E+02 -4.233472450E+01  5.252301958E+01  2.169137683E+02  1.250000000E+02  0.00000E+00  9.000E+00
      21     1     1     2   502   511 -4.655912434E+01  1.564867068E+01 -2.740459726E+02  2.784130529E+02  5.394796609E-06  0.00000E+00  9.000E+00
#rwgt            1           1   2.9374805643087098E-002           1      176765           0
</event>
<event>
      5   9999  3.19816E-02  1.61452E+01 -1.00000E+00  1.74426E-01
      21    -1     0     0   502   501  0.000000000E+00  0.000000000E+00  1.364233565E+03  1.364233565E+03  0.000000000E+00  0.00000E+00  9.000E+00
      21    -1     0     0   501   512  0.000000000E+00  0.000000000E+00 -8.183071192E+01  8.183071192E+01  0.000000000E+00  0.00000E+00  9.000E+00
      25     1     1     2     0     0 -1.886428580E+02 -2.147775272E+02  6.517092717E+02  7.225409946E+02  1.250000000E+02  0.00000E+00  9.000E+00
      25     1     1     2     0     0  1.725149860E+02  2.155245971E+02  6.376069183E+02  7.059602359E+02  1.250000000E+02  0.00000E+00  9.000E+00
      21     1     1     2   502   512  1.612787203E+01 -7.470698258E-01 -6.913336994E+00  1.756304637E+01  7.251217997E-07  0.00000E+00  9.000E+00
#rwgt            1           1   2.6405478224081239E-002           1      176832           0
</event>
<event>
      5   9999  3.19816E-02  1.28290E+01 -1.00000E+00  1.84029E-01
      21    -1     0     0   502   501  0.000000000E+00  0.000000000E+00  6.347069647E+02  6.347069647E+02  0.000000000E+00  0.00000E+00  9.000E+00
      21    -1     0     0   511   502  0.000000000E+00  0.000000000E+00 -6.859279979E+02  6.859279979E+02  0.000000000E+00  0.00000E+00  9.000E+00
      25     1     1     2     0     0  2.323201204E+02 -2.095098995E+02 -5.706226930E+02  6.626479413E+02  1.250000000E+02  0.00000E+00  9.000E+00
      25     1     1     2     0     0 -2.372431187E+02  1.976630650E+02  5.395453327E+02  6.341049997E+02  1.250000000E+02  0.00000E+00  9.000E+00
      21     1     1     2   511   501  4.922998299E+00  1.184683444E+01 -2.014367288E+01  2.388202160E+01  0.000000000E+00  0.00000E+00  9.000E+00
#rwgt            1           1   2.6290224423762946E-002           1      176986           0
</event>
<event>
      5   9999  3.19816E-02  1.49273E+02 -1.00000E+00  1.16477E-01
      21    -1     0     0   502   512  0.000000000E+00  0.000000000E+00  1.825613738E+02  1.825613738E+02  0.000000000E+00  0.00000E+00  9.000E+00
      21    -1     0     0   501   502  0.000000000E+00  0.000000000E+00 -4.976574722E+02  4.976574722E+02  0.000000000E+00  0.00000E+00  9.000E+00
      25     1     1     2     0     0 -7.993404772E+01 -1.092583142E+02 -1.571581862E+02  2.421787082E+02  1.250000000E+02  0.00000E+00  9.000E+00
      25     1     1     2     0     0 -6.718117325E+01  1.345493176E+02 -2.032408388E+02  2.820437333E+02  1.250000000E+02  0.00000E+00  9.000E+00
      21     1     1     2   501   512  1.471152210E+02 -2.529100343E+01  4.530292661E+01  1.559964046E+02  2.431401974E-06  0.00000E+00  9.000E+00
#rwgt            1           1   3.0226022516586494E-002           1      177240           0
</event>
<event>
      5   9999  3.19816E-02  8.66258E+01 -1.00000E+00  1.26699E-01
       1    -1     0     0   502     0  0.000000000E+00  0.000000000E+00  9.885888885E+02  9.885888885E+02  0.000000000E+00  0.00000E+00  9.000E+00
      21    -1     0     0   501   502  0.000000000E+00  0.000000000E+00 -1.847108856E+02  1.847108856E+02  0.000000000E+00  0.00000E+00  9.000E+00
      25     1     1     2     0     0 -6.743703031E+01 -6.329808053E+01  1.746817558E+02  2.338655936E+02  1.250000000E+02  0.00000E+00  9.000E+00
      25     1     1     2     0     0  8.728721321E+01  1.476188585E+02 -7.863955477E+01  2.263173978E+02  1.250000000E+02  0.00000E+00  9.000E+00
       1     1     1     2   501     0 -1.985018290E+01 -8.432077798E+01  7.078358019E+02  7.131167827E+02  7.629394531E-06  0.00000E+00  9.000E+00
#rwgt            1           1   2.6181421482914264E-002           1      177292           0
</event>
<event>
      5   9999  3.19816E-02  5.64853E+01 -1.00000E+00  1.36119E-01
      21    -1     0     0   502   501  0.000000000E+00  0.000000000E+00  1.375625720E+02  1.375625720E+02  0.000000000E+00  0.00000E+00  9.000E+00
      21    -1     0     0   511   502  0.000000000E+00  0.000000000E+00 -1.537088035E+03  1.537088035E+03  0.000000000E+00  0.00000E+00  9.000E+00
      25     1     1     2     0     0  2.047645053E+02 -2.811923503E+02 -9.399481211E+02  1.010012431E+03  1.250000000E+02  0.00000E+00  9.000E+00
      25     1     1     2     0     0 -2.479375948E+02  2.447688142E+02 -2.477518331E+02  4.454108150E+02  1.250000000E+02  0.00000E+00  9.000E+00
      21     1     1     2   511   501  4.317308943E+01  3.642353612E+01 -2.118255086E+02  2.192273608E+02  0.000000000E+00  0.00000E+00  9.000E+00
#rwgt            1           1   2.9719887451556449E-002           1      177347           0
</event>
<event>
      5   9999  3.19816E-02  5.41364E+01 -1.00000E+00  1.37134E-01
      21    -1     0     0   502   501  0.000000000E+00  0.000000000E+00  2.556409689E+03  2.556409689E+03  0.000000000E+00  0.00000E+00  9.000E+00
      21    -1     0     0   512   502  0.000000000E+00  0.000000000E+00 -4.012374274E+02  4.012374274E+02  0.000000000E+00  0.00000E+00  9.000E+00
      25     1     1     2     0     0 -8.912337274E+01 -8.357916435E+02  1.034538469E+03  1.338800019E+03  1.250000000E+02  0.00000E+00  9.000E+00
      25     1     1     2     0     0  6.128579480E+01  7.893608913E+02  1.246422005E+03  1.481903971E+03  1.250000000E+02  0.00000E+00  9.000E+00
      21     1     1     2   512   501  2.783757794E+01  4.643075220E+01 -1.257882122E+02  1.369431263E+02  3.015782986E-06  0.00000E+00  9.000E+00
#rwgt            1           1   3.3725852166277985E-002           1      177415           0
</event>
<event>
      5   9999  3.19816E-02  1.43623E+01 -1.00000E+00  1.79180E-01
      21    -1     0     0   502   501  0.000000000E+00  0.000000000E+00  5.989234339E+01  5.989234339E+01  0.000000000E+00  0.00000E+00  9.000E+00
      21    -1     0     0   501   511  0.000000000E+00  0.000000000E+00 -1.012854844E+03  1.012854844E+03  0.000000000E+00  0.00000E+00  9.000E+00
      25     1     1     2     0     0 -1.512443836E+01 -1.196847321E+02 -1.507105338E+02  2.299822792E+02  1.250000000E+02  0.00000E+00  9.000E+00
      25     1     1     2     0     0  2.943151432E+01  1.209425426E+02 -3.661703359E+02  4.064468323E+02  1.250000000E+02  0.00000E+00  9.000E+00
      21     1     1     2   502   511 -1.430707596E+01 -1.257810574E+00 -4.360816312E+02  4.363180762E+02  5.394796609E-06  0.00000E+00  9.000E+00
#rwgt            1           1   3.5189695167599955E-002           1      177577           0
</event>
<event>
      5   9999  3.19816E-02  3.66670E+01 -1.00000E+00  1.47223E-01
      21    -1     0     0   502   501  0.000000000E+00  0.000000000E+00  8.575527893E+02  8.575527893E+02  0.000000000E+00  0.00000E+00  9.000E+00
      21    -1     0     0   501   512  0.000000000E+00  0.000000000E+00 -1.412512577E+03  1.412512577E+03  0.000000000E+00  0.00000E+00  9.000E+00
      25     1     1     2     0     0 -1.086488424E+02 -1.204111610E+01  6.687001304E+02  6.890097414E+02  1.250000000E+02  0.00000E+00  9.000E+00
      25     1     1     2     0     0  1.237430352E+02  4.545721361E+01  1.322133848E+02  2.246866177E+02  1.250000000E+02  0.00000E+00  9.000E+00
      21     1     1     2   502   512 -1.509419283E+01 -3.341609751E+01 -1.355873303E+03  1.356369007E+03  1.525878906E-05  0.00000E+00  9.000E+00
#rwgt            1           1   3.1131689729192606E-002           1      177699           0
</event>
<event>
      5   9999  3.19816E-02  1.15968E+02 -1.00000E+00  1.21002E-01
      21    -1     0     0   502   501  0.000000000E+00  0.000000000E+00  7.292258052E+02  7.292258052E+02  0.000000000E+00  0.00000E+00  9.000E+00
      21    -1     0     0   501   511  0.000000000E+00  0.000000000E+00 -1.040605325E+03  1.040605325E+03  0.000000000E+00  0.00000E+00  9.000E+00
      25     1     1     2     0     0  1.336656520E+02  5.047206741E+02 -6.206224705E+02  8.206136218E+02  1.250000000E+02  0.00000E+00  9.000E+00
      25     1     1     2     0     0 -1.646110416E+02 -3.929572152E+02  5.351048839E+02  6.953232376E+02  1.250000000E+02  0.00000E+00  9.000E+00
      21     1     1     2   502   511  3.094538952E+01 -1.117634588E+02 -2.258619333E+02  2.538942708E+02  3.814697266E-06  0.00000E+00  9.000E+00
#rwgt            1           1   2.4265450886140759E-002           1      177783           0
</event>
<event>
      5   9999  3.19816E-02  1.74860E+02 -1.00000E+00  1.13814E-01
      21    -1     0     0   502   501  0.000000000E+00  0.000000000E+00  1.656030734E+03  1.656030734E+03  0.000000000E+00  0.00000E+00  9.000E+00
      21    -1     0     0   512   502  0.000000000E+00  0.000000000E+00 -1.210222832E+03  1.210222832E+03  0.000000000E+00  0.00000E+00  9.000E+00
      25     1     1     2     0     0  1.018094675E+03  4.401781439E+02  5.889979626E+02  1.262068606E+03  1.250000000E+02  0.00000E+00  9.000E+00
      25     1     1     2     0     0 -1.073270978E+03 -2.742512331E+02  2.773243086E+02  1.148763728E+03  1.250000000E+02  0.00000E+00  9.000E+00
      21     1     1     2   512   501  5.517630324E+01 -1.659269108E+02 -4.205143685E+02  4.554212317E+02  0.000000000E+00  0.00000E+00  9.000E+00
#rwgt            1           1   2.6137850923297179E-002           1      177912           0
</event>
<event>
      5   9999  3.19816E-02  1.85005E+02 -1.00000E+00  1.12894E-01
      21    -1     0     0   511   501  0.000000000E+00  0.000000000E+00  1.396406252E+03  1.396406252E+03  0.000000000E+00  0.00000E+00  9.000E+00
      21    -1     0     0   501   502  0.000000000E+00  0.000000000E+00 -2.841872786E+02  2.841872786E+02  0.000000000E+00  0.00000E+00  9.000E+00
      25     1     1     2     0     0 -2.554903526E+01  3.934571086E+02  4.219917460E+02  5.909004004E+02  1.250000000E+02  0.00000E+00  9.000E+00
      25     1     1     2     0     0  1.865259704E+02 -4.846333797E+02  2.079959503E+02  5.731917356E+02  1.250000000E+02  0.00000E+00  9.000E+00
      21     1     1     2   511   502 -1.609769351E+02  9.117627118E+01  4.822312769E+02  5.165013944E+02  5.394796609E-06  0.00000E+00  9.000E+00
#rwgt            1           1   2.9799314102097903E-002           1      178062           0
</event>
<event>
      5   9999  3.19816E-02  5.94313E+01 -1.00000E+00  1.34925E-01
      21    -1     0     0   502   501  0.000000000E+00  0.000000000E+00  3.461149893E+02  3.461149893E+02  0.000000000E+00  0.00000E+00  9.000E+00
      21    -1     0     0   501   512  0.000000000E+00  0.000000000E+00 -1.901035578E+02  1.901035578E+02  0.000000000E+00  0.00000E+00  9.000E+00
      25     1     1     2     0     0  4.432846153E+00 -1.995439696E+02  7.940252907E+00  2.356384806E+02  1.250000000E+02  0.00000E+00  9.000E+00
      25     1     1     2     0     0 -1.282277292E+01  1.407078070E+02  1.501564445E+02  2.411121488E+02  1.250000000E+02  0.00000E+00  9.000E+00
      21     1     1     2   502   512  8.389926771E+00  5.883616266E+01 -2.085265972E+00  5.946791775E+01  6.743495762E-07  0.00000E+00  9.000E+00
#rwgt            1           1   2.6775029582937176E-002           1      178110           0
</event>
<event>
      5   9999  3.19816E-02  1.43971E+02 -1.00000E+00  1.17104E-01
      21    -1     0     0   511   501  0.000000000E+00  0.000000000E+00  5.526226138E+02  5.526226138E+02  0.000000000E+00  0.00000E+00  9.000E+00
      21    -1     0     0   501   502  0.000000000E+00  0.000000000E+00 -2.078857748E+03  2.078857748E+03  0.000000000E+00  0.00000E+00  9.000E+00
      25     1     1     2     0     0 -1.064832672E+02 -3.673607901E+02 -4.228059585E+02  5.836801477E+02  1.250000000E+02  0.00000E+00  9.000E+00
      25     1     1     2     0     0 -3.592489541E+01  3.462054429E+02 -1.542246317E+03  1.585968950E+03  1.250000000E+02  0.00000E+00  9.000E+00
      21     1     1     2   511   502  1.424081626E+02  2.115534721E+01  4.388171412E+02  4.618312645E+02  1.078959322E-05  0.00000E+00  9.000E+00
#rwgt            1           1   3.0967544317777720E-002           1      178203           0
</event>
<event>
      5   9999  3.19816E-02  2.23513E+02 -1.00000E+00  1.09919E-01
      21    -1     0     0   512   501  0.000000000E+00  0.000000000E+00  2.259231343E+03  2.259231343E+03  0.000000000E+00  0.00000E+00  9.000E+00
      21    -1     0     0   501   502  0.000000000E+00  0.000000000E+00 -1.209403414E+03  1.209403414E+03  0.000000000E+00  0.00000E+00  9.000E+00
      25     1     1     2     0     0  4.953250952E+02 -8.323708784E+02  8.246936241E+01  9.801093944E+02  1.250000000E+02  0.00000E+00  9.000E+00
      25     1     1     2     0     0 -6.324243612E+02  6.558442583E+02 -4.707763029E+02  1.033125158E+03  1.250000000E+02  0.00000E+00  9.000E+00
      21     1     1     2   512   502  1.370992660E+02  1.765266202E+02  1.438134869E+03  1.455400206E+03  2.157918644E-05  0.00000E+00  9.000E+00
#rwgt            1           1   3.8014000718458396E-002           1      178252           0
</event>
<event>
      5   9999  3.19816E-02  1.82556E+01 -1.00000E+00  1.69707E-01
      21    -1     0     0   502   501  0.000000000E+00  0.000000000E+00  4.989964125E+02  4.989964125E+02  0.000000000E+00  0.00000E+00  9.000E+00
      21    -1     0     0   501   511  0.000000000E+00  0.000000000E+00 -1.426201527E+02  1.426201527E+02  0.000000000E+00  0.00000E+00  9.000E+00
      25     1     1     2     0     0 -1.965170496E+02  6.249548541E+01  5.342643491E+01  2.469899197E+02  1.250000000E+02  0.00000E+00  9.000E+00
      25     1     1     2     0     0  1.837274515E+02 -4.946884436E+01  2.992442411E+02  3.759987484E+02  1.250000000E+02  0.00000E+00  9.000E+00
      21     1     1     2   502   511  1.278959815E+01 -1.302664104E+01  3.705583836E+00  1.862789707E+01  2.632069846E-07  0.00000E+00  9.000E+00
#rwgt            1           1   2.6975510889584980E-002           1      178378           0
</event>
<event>
      5   9999  3.19816E-02  9.14166E+01 -1.00000E+00  1.25607E-01
       2    -1     0     0   502     0  0.000000000E+00  0.000000000E+00  7.492427140E+02  7.492427140E+02  0.000000000E+00  0.00000E+00  9.000E+00
      21    -1     0     0   501   502  0.000000000E+00  0.000000000E+00 -1.286489546E+03  1.286489546E+03  0.000000000E+00  0.00000E+00  9.000E+00
      25     1     1     2     0     0  3.388631608E+02 -3.348048675E+02 -4.372235327E+02  6.585681123E+02  1.250000000E+02  0.00000E+00  9.000E+00
      25     1     1     2     0     0 -3.352408331E+02  2.434600956E+02 -6.712537560E+02  7.986650358E+02  1.250000000E+02  0.00000E+00  9.000E+00
       2     1     1     2   501     0 -3.622327643E+00  9.134477183E+01  5.712304564E+02  5.784991123E+02  7.629394531E-06  0.00000E+00  9.000E+00
#rwgt            1           1   3.3302115363954513E-002           1      178533           0
</event>
<event>
      5   9999  3.19816E-02  2.02176E+02 -1.00000E+00  1.11477E-01
      21    -1     0     0   502   501  0.000000000E+00  0.000000000E+00  6.269751304E+02  6.269751304E+02  0.000000000E+00  0.00000E+00  9.000E+00
       2    -1     0     0   501     0  0.000000000E+00  0.000000000E+00 -1.339512972E+03  1.339512972E+03  0.000000000E+00  0.00000E+00  9.000E+00
      25     1     1     2     0     0  2.392250317E+02 -2.175768984E+02  4.728714690E+02  5.863452470E+02  1.250000000E+02  0.00000E+00  9.000E+00
      25     1     1     2     0     0 -3.963378908E+02  9.033424902E+01 -4.573359205E+02  6.245199311E+02  1.250000000E+02  0.00000E+00  9.000E+00
       2     1     1     2   502     0  1.571128591E+02  1.272426494E+02 -7.280733900E+02  7.556229242E+02  0.000000000E+00  0.00000E+00  9.000E+00
#rwgt            1           1   2.4632559278306768E-002           1      178591           0
</event>
<event>
      5   9999  3.19816E-02  2.06382E+02 -1.00000E+00  1.11154E-01
      21    -1     0     0   502   501  0.000000000E+00  0.000000000E+00  7.355304598E+02  7.355304598E+02  0.000000000E+00  0.00000E+00  9.000E+00
      21    -1     0     0   501   511  0.000000000E+00  0.000000000E+00 -3.975611230E+02  3.975611230E+02  0.000000000E+00  0.00000E+00  9.000E+00
      25     1     1     2     0     0 -3.466494364E+01  4.002143796E+02 -6.569067895E+01  4.258091982E+02  1.250000000E+02  0.00000E+00  9.000E+00
      25     1     1     2     0     0  1.881474785E+02 -2.622406792E+02  3.538399352E+02  4.949720671E+02  1.250000000E+02  0.00000E+00  9.000E+00
      21     1     1     2   502   511 -1.534825349E+02 -1.379737004E+02  4.982008055E+01  2.123103175E+02  1.168007728E-06  0.00000E+00  9.000E+00
#rwgt            1           1   3.1381456927314387E-002           1      178675           0
</event>
<event>
      5   9999  3.19816E-02  1.20953E+02 -1.00000E+00  1.20223E-01
      21    -1     0     0   502   501  0.000000000E+00  0.000000000E+00  3.073730537E+02  3.073730537E+02  0.000000000E+00  0.00000E+00  9.000E+00
       2    -1     0     0   501     0  0.000000000E+00  0.000000000E+00 -1.263608479E+03  1.263608479E+03  0.000000000E+00  0.00000E+00  9.000E+00
      25     1     1     2     0     0 -1.061284527E+02  4.105417295E+02 -5.375596353E+02  6.959907482E+02  1.250000000E+02  0.00000E+00  9.000E+00
      25     1     1     2     0     0  2.786814562E+01 -5.027646365E+02 -9.235590473E+01  5.269758310E+02  1.250000000E+02  0.00000E+00  9.000E+00
       2     1     1     2   502     0  7.826030707E+01  9.222290706E+01 -3.263198850E+02  3.480149531E+02  6.607249480E-06  0.00000E+00  9.000E+00
#rwgt            1           1   2.9398284260245509E-002           1      178726           0
</event>
<event>
      5   9999  3.19816E-02  1.30740E+02 -1.00000E+00  1.18809E-01
      21    -1     0     0   502   511  0.000000000E+00  0.000000000E+00  1.302029574E+03  1.302029574E+03  0.000000000E+00  0.00000E+00  9.000E+00
      21    -1     0     0   501   502  0.000000000E+00  0.000000000E+00 -1.772228228E+02  1.772228228E+02  0.000000000E+00  0.00000E+00  9.000E+00
      25     1     1     2     0     0 -2.301821998E+02 -3.237625260E+02  2.226492424E+02  4.722326794E+02  1.250000000E+02  0.00000E+00  9.000E+00
      25     1     1     2     0     0  1.959761667E+02  1.975766849E+02  5.172346567E+02  6.004997039E+02  1.250000000E+02  0.00000E+00  9.000E+00
      21     1     1     2   501   511  3.420603316E+01  1.261858411E+02  3.849228520E+02  4.065200133E+02  7.629394531E-06  0.00000E+00  9.000E+00
#rwgt            1           1   2.7445700780602839E-002           1      178817           0
</event>
<event>
      5   9999  3.19816E-02  4.04796E+02 -1.00000E+00  1.01530E-01
      21    -1     0     0   512   501  0.000000000E+00  0.000000000E+00  7.077435897E+02  7.077435897E+02  0.000000000E+00  0.00000E+00  9.000E+00
      21    -1     0     0   501   502  0.000000000E+00  0.000000000E+00 -5.272945445E+02  5.272945445E+02  0.000000000E+00  0.00000E+00  9.000E+00
      25     1     1     2     0     0 -1.558451736E+02 -2.663553997E+01  5.883232987E+01  2.099605038E+02  1.250000000E+02  0.00000E+00  9.000E+00
      25     1     1     2     0     0  5.426528247E+02 -9.269283123E+01 -8.452082825E+01  5.708176762E+02  1.250000000E+02  0.00000E+00  9.000E+00
      21     1     1     2   512   502 -3.868076511E+02  1.193283712E+02  2.061375436E+02  4.542599542E+02  3.814697266E-06  0.00000E+00  9.000E+00
#rwgt            1           1   2.5058609346577079E-002           1      178892           0
</event>
<event>
      5   9999  3.19816E-02  2.49779E+02 -1.00000E+00  1.08243E-01
      21    -1     0     0   502   501  0.000000000E+00  0.000000000E+00  9.207899102E+02  9.207899102E+02  0.000000000E+00  0.00000E+00  9.000E+00
      21    -1     0     0   511   502  0.000000000E+00  0.000000000E+00 -7.201563026E+02  7.201563026E+02  0.000000000E+00  0.00000E+00  9.000E+00
      25     1     1     2     0     0 -7.106988391E+01 -5.899543484E+02  4.912608412E+02  7.810629140E+02  1.250000000E+02  0.00000E+00  9.000E+00
      25     1     1     2     0     0 -1.648971450E+02  5.080446275E+02 -2.637002196E+02  6.086568966E+02  1.250000000E+02  0.00000E+00  9.000E+00
      21     1     1     2   511   501  2.359670289E+02  8.190972086E+01 -2.692701395E+01  2.512264022E+02  1.966049969E-06  0.00000E+00  9.000E+00
#rwgt            1           1   2.5775901475502145E-002           1      178952           0
</event>
<event>
      5   9999  3.19816E-02  4.69783E+01 -1.00000E+00  1.40638E-01
       2    -1     0     0   502     0  0.000000000E+00  0.000000000E+00  1.701975923E+03  1.701975923E+03  0.000000000E+00  0.00000E+00  9.000E+00
      21    -1     0     0   501   502  0.000000000E+00  0.000000000E+00 -5.308693613E+02  5.308693613E+02  0.000000000E+00  0.00000E+00  9.000E+00
      25     1     1     2     0     0 -2.047906340E+01 -5.430099464E+02 -2.036865267E+02  5.936264778E+02  1.250000000E+02  0.00000E+00  9.000E+00
      25     1     1     2     0     0  2.083651934E+01  5.899868919E+02  5.605641764E+02  8.236357745E+02  1.250000000E+02  0.00000E+00  9.000E+00
       2     1     1     2   501     0 -3.574559376E-01 -4.697694540E+01  8.142289122E+02  8.155830323E+02  1.078959322E-05  0.00000E+00  9.000E+00
#rwgt            1           1   2.6616577481489417E-002           1      179014           0
</event>
<event>
      5   9999  3.19816E-02  2.49181E+01 -1.00000E+00  1.58858E-01
      21    -1     0     0   502   501  0.000000000E+00  0.000000000E+00  1.673463274E+02  1.673463274E+02  0.000000000E+00  0.00000E+00  9.000E+00
      21    -1     0     0   511   502  0.000000000E+00  0.000000000E+00 -5.019080750E+02  5.019080750E+02  0.000000000E+00  0.00000E+00  9.000E+00
      25     1     1     2     0     0 -1.736794054E+02  1.133226200E+02 -6.516419159E+00  2.422271987E+02  1.250000000E+02  0.00000E+00  9.000E+00
      25     1     1     2     0     0  1.869169477E+02 -9.221149371E+01 -2.667585091E+02  3.608684069E+02  1.250000000E+02  0.00000E+00  9.000E+00
      21     1     1     2   511   501 -1.323754221E+01 -2.111112627E+01 -6.128681935E+01  6.615879686E+01  0.000000000E+00  0.00000E+00  9.000E+00
#rwgt            1           1   2.7670612912812229E-002           1      179142           0
</event>
<event>
      5   9999  3.19816E-02  1.99191E+01 -1.00000E+00  1.66514E-01
      21    -1     0     0   502   501  0.000000000E+00  0.000000000E+00  7.401908925E+02  7.401908925E+02  0.000000000E+00  0.00000E+00  9.000E+00
      21    -1     0     0   512   502  0.000000000E+00  0.000000000E+00 -3.383386071E+02  3.383386071E+02  0.000000000E+00  0.00000E+00  9.000E+00
      25     1     1     2     0     0 -3.081186921E+02  6.127519040E+01  4.473298537E+02  5.607323563E+02  1.250000000E+02  0.00000E+00  9.000E+00
      25     1     1     2     0     0  3.269579979E+02 -6.774452045E+01  1.005316184E+02  3.704354988E+02  1.250000000E+02  0.00000E+00  9.000E+00
      21     1     1     2   512   501 -1.883930583E+01  6.469330055E+00 -1.460091868E+02  1.473616446E+02  2.697398305E-06  0.00000E+00  9.000E+00
#rwgt            1           1   2.6979757846162671E-002           1      179315           0
</event>
<event>
      5   9999  3.19816E-02  1.82504E+02 -1.00000E+00  1.13115E-01
      21    -1     0     0   502   501  0.000000000E+00  0.000000000E+00  2.404210056E+02  2.404210056E+02  0.000000000E+00  0.00000E+00  9.000E+00
      21    -1     0     0   501   511  0.000000000E+00  0.000000000E+00 -3.026210404E+03  3.026210404E+03  0.000000000E+00  0.00000E+00  9.000E+00
      25     1     1     2     0     0  1.517454060E+02  2.337123193E+02 -1.051150561E+02  3.229896151E+02  1.250000000E+02  0.00000E+00  9.000E+00
      25     1     1     2     0     0 -2.421781415E+02 -7.518902739E+01 -2.733682107E+01  2.840351103E+02  1.250000000E+02  0.00000E+00  9.000E+00
      21     1     1     2   502   511  9.043273548E+01 -1.585232919E+02 -2.653337521E+03  2.659606684E+03  3.051757812E-05  0.00000E+00  9.000E+00
#rwgt            1           1   3.0838866897837384E-002           1      179506           0
</event>
<event>
      5   9999  3.19816E-02  1.39824E+02 -1.00000E+00  1.17616E-01
      21    -1     0     0   502   501  0.000000000E+00  0.000000000E+00  4.145826488E+02  4.145826488E+02  0.000000000E+00  0.00000E+00  9.000E+00
      21    -1     0     0   501   512  0.000000000E+00  0.000000000E+00 -7.678895457E+02  7.678895457E+02  0.000000000E+00  0.00000E+00  9.000E+00
      25     1     1     2     0     0  3.253697063E+02  3.082513260E+02 -3.355164969E+01  4.665137072E+02  1.250000000E+02  0.00000E+00  9.000E+00
      25     1     1     2     0     0 -3.145018039E+02 -1.688500321E+02 -1.254310339E+01  3.784231063E+02  1.250000000E+02  0.00000E+00  9.000E+00
      21     1     1     2   502   512 -1.086790241E+01 -1.394012940E+02 -3.072121439E+02  3.375353810E+02  3.814697266E-06  0.00000E+00  9.000E+00
#rwgt            1           1   3.2449633505872578E-002           1      179568           0
</event>
<event>
      5   9999  3.19816E-02  6.78708E+01 -1.00000E+00  1.31904E-01
      21    -1     0     0   511   501  0.000000000E+00  0.000000000E+00  3.121909090E+02  3.121909090E+02  0.000000000E+00  0.00000E+00  9.000E+00
      21    -1     0     0   501   502  0.000000000E+00  0.000000000E+00 -4.090911704E+02  4.090911704E+02  0.000000000E+00  0.00000E+00  9.000E+00
      25     1     1     2     0     0 -1.139785165E+02 -2.140818169E+02  5.158002623E+01  2.776825988E+02  1.250000000E+02  0.00000E+00  9.000E+00
      25     1     1     2     0     0  1.039019766E+02  2.812004840E+02 -1.770965088E+02  3.699425717E+02  1.250000000E+02  0.00000E+00  9.000E+00
      21     1     1     2   511   502  1.007653988E+01 -6.711866710E+01  2.861622115E+01  7.365690899E+01  1.581489940E-06  0.00000E+00  9.000E+00
#rwgt            1           1   2.8565251802756316E-002           1      179645           0
</event>
<event>
      5   9999  3.19816E-02  8.67729E+01 -1.00000E+00  1.26664E-01
      21    -1     0     0   512   501  0.000000000E+00  0.000000000E+00  2.627775175E+02  2.627775175E+02  0.000000000E+00  0.00000E+00  9.000E+00
      21    -1     0     0   501   502  0.000000000E+00  0.000000000E+00 -9.999280151E+02  9.999280151E+02  0.000000000E+00  0.00000E+00  9.000E+00
      25     1     1     2     0     0 -1.985037520E+02  2.209875682E+02 -3.054026432E+02  4.439988957E+02  1.250000000E+02  0.00000E+00  9.000E+00
      25     1     1     2     0     0  2.806259174E+02 -2.490142231E+02 -5.466672149E+02  6.747066271E+02  1.250000000E+02  0.00000E+00  9.000E+00
      21     1     1     2   512   502 -8.212216541E+01  2.802665491E+01  1.149193605E+02  1.440000099E+02  1.348699152E-06  0.00000E+00  9.000E+00
#rwgt            1           1   2.9756046782168370E-002           1      179726           0
</event>
<event>
      5   9999  3.19816E-02  1.72345E+01 -1.00000E+00  1.71884E-01
      21    -1     0     0   502   511  0.000000000E+00  0.000000000E+00  3.901743245E+02  3.901743245E+02  0.000000000E+00  0.00000E+00  9.000E+00
      21    -1     0     0   501   502  0.000000000E+00  0.000000000E+00 -2.378014775E+02  2.378014775E+02  0.000000000E+00  0.00000E+00  9.000E+00
      25     1     1     2     0     0 -1.812466125E+02 -1.537680804E+02  1.211385080E+02  2.946090549E+02  1.250000000E+02  0.00000E+00  9.000E+00
      25     1     1     2     0     0  1.648441001E+02  1.590581585E+02 -3.648000472E+01  2.634935784E+02  1.250000000E+02  0.00000E+00  9.000E+00
      21     1     1     2   501   511  1.640251240E+01 -5.290078157E+00  6.771434379E+01  6.987316863E+01  9.536743164E-07  0.00000E+00  9.000E+00
#rwgt            1           1   2.4052391896603628E-002           1      179798           0
</event>
<event>
      5   9999  3.19816E-02  7.45161E+01 -1.00000E+00  1.29860E-01
       1    -1     0     0   502     0  0.000000000E+00  0.000000000E+00  3.661199238E+02  3.661199238E+02  0.000000000E+00  0.00000E+00  9.000E+00
      21    -1     0     0   501   502  0.000000000E+00  0.000000000E+00 -1.233450011E+02  1.233450011E+02  0.000000000E+00  0.00000E+00  9.000E+00
      25     1     1     2     0     0  8.697235769E+01 -8.834729496E+01  1.602622188E+02  2.380722880E+02  1.250000000E+02  0.00000E+00  9.000E+00
      25     1     1     2     0     0 -1.248645628E+01  9.047007848E+01  2.401991113E+01  1.566611082E+02  1.250000000E+02  0.00000E+00  9.000E+00
       1     1     1     2   501     0 -7.448590142E+01 -2.122783517E+00  5.849279280E+01  9.473152870E+01  1.907348633E-06  0.00000E+00  9.000E+00
#rwgt            1           1   2.9449407785808644E-002           1      180007           0
</event>
<event>
      5   9999  3.19816E-02  1.39207E+02 -1.00000E+00  1.17694E-01
      21    -1     0     0   502   501  0.000000000E+00  0.000000000E+00  1.749564020E+02  1.749564020E+02  0.000000000E+00  0.00000E+00  9.000E+00
      -2    -1     0     0     0   502  0.000000000E+00  0.000000000E+00 -6.398657216E+02  6.398657216E+02  0.000000000E+00  0.00000E+00  9.000E+00
      25     1     1     2     0     0 -3.178025362E+01  1.047146568E+02 -2.815174058E+02  3.268825380E+02  1.250000000E+02  0.00000E+00  9.000E+00
      25     1     1     2     0     0  1.639151341E+02 -1.485190641E+02  4.486889509E+00  2.541086692E+02  1.250000000E+02  0.00000E+00  9.000E+00
      -2     1     1     2     0   501 -1.321348805E+02  4.380440734E+01 -1.878788033E+02  2.338309164E+02  0.000000000E+00  0.00000E+00  9.000E+00
#rwgt            1           1   2.8885272181021812E-002           1      180053           0
</event>
<event>
      5   9999  3.19816E-02  4.57316E+01 -1.00000E+00  1.41323E-01
      21    -1     0     0   502   501  0.000000000E+00  0.000000000E+00  7.387351922E+02  7.387351922E+02  0.000000000E+00  0.00000E+00  9.000E+00
       2    -1     0     0   501     0  0.000000000E+00  0.000000000E+00 -3.382527409E+03  3.382527409E+03  0.000000000E+00  0.00000E+00  9.000E+00
      25     1     1     2     0     0 -1.456005963E+02 -8.827817140E+02 -9.991408358E+02  1.347000556E+03  1.250000000E+02  0.00000E+00  9.000E+00
      25     1     1     2     0     0  1.710470843E+02  8.447836161E+02  2.286067895E+02  9.004457381E+02  1.250000000E+02  0.00000E+00  9.000E+00
       2     1     1     2   502     0 -2.544648805E+01  3.799809794E+01 -1.873258170E+03  1.873816307E+03  3.737624730E-05  0.00000E+00  9.000E+00
#rwgt            1           1   2.8065972865955670E-002           1      180116           0
</event>
<event>
      5   9999  3.19816E-02  2.70879E+01 -1.00000E+00  1.56185E-01
      21    -1     0     0   511   501  0.000000000E+00  0.000000000E+00  4.725971417E+02  4.725971417E+02  0.000000000E+00  0.00000E+00  9.000E+00
      21    -1     0     0   501   502  0.000000000E+00  0.000000000E+00 -6.241931538E+02  6.241931538E+02  0.000000000E+00  0.00000E+00  9.000E+00
      25     1     1     2     0     0  1.582116050E+02  2.827742394E+02 -3.940531421E+02  5.252571382E+02  1.250000000E+02  0.00000E+00  9.000E+00
      25     1     1     2     0     0 -1.434636962E+02 -3.054955092E+02  3.420924896E+01  3.615309267E+02  1.250000000E+02  0.00000E+00  9.000E+00
      21     1     1     2   511   502 -1.474790879E+01  2.272126974E+01  2.082478810E+02  2.100022306E+02  3.814697266E-06  0.00000E+00  9.000E+00
#rwgt            1           1   2.6907096571367528E-002           1      180278           0
</event>
<event>
      5   9999  3.19816E-02  4.41344E+01 -1.00000E+00  1.42240E-01
      21    -1     0     0   502   512  0.000000000E+00  0.000000000E+00  8.432663972E+02  8.432663972E+02  0.000000000E+00  0.00000E+00  9.000E+00
      21    -1     0     0   501   502  0.000000000E+00  0.000000000E+00 -1.367408255E+02  1.367408255E+02  0.000000000E+00  0.00000E+00  9.000E+00
      25     1     1     2     0     0  1.113669330E+02 -6.664647751E+01 -3.069091254E+01  1.827875238E+02  1.250000000E+02  0.00000E+00  9.000E+00
      25     1     1     2     0     0 -1.152050271E+02  1.106136759E+02  3.280540501E+02  3.856838645E+02  1.250000000E+02  0.00000E+00  9.000E+00
      21     1     1     2   501   512  3.838094086E+00 -4.396719835E+01  4.091624342E+02  4.115358345E+02  7.629394531E-06  0.00000E+00  9.000E+00
#rwgt            1           1   2.7104674981065887E-002           1      180412           0
</event>
<event>
      5   9999  3.19816E-02  2.91314E+01 -1.00000E+00  1.53931E-01
      21    -1     0     0   502   511  0.000000000E+00  0.000000000E+00  2.390859444E+03  2.390859444E+03  0.000000000E+00  0.00000E+00  9.000E+00
      21    -1     0     0   501   502  0.000000000E+00  0.000000000E+00 -1.707456768E+02  1.707456768E+02  0.000000000E+00  0.00000E+00  9.000E+00
      25     1     1     2     0     0 -5.141616290E+02  1.454048989E+02  1.231696250E+03  1.348408476E+03  1.250000000E+02  0.00000E+00  9.000E+00
      25     1     1     2     0     0  5.420730563E+02 -1.370628969E+02  6.221364290E+02  8.457589328E+02  1.250000000E+02  0.00000E+00  9.000E+00
      21     1     1     2   501   511 -2.791142723E+01 -8.342002034E+00  3.662810880E+02  3.674377120E+02  5.394796609E-06  0.00000E+00  9.000E+00
#rwgt            1           1   2.3491057315764768E-002           1      180513           0
</event>
<event>
      5   9999  3.19816E-02  2.10114E+01 -1.00000E+00  1.64620E-01
      21    -1     0     0   502   501  0.000000000E+00  0.000000000E+00  1.265184107E+02  1.265184107E+02  0.000000000E+00  0.00000E+00  9.000E+00
      21    -1     0     0   501   512  0.000000000E+00  0.000000000E+00 -4.827697713E+02  4.827697713E+02  0.000000000E+00  0.00000E+00  9.000E+00
      25     1     1     2     0     0 -1.027096028E+02 -3.576510797E+01  4.232494989E+01  1.710111307E+02  1.250000000E+02  0.00000E+00  9.000E+00
      25     1     1     2     0     0  9.749117646E+01  1.541201544E+01 -3.277476814E+02  3.643975883E+02  1.250000000E+02  0.00000E+00  9.000E+00
      21     1     1     2   502   512  5.218426296E+00  2.035309254E+01 -7.082862903E+01  7.387946291E+01  9.536743164E-07  0.00000E+00  9.000E+00
#rwgt            1           1   2.7514459892572073E-002           1      180604           0
</event>
<event>
      5   9999  3.19816E-02  1.28377E+02 -1.00000E+00  1.19137E-01
      21    -1     0     0   511   501  0.000000000E+00  0.000000000E+00  9.462707972E+01  9.462707972E+01  0.000000000E+00  0.00000E+00  9.000E+00
      21    -1     0     0   501   502  0.000000000E+00  0.000000000E+00 -1.561289718E+03  1.561289718E+03  0.000000000E+00  0.00000E+00  9.000E+00
      25     1     1     2     0     0  2.525296785E+02 -1.712088224E+02 -6.362938860E+02  7.166439902E+02  1.250000000E+02  0.00000E+00  9.000E+00
      25     1     1     2     0     0 -1.310768563E+02  2.127998969E+02 -7.111206190E+02  7.640565902E+02  1.250000000E+02  0.00000E+00  9.000E+00
      21     1     1     2   511   502 -1.214528223E+02 -4.159107447E+01 -1.192481337E+02  1.752162176E+02  2.336015456E-06  0.00000E+00  9.000E+00
#rwgt            1           1   2.7098121166461073E-002           1      180728           0
</event>
<event>
      5   9999  3.19816E-02  1.10666E+02 -1.00000E+00  1.21880E-01
      21    -1     0     0   502   512  0.000000000E+00  0.000000000E+00  1.989124234E+03  1.989124234E+03  0.000000000E+00  0.00000E+00  9.000E+00
      21    -1     0     0   501   502  0.000000000E+00  0.000000000E+00 -1.070461846E+02  1.070461846E+02  0.000000000E+00  0.00000E+00  9.000E+00
      25     1     1     2     0     0 -2.680993401E+02  2.397026211E+02  7.529112389E+02  8.437031091E+02  1.250000000E+02  0.00000E+00  9.000E+00
      25     1     1     2     0     0  1.733190635E+02 -2.968317790E+02  5.349409359E+02  6.480242339E+02  1.250000000E+02  0.00000E+00  9.000E+00
      21     1     1     2   501   512  9.478027664E+01  5.712915787E+01  5.942258747E+02  6.044430757E+02  1.078959322E-05  0.00000E+00  9.000E+00
#rwgt            2          11   1.8723253737139636E-003           1      180848           0
</event>
<event>
      5   9999  3.19816E-02  2.82335E+01 -1.00000E+00  1.54893E-01
      21    -1     0     0   502   501  0.000000000E+00  0.000000000E+00  1.082446864E+03  1.082446864E+03  0.000000000E+00  0.00000E+00  9.000E+00
      21    -1     0     0   501   511  0.000000000E+00  0.000000000E+00 -2.812386286E+02  2.812386286E+02  0.000000000E+00  0.00000E+00  9.000E+00
      25     1     1     2     0     0 -1.257250941E+02 -6.360216441E+01 -2.235972045E+02  2.923572207E+02  1.250000000E+02  0.00000E+00  9.000E+00
      25     1     1     2     0     0  1.369477813E+02  8.950939580E+01  1.022474759E+03  1.042998686E+03  1.250000000E+02  0.00000E+00  9.000E+00
      21     1     1     2   502   511 -1.122268714E+01 -2.590723139E+01  2.330680750E+00  2.832958555E+01  2.365486006E-07  0.00000E+00  9.000E+00
#rwgt            1           1   2.7378665148765569E-002           1      180868           0
</event>
<event>
      5   9999  3.19816E-02  5.41374E+01 -1.00000E+00  1.37134E-01
      21    -1     0     0   502   501  0.000000000E+00  0.000000000E+00  1.900728920E+02  1.900728920E+02  0.000000000E+00  0.00000E+00  9.000E+00
      21    -1     0     0   512   502  0.000000000E+00  0.000000000E+00 -9.279035172E+02  9.279035172E+02  0.000000000E+00  0.00000E+00  9.000E+00
      25     1     1     2     0     0  2.034016438E+02 -4.552566826E+01  7.780137174E+01  2.551918271E+02  1.250000000E+02  0.00000E+00  9.000E+00
      25     1     1     2     0     0 -1.645673299E+02  8.324513523E+01 -5.877355190E+02  6.285460992E+02  1.250000000E+02  0.00000E+00  9.000E+00
      21     1     1     2   512   501 -3.883431395E+01 -3.771946697E+01 -2.278964780E+02  2.342384827E+02  0.000000000E+00  0.00000E+00  9.000E+00
#rwgt            1           1   3.1421922569360425E-002           1      180976           0
</event>
<event>
      5   9999  3.19816E-02  4.39397E+01 -1.00000E+00  1.42355E-01
      21    -1     0     0   502   511  0.000000000E+00  0.000000000E+00  1.595517119E+02  1.595517119E+02  0.000000000E+00  0.00000E+00  9.000E+00
      21    -1     0     0   501   502  0.000000000E+00  0.000000000E+00 -1.056242767E+03  1.056242767E+03  0.000000000E+00  0.00000E+00  9.000E+00
      25     1     1     2     0     0  1.968619656E+02 -1.357082709E+02 -8.692097617E+02  9.101219578E+02  1.250000000E+02  0.00000E+00  9.000E+00
      25     1     1     2     0     0 -1.843999229E+02  9.357287994E+01  1.817014988E+01  2.423104822E+02  1.250000000E+02  0.00000E+00  9.000E+00
      21     1     1     2   501   511 -1.246204267E+01  4.213539099E+01 -4.565144297E+01  6.336203853E+01  6.743495762E-07  0.00000E+00  9.000E+00
#rwgt            1           1   2.7927173439936920E-002           1      181080           0
</event>
<event>
      5   9999  3.19816E-02  5.53348E+01 -1.00000E+00  1.36609E-01
      21    -1     0     0   502   501  0.000000000E+00  0.000000000E+00  3.018456061E+02  3.018456061E+02  0.000000000E+00  0.00000E+00  9.000E+00
       2    -1     0     0   501     0  0.000000000E+00  0.000000000E+00 -1.983031716E+03  1.983031716E+03  0.000000000E+00  0.00000E+00  9.000E+00
      25     1     1     2     0     0 -2.969838921E+02  1.975812807E+02 -6.103222761E+02  7.178830513E+02  1.250000000E+02  0.00000E+00  9.000E+00
      25     1     1     2     0     0  3.122286231E+02 -1.443879216E+02  1.120611554E+02  3.827757667E+02  1.250000000E+02  0.00000E+00  9.000E+00
       2     1     1     2   502     0 -1.524473109E+01 -5.319335912E+01 -1.182924989E+03  1.184218504E+03  0.000000000E+00  0.00000E+00  9.000E+00
#rwgt            1           1   2.7199594769648939E-002           1      181229           0
</event>
<event>
      5   9999  3.19816E-02  9.64629E+01 -1.00000E+00  1.24535E-01
       2    -1     0     0   502     0  0.000000000E+00  0.000000000E+00  1.106313037E+03  1.106313037E+03  0.000000000E+00  0.00000E+00  9.000E+00
      21    -1     0     0   501   502  0.000000000E+00  0.000000000E+00 -2.161798751E+02  2.161798751E+02  0.000000000E+00  0.00000E+00  9.000E+00
      25     1     1     2     0     0  2.165372062E+02  9.611170474E+01 -8.302327440E+01  2.804348152E+02  1.250000000E+02  0.00000E+00  9.000E+00
      25     1     1     2     0     0 -1.561072325E+02 -2.092325035E+01  2.946102302E+02  3.566895543E+02  1.250000000E+02  0.00000E+00  9.000E+00
       2     1     1     2   501     0 -6.042997374E+01 -7.518845439E+01  6.785462062E+02  6.853685427E+02  1.321449896E-05  0.00000E+00  9.000E+00
#rwgt            1           1   2.6755125406618469E-002           1      181301           0
</event>
<event>
      5   9999  3.19816E-02  1.91698E+02 -1.00000E+00  1.12322E-01
      21    -1     0     0   511   501  0.000000000E+00  0.000000000E+00  6.413788512E+02  6.413788512E+02  0.000000000E+00  0.00000E+00  9.000E+00
      21    -1     0     0   501   502  0.000000000E+00  0.000000000E+00 -1.368806179E+03  1.368806179E+03  0.000000000E+00  0.00000E+00  9.000E+00
      25     1     1     2     0     0 -3.786361362E+02  8.269933084E+02 -5.078130276E+02  1.049181742E+03  1.250000000E+02  0.00000E+00  9.000E+00
      25     1     1     2     0     0  2.508084851E+02 -6.841357498E+02 -2.122257280E+02  7.691627785E+02  1.250000000E+02  0.00000E+00  9.000E+00
      21     1     1     2   511   502  1.278276511E+02 -1.428575586E+02 -7.388572482E+00  1.918405105E+02  2.656254763E-06  0.00000E+00  9.000E+00
#rwgt            2          11   7.8958327437805235E-003           1      181408           0
</event>
<event>
      5   9999  3.19816E-02  1.84027E+01 -1.00000E+00  1.69408E-01
      21    -1     0     0   502   501  0.000000000E+00  0.000000000E+00  2.583468708E+02  2.583468708E+02  0.000000000E+00  0.00000E+00  9.000E+00
      21    -1     0     0   501   512  0.000000000E+00  0.000000000E+00 -2.923034328E+02  2.923034328E+02  0.000000000E+00  0.00000E+00  9.000E+00
      25     1     1     2     0     0  8.139662441E+01  4.577614412E+01  1.867236335E+02  2.433342991E+02  1.250000000E+02  0.00000E+00  9.000E+00
      25     1     1     2     0     0 -6.300174717E+01 -4.631105500E+01 -8.458255874E+01  1.699798318E+02  1.250000000E+02  0.00000E+00  9.000E+00
      21     1     1     2   502   512 -1.839487723E+01  5.349108804E-01 -1.360976366E+02  1.373361727E+02  2.697398305E-06  0.00000E+00  9.000E+00
#rwgt            1           1   3.0239017468063459E-002           1      181428           0
</event>
<event>
      5   9999  3.19816E-02  4.58079E+01 -1.00000E+00  1.41281E-01
      21    -1     0     0   502   501  0.000000000E+00  0.000000000E+00  2.573058471E+02  2.573058471E+02  0.000000000E+00  0.00000E+00  9.000E+00
      21    -1     0     0   511   502  0.000000000E+00  0.000000000E+00 -2.206737270E+02  2.206737270E+02  0.000000000E+00  0.00000E+00  9.000E+00
      25     1     1     2     0     0  4.173347956E+01 -1.361020744E+02  9.524452693E+01  2.120423964E+02  1.250000000E+02  0.00000E+00  9.000E+00
      25     1     1     2     0     0 -1.115247133E+01  1.702072330E+02 -6.092153723E+01  2.200711555E+02  1.250000000E+02  0.00000E+00  9.000E+00
      21     1     1     2   511   501 -3.058100823E+01 -3.410515866E+01  2.309130450E+00  4.586602223E+01  1.332800375E-07  0.00000E+00  9.000E+00
#rwgt            1           1   2.8615357780048638E-002           1      181552           0
</event>
<event>
      5   9999  3.19816E-02  3.93917E+01 -1.00000E+00  1.45254E-01
      21    -1     0     0   502   501  0.000000000E+00  0.000000000E+00  6.157682458E+02  6.157682458E+02  0.000000000E+00  0.00000E+00  9.000E+00
       1    -1     0     0   501     0  0.000000000E+00  0.000000000E+00 -2.844115226E+03  2.844115226E+03  0.000000000E+00  0.00000E+00  9.000E+00
      25     1     1     2     0     0 -1.220289828E+02  1.230990617E+02 -7.202627221E+02  7.512974381E+02  1.250000000E+02  0.00000E+00  9.000E+00
      25     1     1     2     0     0  1.219367174E+02 -8.370751741E+01  5.844420108E+02  6.156890250E+02  1.250000000E+02  0.00000E+00  9.000E+00
       1     1     1     2   502     0  9.226537857E-02 -3.939154428E+01 -2.092526269E+03  2.092897009E+03  3.051757812E-05  0.00000E+00  9.000E+00
#rwgt            1           1   3.1145024040633011E-002           1      181648           0
</event>
<event>
      5   9999  3.19816E-02  1.40928E+02 -1.00000E+00  1.17478E-01
      21    -1     0     0   502   501  0.000000000E+00  0.000000000E+00  1.479711933E+03  1.479711933E+03  0.000000000E+00  0.00000E+00  9.000E+00
      21    -1     0     0   511   502  0.000000000E+00  0.000000000E+00 -1.695597897E+03  1.695597897E+03  0.000000000E+00  0.00000E+00  9.000E+00
      25     1     1     2     0     0  3.894818640E+02  1.078162983E+03  4.009167790E+02  1.220856586E+03  1.250000000E+02  0.00000E+00  9.000E+00
      25     1     1     2     0     0 -5.024440837E+02 -9.938997049E+02  1.889301192E+02  1.136488570E+03  1.250000000E+02  0.00000E+00  9.000E+00
      21     1     1     2   511   501  1.129622197E+02 -8.426327785E+01 -8.057328616E+02  8.179646737E+02  1.078959322E-05  0.00000E+00  9.000E+00
#rwgt            1           1   2.6535189361274646E-002           1      181793           0
</event>
<event>
      5   9999  3.19816E-02  2.73512E+01 -1.00000E+00  1.55881E-01
      21    -1     0     0   512   501  0.000000000E+00  0.000000000E+00  1.120632822E+01  1.120632822E+01  0.000000000E+00  0.00000E+00  9.000E+00
      21    -1     0     0   501   502  0.000000000E+00  0.000000000E+00 -2.908807251E+03  2.908807251E+03  0.000000000E+00  0.00000E+00  9.000E+00
      25     1     1     2     0     0 -4.783021424E+01  6.053083375E+01 -6.611177603E+02  6.772395472E+02  1.250000000E+02  0.00000E+00  9.000E+00
      25     1     1     2     0     0  4.210929422E+01 -3.378463617E+01 -2.017483480E+03  2.022072992E+03  1.250000000E+02  0.00000E+00  9.000E+00
      21     1     1     2   512   502  5.720920019E+00 -2.674619758E+01 -2.189996820E+02  2.207010393E+02  3.814697266E-06  0.00000E+00  9.000E+00
#rwgt            1           1   4.3329143116565862E-002           1      181869           0
</event>
<event>
      5   9999  3.19816E-02  7.60138E+01 -1.00000E+00  1.29433E-01
      21    -1     0     0   502   501  0.000000000E+00  0.000000000E+00  7.541501343E+02  7.541501343E+02  0.000000000E+00  0.00000E+00  9.000E+00
      21    -1     0     0   511   502  0.000000000E+00  0.000000000E+00 -5.910065648E+01  5.910065648E+01  0.000000000E+00  0.00000E+00  9.000E+00
      25     1     1     2     0     0  8.633912777E+01  1.551328916E+01  5.170936685E+02  5.391715582E+02  1.250000000E+02  0.00000E+00  9.000E+00
      25     1     1     2     0     0 -1.432901129E+01 -3.985748533E+01  1.041004077E+02  1.680947191E+02  1.250000000E+02  0.00000E+00  9.000E+00
      21     1     1     2   511   501 -7.201011648E+01  2.434419616E+01  7.385540170E+01  1.059845136E+02  2.336015456E-06  0.00000E+00  9.000E+00
#rwgt            1           1   2.6425368986256002E-002           1      181979           0
</event>
<event>
      5   9999  3.19816E-02  2.32938E+02 -1.00000E+00  1.09290E-01
      21    -1     0     0   502   512  0.000000000E+00  0.000000000E+00  1.132882927E+03  1.132882927E+03  0.000000000E+00  0.00000E+00  9.000E+00
      21    -1     0     0   501   502  0.000000000E+00  0.000000000E+00 -8.131566761E+01  8.131566761E+01  0.000000000E+00  0.00000E+00  9.000E+00
      25     1     1     2     0     0  9.521161256E+01  8.027008965E+01  4.084813690E+02  4.449613099E+02  1.250000000E+02  0.00000E+00  9.000E+00
      25     1     1     2     0     0 -4.670088366E-01  1.325288707E+02  2.143578224E+02  2.813154736E+02  1.250000000E+02  0.00000E+00  9.000E+00
      21     1     1     2   501   512 -9.474460372E+01 -2.127989604E+02  4.287280678E+02  4.879218109E+02  7.629394531E-06  0.00000E+00  9.000E+00
#rwgt            1           1   3.4910765161511134E-002           1      182024           0
</event>
<event>
      5   9999  3.19816E-02  6.05705E+01 -1.00000E+00  1.34484E-01
      21    -1     0     0   502   501  0.000000000E+00  0.000000000E+00  1.212837310E+03  1.212837310E+03  0.000000000E+00  0.00000E+00  9.000E+00
      21    -1     0     0   501   511  0.000000000E+00  0.000000000E+00 -6.809949719E+01  6.809949719E+01  0.000000000E+00  0.00000E+00  9.000E+00
      25     1     1     2     0     0  1.264284521E+02  1.419179015E+02  6.570402766E+02  6.953069605E+02  1.250000000E+02  0.00000E+00  9.000E+00
      25     1     1     2     0     0 -1.555547701E+02 -8.881001510E+01  4.763012243E+02  5.239965282E+02  1.250000000E+02  0.00000E+00  9.000E+00
      21     1     1     2   502   511  2.912631800E+01 -5.310788643E+01  1.139631173E+01  6.163331828E+01  1.563415176E-06  0.00000E+00  9.000E+00
#rwgt            1           1   3.2684220478949672E-002           1      182052           0
</event>
<event>
      5   9999  3.19816E-02  4.27794E+01 -1.00000E+00  1.43054E-01
      21    -1     0     0   502   501  0.000000000E+00  0.000000000E+00  2.998676826E+02  2.998676826E+02  0.000000000E+00  0.00000E+00  9.000E+00
      21    -1     0     0   501   512  0.000000000E+00  0.000000000E+00 -4.645658720E+02  4.645658720E+02  0.000000000E+00  0.00000E+00  9.000E+00
      25     1     1     2     0     0 -3.303473812E+02  8.454493485E+01 -1.302216358E+02  3.858236808E+02  1.250000000E+02  0.00000E+00  9.000E+00
      25     1     1     2     0     0  3.050009558E+02 -5.008280805E+01 -2.239059076E+01  3.341559654E+02  1.250000000E+02  0.00000E+00  9.000E+00
      21     1     1     2   502   512  2.534642543E+01 -3.446212680E+01 -1.208596277E+01  4.445390828E+01  5.331201500E-07  0.00000E+00  9.000E+00
#rwgt            1           1   2.7719133788240164E-002           1      182155           0
</event>
<event>
      5   9999  3.19816E-02  2.84331E+01 -1.00000E+00  1.54676E-01
      21    -1     0     0   502   501  0.000000000E+00  0.000000000E+00  1.677887950E+03  1.677887950E+03  0.000000000E+00  0.00000E+00  9.000E+00
      21    -1     0     0   501   511  0.000000000E+00  0.000000000E+00 -1.982643968E+01  1.982643968E+01  0.000000000E+00  0.00000E+00  9.000E+00
      25     1     1     2     0     0 -8.826665992E+00  1.632079079E+01  1.310529525E+03  1.316608109E+03  1.250000000E+02  0.00000E+00  9.000E+00
      25     1     1     2     0     0 -1.954715345E+01 -1.815579835E+01  2.907157452E+02  3.175726196E+02  1.250000000E+02  0.00000E+00  9.000E+00
      21     1     1     2   502   511  2.837381944E+01  1.835007559E+00  5.681624053E+01  6.353366092E+01  2.023048729E-06  0.00000E+00  9.000E+00
#rwgt            1           1   6.4526087248967051E-002           1      182250           0
</event>
<event>
      5   9999  3.19816E-02  1.00206E+01 -1.00000E+00  1.95654E-01
      21    -1     0     0   502   512  0.000000000E+00  0.000000000E+00  5.954603337E+02  5.954603337E+02  0.000000000E+00  0.00000E+00  9.000E+00
      21    -1     0     0   501   502  0.000000000E+00  0.000000000E+00 -8.132443612E+02  8.132443612E+02  0.000000000E+00  0.00000E+00  9.000E+00
      25     1     1     2     0     0  2.178103900E+02 -4.933733539E+02 -5.218512314E+02  7.607971740E+02  1.250000000E+02  0.00000E+00  9.000E+00
      25     1     1     2     0     0 -2.272015238E+02  4.968690552E+02  2.912119228E+02  6.316080861E+02  1.250000000E+02  0.00000E+00  9.000E+00
      21     1     1     2   501   512  9.391133831E+00 -3.495701331E+00  1.285528106E+01  1.629943476E+01  0.000000000E+00  0.00000E+00  9.000E+00
#rwgt            1           1   3.5547309652222060E-002           1      182329           0
</event>
<event>
      5   9999  3.19816E-02  9.26592E+01 -1.00000E+00  1.25336E-01
      21    -1     0     0   511   501  0.000000000E+00  0.000000000E+00  1.287114915E+03  1.287114915E+03  0.000000000E+00  0.00000E+00  9.000E+00
      21    -1     0     0   501   502  0.000000000E+00  0.000000000E+00 -2.614135313E+02  2.614135313E+02  0.000000000E+00  0.00000E+00  9.000E+00
      25     1     1     2     0     0  4.519586250E+02 -5.837779845E+01  3.389892321E+02  5.815610592E+02  1.250000000E+02  0.00000E+00  9.000E+00
      25     1     1     2     0     0 -4.190013361E+02  1.449777301E+02  2.572445271E+02  5.276176728E+02  1.250000000E+02  0.00000E+00  9.000E+00
      21     1     1     2   511   502 -3.295728892E+01 -8.659993167E+01  4.294676245E+02  4.393497144E+02  0.000000000E+00  0.00000E+00  9.000E+00
#rwgt            2          11   2.0769223608763702E-003           1      182577           0
</event>
<event>
      5   9999  3.19816E-02  9.66499E+01 -1.00000E+00  1.24497E-01
      21    -1     0     0   502   501  0.000000000E+00  0.000000000E+00  1.059746504E+02  1.059746504E+02  0.000000000E+00  0.00000E+00  9.000E+00
      21    -1     0     0   512   502  0.000000000E+00  0.000000000E+00 -1.587556143E+03  1.587556143E+03  0.000000000E+00  0.00000E+00  9.000E+00
      25     1     1     2     0     0  1.122158357E+02  1.554328591E+02 -2.281091712E+02  3.231262315E+02  1.250000000E+02  0.00000E+00  9.000E+00
      25     1     1     2     0     0 -1.385962948E+02 -2.484128617E+02 -3.766452460E+02  4.882668575E+02  1.250000000E+02  0.00000E+00  9.000E+00
      21     1     1     2   512   501  2.638045911E+01  9.298000260E+01 -8.768270751E+02  8.821377042E+02  0.000000000E+00  0.00000E+00  9.000E+00
#rwgt            1           1   2.7276850720349747E-002           1      182612           0
</event>
<event>
      5   9999  3.19816E-02  5.97563E+01 -1.00000E+00  1.34798E-01
      21    -1     0     0   511   501  0.000000000E+00  0.000000000E+00  6.192219840E+02  6.192219840E+02  0.000000000E+00  0.00000E+00  9.000E+00
      21    -1     0     0   501   502  0.000000000E+00  0.000000000E+00 -5.424709679E+02  5.424709679E+02  0.000000000E+00  0.00000E+00  9.000E+00
      25     1     1     2     0     0 -4.126033847E+02  3.251614077E+02  1.314683548E+02  5.557701165E+02  1.250000000E+02  0.00000E+00  9.000E+00
      25     1     1     2     0     0  4.462185565E+02 -2.757565752E+02 -7.124194757E+01  5.439238035E+02  1.250000000E+02  0.00000E+00  9.000E+00
      21     1     1     2   511   502 -3.361517179E+01 -4.940483247E+01  1.652460888E+01  6.199903180E+01  6.743495762E-07  0.00000E+00  9.000E+00
#rwgt            1           1   3.0530951226366187E-002           1      182666           0
</event>
<event>
      5   9999  3.19816E-02  3.70846E+01 -1.00000E+00  1.46908E-01
      21    -1     0     0   502   501  0.000000000E+00  0.000000000E+00  1.498530255E+02  1.498530255E+02  0.000000000E+00  0.00000E+00  9.000E+00
      21    -1     0     0   512   502  0.000000000E+00  0.000000000E+00 -1.500759831E+03  1.500759831E+03  0.000000000E+00  0.00000E+00  9.000E+00
      25     1     1     2     0     0  1.709941649E+02  1.213519453E+01  5.293012909E+01  2.186615329E+02  1.250000000E+02  0.00000E+00  9.000E+00
      25     1     1     2     0     0 -2.062418116E+02 -2.366209412E+01 -1.135888854E+03  1.161449125E+03  1.250000000E+02  0.00000E+00  9.000E+00
      21     1     1     2   512   501  3.524764670E+01  1.152689959E+01 -2.679480799E+02  2.705021987E+02  3.814697266E-06  0.00000E+00  9.000E+00
#rwgt            1           1   2.8510123665175909E-002           1      182780           0
</event>
<event>
      5   9999  3.19816E-02  6.37625E+01 -1.00000E+00  1.33307E-01
      21    -1     0     0   511   501  0.000000000E+00  0.000000000E+00  1.874663232E+03  1.874663232E+03  0.000000000E+00  0.00000E+00  9.000E+00
      21    -1     0     0   501   502  0.000000000E+00  0.000000000E+00 -8.223125942E+01  8.223125942E+01  0.000000000E+00  0.00000E+00  9.000E+00
      25     1     1     2     0     0  1.644670938E+02 -2.089566563E+02  6.062225268E+02  6.736787522E+02  1.250000000E+02  0.00000E+00  9.000E+00
      25     1     1     2     0     0 -2.278495456E+02  2.159078514E+02  5.619000016E+02  6.556586212E+02  1.250000000E+02  0.00000E+00  9.000E+00
      21     1     1     2   511   502  6.338245185E+01 -6.951195078E+00  6.243094441E+02  6.275571179E+02  7.629394531E-06  0.00000E+00  9.000E+00
#rwgt            1           1   3.6602843116323745E-002           1      182897           0
</event>
<event>
      5   9999  3.19816E-02  2.89332E+01 -1.00000E+00  1.54140E-01
      21    -1     0     0   502   501  0.000000000E+00  0.000000000E+00  6.940553845E+02  6.940553845E+02  0.000000000E+00  0.00000E+00  9.000E+00
      21    -1     0     0   512   502  0.000000000E+00  0.000000000E+00 -1.309692775E+02  1.309692775E+02  0.000000000E+00  0.00000E+00  9.000E+00
      25     1     1     2     0     0  1.410839985E+02  1.596929411E+02  3.262211897E+02  4.092087422E+02  1.250000000E+02  0.00000E+00  9.000E+00
      25     1     1     2     0     0 -1.406316229E+02 -1.886226010E+02  2.647751854E+02  3.756150127E+02  1.250000000E+02  0.00000E+00  9.000E+00
      21     1     1     2   512   501 -4.523756306E-01  2.892965982E+01 -2.791026812E+01  4.020090705E+01  3.371747881E-07  0.00000E+00  9.000E+00
#rwgt            1           1   2.6484159367650650E-002           1      183063           0
</event>
<event>
      5   9999  3.19816E-02  1.38090E+02 -1.00000E+00  1.17836E-01
      21    -1     0     0   502   501  0.000000000E+00  0.000000000E+00  2.473589367E+02  2.473589367E+02  0.000000000E+00  0.00000E+00  9.000E+00
       2    -1     0     0   501     0  0.000000000E+00  0.000000000E+00 -8.182278782E+02  8.182278782E+02  0.000000000E+00  0.00000E+00  9.000E+00
      25     1     1     2     0     0 -1.264257530E+02  1.873503941E+02 -2.905427982E+02  3.887463939E+02  1.250000000E+02  0.00000E+00  9.000E+00
      25     1     1     2     0     0  9.407583641E+00 -1.140313210E+02  1.491261240E+02  2.257326863E+02  1.250000000E+02  0.00000E+00  9.000E+00
       2     1     1     2   502     0  1.170181693E+02 -7.331907306E+01 -4.294522673E+02  4.511077347E+02  0.000000000E+00  0.00000E+00  9.000E+00
#rwgt            1           1   2.9131696196423782E-002           1      183171           0
</event>
<event>
      5   9999  3.19816E-02  7.23343E+01 -1.00000E+00  1.30503E-01
      21    -1     0     0   502   501  0.000000000E+00  0.000000000E+00  1.036896417E+03  1.036896417E+03  0.000000000E+00  0.00000E+00  9.000E+00
      21    -1     0     0   501   511  0.000000000E+00  0.000000000E+00 -3.879077568E+02  3.879077568E+02  0.000000000E+00  0.00000E+00  9.000E+00
      25     1     1     2     0     0 -3.201085449E+01 -5.989747758E+02  3.226170941E+02  6.924610215E+02  1.250000000E+02  0.00000E+00  9.000E+00
      25     1     1     2     0     0  8.687984851E+01  5.518404464E+02  3.284383167E+02  6.599793286E+02  1.250000000E+02  0.00000E+00  9.000E+00
      21     1     1     2   502   511 -5.486899402E+01  4.713432949E+01 -2.066750624E+00  7.236382369E+01  1.345732439E-06  0.00000E+00  9.000E+00
#rwgt            1           1   3.1290176792992883E-002           1      183224           0
</event>
<event>
      5   9999  3.19816E-02  9.80034E+00 -1.00000E+00  1.96775E-01
      21    -1     0     0   502   501  0.000000000E+00  0.000000000E+00  1.893208910E+02  1.893208910E+02  0.000000000E+00  0.00000E+00  9.000E+00
      21    -1     0     0   501   512  0.000000000E+00  0.000000000E+00 -2.403639560E+02  2.403639560E+02  0.000000000E+00  0.00000E+00  9.000E+00
      25     1     1     2     0     0  7.151985333E+01 -1.376860211E+02  3.731849101E+01  2.027071770E+02  1.250000000E+02  0.00000E+00  9.000E+00
      25     1     1     2     0     0 -6.174621544E+01  1.384089848E+02 -7.472938182E+01  2.101883030E+02  1.250000000E+02  0.00000E+00  9.000E+00
      21     1     1     2   502   512 -9.773637885E+00 -7.229637363E-01 -1.363217418E+01  1.678936708E+01  0.000000000E+00  0.00000E+00  9.000E+00
#rwgt            1           1   2.4685980426310199E-002           1      183296           0
</event>
<event>
      5   9999  3.19816E-02  5.95892E+01 -1.00000E+00  1.34863E-01
      21    -1     0     0   511   501  0.000000000E+00  0.000000000E+00  3.314841795E+02  3.314841795E+02  0.000000000E+00  0.00000E+00  9.000E+00
      21    -1     0     0   501   502  0.000000000E+00  0.000000000E+00 -2.260200253E+02  2.260200253E+02  0.000000000E+00  0.00000E+00  9.000E+00
      25     1     1     2     0     0  1.140930782E+02  5.556008373E+01 -5.244298579E+01  1.856863489E+02  1.250000000E+02  0.00000E+00  9.000E+00
      25     1     1     2     0     0 -1.496040162E+02 -1.034123610E+02  1.999887040E+01  2.215861749E+02  1.250000000E+02  0.00000E+00  9.000E+00
      21     1     1     2   511   502  3.551093802E+01  4.785227728E+01  1.379082695E+02  1.502316810E+02  0.000000000E+00  0.00000E+00  9.000E+00
#rwgt            1           1   3.0274940051444540E-002           1      183519           0
</event>
<event>
      5   9999  3.19816E-02  6.59673E+01 -1.00000E+00  1.32539E-01
      21    -1     0     0   502   501  0.000000000E+00  0.000000000E+00  2.048850141E+02  2.048850141E+02  0.000000000E+00  0.00000E+00  9.000E+00
      21    -1     0     0   501   512  0.000000000E+00  0.000000000E+00 -1.874650233E+03  1.874650233E+03  0.000000000E+00  0.00000E+00  9.000E+00
      25     1     1     2     0     0 -1.201793474E+02 -7.920454717E+01 -5.251076998E+01  1.977342075E+02  1.250000000E+02  0.00000E+00  9.000E+00
      25     1     1     2     0     0  1.489051581E+02  1.982006453E+01  5.908760221E+01  2.041615189E+02  1.250000000E+02  0.00000E+00  9.000E+00
      21     1     1     2   502   512 -2.872581067E+01  5.938448264E+01 -1.676342051E+03  1.677639521E+03  2.157918644E-05  0.00000E+00  9.000E+00
#rwgt            1           1   2.6951220359349621E-002           1      183603           0
</event>
<event>
      5   9999  3.19816E-02  8.70532E+01 -1.00000E+00  1.26598E-01
      21    -1     0     0   511   501  0.000000000E+00  0.000000000E+00  1.697453780E+03  1.697453780E+03  0.000000000E+00  0.00000E+00  9.000E+00
      21    -1     0     0   501   502  0.000000000E+00  0.000000000E+00 -2.137513595E+02  2.137513595E+02  0.000000000E+00  0.00000E+00  9.000E+00
      25     1     1     2     0     0 -3.517210440E+02  2.659906679E+02  1.069326190E+03  1.163418338E+03  1.250000000E+02  0.00000E+00  9.000E+00
      25     1     1     2     0     0  2.852991154E+02 -2.097200426E+02  5.681089616E+01  3.797769864E+02  1.250000000E+02  0.00000E+00  9.000E+00
      21     1     1     2   511   502  6.642192863E+01 -5.627062529E+01  3.575653340E+02  3.680098150E+02  0.000000000E+00  0.00000E+00  9.000E+00
#rwgt            1           1   2.6947513800990489E-002           1      183685           0
</event>
<event>
      5   9999  3.19816E-02  5.40765E+01 -1.00000E+00  1.37161E-01
      21    -1     0     0   502   501  0.000000000E+00  0.000000000E+00  9.090657723E+02  9.090657723E+02  0.000000000E+00  0.00000E+00  9.000E+00
      21    -1     0     0   512   502  0.000000000E+00  0.000000000E+00 -3.171023038E+02  3.171023038E+02  0.000000000E+00  0.00000E+00  9.000E+00
      25     1     1     2     0     0  4.477064799E+01 -2.465027185E+02  6.968429592E+02  7.509880897E+02  1.250000000E+02  0.00000E+00  9.000E+00
      25     1     1     2     0     0 -3.851961846E+01  3.002167368E+02  3.099789705E+01  3.289372580E+02  1.250000000E+02  0.00000E+00  9.000E+00
      21     1     1     2   512   501 -6.251029535E+00 -5.371401832E+01 -1.358773877E+02  1.462427285E+02  2.697398305E-06  0.00000E+00  9.000E+00
#rwgt            1           1   2.8800998737370138E-002           1      183737           0
</event>
<event>
      5   9999  3.19816E-02  1.71529E+01 -1.00000E+00  1.72067E-01
      21    -1     0     0   502   511  0.000000000E+00  0.000000000E+00  1.612894034E+02  1.612894034E+02  0.000000000E+00  0.00000E+00  9.000E+00
      21    -1     0     0   501   502  0.000000000E+00  0.000000000E+00 -4.208475858E+02  4.208475858E+02  0.000000000E+00  0.00000E+00  9.000E+00
      25     1     1     2     0     0  3.885751144E+01 -1.179663179E+02  7.023634643E+01  1.896947620E+02  1.250000000E+02  0.00000E+00  9.000E+00
      25     1     1     2     0     0 -2.212426164E+01  1.217371828E+02 -3.314346942E+02  3.752111154E+02  1.250000000E+02  0.00000E+00  9.000E+00
      21     1     1     2   501   511 -1.673324980E+01 -3.770864856E+00  1.640165335E+00  1.723111177E+01  3.538829710E-07  0.00000E+00  9.000E+00
#rwgt            1           1   2.7208827665915786E-002           1      183839           0
</event>
<event>
      5   9999  3.19816E-02  1.06061E+02 -1.00000E+00  1.22689E-01
      21    -1     0     0   512   501  0.000000000E+00  0.000000000E+00  1.536149353E+03  1.536149353E+03  0.000000000E+00  0.00000E+00  9.000E+00
      21    -1     0     0   501   502  0.000000000E+00  0.000000000E+00 -6.072125789E+02  6.072125789E+02  0.000000000E+00  0.00000E+00  9.000E+00
      25     1     1     2     0     0 -4.868244788E+02  8.720226041E+01 -1.257616375E+02  5.253982270E+02  1.250000000E+02  0.00000E+00  9.000E+00
      25     1     1     2     0     0  5.396212360E+02  4.783917911E+00 -4.020964148E+00  5.539450626E+02  1.250000000E+02  0.00000E+00  9.000E+00
      21     1     1     2   512   502 -5.279675717E+01 -9.198617832E+01  1.058719376E+03  1.064018642E+03  0.000000000E+00  0.00000E+00  9.000E+00
#rwgt            1           1   3.1393541278412103E-002           1      184081           0
</event>
<event>
      5   9999  3.19816E-02  2.12219E+02 -1.00000E+00  1.10718E-01
       2    -1     0     0   502     0  0.000000000E+00  0.000000000E+00  1.470642488E+03  1.470642488E+03  0.000000000E+00  0.00000E+00  9.000E+00
      21    -1     0     0   501   502  0.000000000E+00  0.000000000E+00 -4.121017481E+02  4.121017481E+02  0.000000000E+00  0.00000E+00  9.000E+00
      25     1     1     2     0     0 -6.292554578E+02 -7.007542172E+01  3.642362820E+02  7.410573966E+02  1.250000000E+02  0.00000E+00  9.000E+00
      25     1     1     2     0     0  5.105450258E+02  2.459868612E+02  2.174442900E+02  6.197360556E+02  1.250000000E+02  0.00000E+00  9.000E+00
       2     1     1     2   501     0  1.187104319E+02 -1.759114395E+02  4.768601679E+02  5.219507840E+02  7.629394531E-06  0.00000E+00  9.000E+00
#rwgt            2          18   1.0534765533826121E-003           1      184258           0
</event>
<event>
      5   9999  3.19816E-02  2.21784E+01 -1.00000E+00  1.62748E-01
      21    -1     0     0   502   511  0.000000000E+00  0.000000000E+00  6.078188280E+01  6.078188280E+01  0.000000000E+00  0.00000E+00  9.000E+00
      21    -1     0     0   501   502  0.000000000E+00  0.000000000E+00 -1.677294310E+03  1.677294310E+03  0.000000000E+00  0.00000E+00  9.000E+00
      25     1     1     2     0     0 -1.799321845E+02 -1.272022306E+02 -8.608605685E+02  8.973638710E+02  1.250000000E+02  0.00000E+00  9.000E+00
      25     1     1     2     0     0  1.620822659E+02  1.140393117E+02 -7.760067578E+02  8.106091005E+02  1.250000000E+02  0.00000E+00  9.000E+00
      21     1     1     2   501   511  1.784991856E+01  1.316291883E+01  2.035489908E+01  3.010322145E+01  1.922192037E-06  0.00000E+00  9.000E+00
#rwgt            1           1   2.7566510624932410E-002           1      184277           0
</event>
<event>
      5   9999  3.19816E-02  2.03021E+02 -1.00000E+00  1.11412E-01
       2    -1     0     0   502     0  0.000000000E+00  0.000000000E+00  2.307237337E+03  2.307237337E+03  0.000000000E+00  0.00000E+00  9.000E+00
      21    -1     0     0   501   502  0.000000000E+00  0.000000000E+00 -6.511319349E+01  6.511319349E+01  0.000000000E+00  0.00000E+00  9.000E+00
      25     1     1     2     0     0  1.462393941E+02 -1.238601250E+02  1.201497862E+03  1.223090105E+03  1.250000000E+02  0.00000E+00  9.000E+00
      25     1     1     2     0     0 -7.403623845E+00 -2.426840334E+01  4.831430377E+01  1.363929653E+02  1.250000000E+02  0.00000E+00  9.000E+00
       2     1     1     2   501     0 -1.388357703E+02  1.481285283E+02  9.923119774E+02  1.012867461E+03  1.078959322E-05  0.00000E+00  9.000E+00
#rwgt            2          18   1.4716010564523466E-003           1      184356           0
</event>
<event>
      5   9999  3.19816E-02  1.78768E+01 -1.00000E+00  1.70494E-01
      21    -1     0     0   511   501  0.000000000E+00  0.000000000E+00  9.131528107E+01  9.131528107E+01  0.000000000E+00  0.00000E+00  9.000E+00
      21    -1     0     0   501   502  0.000000000E+00  0.000000000E+00 -1.509502079E+03  1.509502079E+03  0.000000000E+00  0.00000E+00  9.000E+00
      25     1     1     2     0     0 -2.705714216E+02  1.845653849E+02 -8.232749996E+02  8.948072421E+02  1.250000000E+02  0.00000E+00  9.000E+00
      25     1     1     2     0     0  2.700030875E+02 -2.024331793E+02 -5.807203225E+02  6.831851523E+02  1.250000000E+02  0.00000E+00  9.000E+00
      21     1     1     2   511   502  5.683341298E-01  1.786779439E+01 -1.419147619E+01  2.282496608E+01  5.591411304E-07  0.00000E+00  9.000E+00
#rwgt            1           1   2.9981419758311728E-002           1      184375           0
</event>
<event>
      5   9999  3.19816E-02  1.80134E+02 -1.00000E+00  1.13327E-01
      21    -1     0     0   502   512  0.000000000E+00  0.000000000E+00  1.453264960E+03  1.453264960E+03  0.000000000E+00  0.00000E+00  9.000E+00
      21    -1     0     0   501   502  0.000000000E+00  0.000000000E+00 -1.367652489E+03  1.367652489E+03  0.000000000E+00  0.00000E+00  9.000E+00
      25     1     1     2     0     0  6.622283271E+02  4.479321794E+02 -5.446124743E+02  9.754062445E+02  1.250000000E+02  0.00000E+00  9.000E+00
      25     1     1     2     0     0 -7.334588035E+02 -2.824803660E+02 -3.350993361E+02  8.635239074E+02  1.250000000E+02  0.00000E+00  9.000E+00
      21     1     1     2   501   512  7.123047637E+01 -1.654518135E+02  9.653242810E+02  9.819872966E+02  1.078959322E-05  0.00000E+00  9.000E+00
#rwgt            1           1   2.7150979400358492E-002           1      184548           0
</event>
<event>
      5   9999  3.19816E-02  1.88272E+02 -1.00000E+00  1.12612E-01
      21    -1     0     0   511   501  0.000000000E+00  0.000000000E+00  6.251748151E+02  6.251748151E+02  0.000000000E+00  0.00000E+00  9.000E+00
      21    -1     0     0   501   502  0.000000000E+00  0.000000000E+00 -1.496277280E+02  1.496277280E+02  0.000000000E+00  0.00000E+00  9.000E+00
      25     1     1     2     0     0  2.476045899E+01  5.380315790E+01 -4.682955335E+00  1.384008316E+02  1.250000000E+02  0.00000E+00  9.000E+00
      25     1     1     2     0     0 -1.717061891E+02  6.389731724E+01  3.190136670E+02  3.885364876E+02  1.250000000E+02  0.00000E+00  9.000E+00
      21     1     1     2   511   502  1.469457301E+02 -1.177004751E+02  1.612163756E+02  2.478652238E+02  1.907348633E-06  0.00000E+00  9.000E+00
#rwgt            1           1   2.9080310195006079E-002           1      184632           0
</event>
<event>
      5   9999  3.19816E-02  6.85411E+01 -1.00000E+00  1.31686E-01
      21    -1     0     0   502   501  0.000000000E+00  0.000000000E+00  5.738605980E+02  5.738605980E+02  0.000000000E+00  0.00000E+00  9.000E+00
      21    -1     0     0   501   512  0.000000000E+00  0.000000000E+00 -5.305751833E+02  5.305751833E+02  0.000000000E+00  0.00000E+00  9.000E+00
      25     1     1     2     0     0  3.373630123E+02 -1.742430163E+02  3.326298795E+02  5.200404480E+02  1.250000000E+02  0.00000E+00  9.000E+00
      25     1     1     2     0     0 -3.300919557E+02  2.423973194E+02 -2.022006998E+02  4.735264329E+02  1.250000000E+02  0.00000E+00  9.000E+00
      21     1     1     2   502   512 -7.271056636E+00 -6.815430315E+01 -8.714376492E+01  1.108689004E+02  0.000000000E+00  0.00000E+00  9.000E+00
#rwgt            1           1   2.9114104190930568E-002           1      184662           0
</event>
<event>
      5   9999  3.19816E-02  1.04464E+02 -1.00000E+00  1.22981E-01
      21    -1     0     0   502   501  0.000000000E+00  0.000000000E+00  1.967923724E+02  1.967923724E+02  0.000000000E+00  0.00000E+00  9.000E+00
      21    -1     0     0   501   511  0.000000000E+00  0.000000000E+00 -2.238065046E+03  2.238065046E+03  0.000000000E+00  0.00000E+00  9.000E+00
      25     1     1     2     0     0  1.319428939E+02 -4.277047346E+02 -1.623895970E+03  1.689083594E+03  1.250000000E+02  0.00000E+00  9.000E+00
      25     1     1     2     0     0 -1.247203474E+02  3.234906535E+02 -5.994521827E+01  3.733896051E+02  1.250000000E+02  0.00000E+00  9.000E+00
      21     1     1     2   502   511 -7.222546435E+00  1.042140811E+02 -3.574314847E+02  3.723842184E+02  5.394796609E-06  0.00000E+00  9.000E+00
#rwgt            1           1   3.1058283876507432E-002           1      184772           0
</event>
<event>
      5   9999  3.19816E-02  4.53828E+02 -1.00000E+00  1.00062E-01
       1    -1     0     0   502     0  0.000000000E+00  0.000000000E+00  3.296046495E+03  3.296046495E+03  0.000000000E+00  0.00000E+00  9.000E+00
      21    -1     0     0   501   502  0.000000000E+00  0.000000000E+00 -8.604121984E+02  8.604121984E+02  0.000000000E+00  0.00000E+00  9.000E+00
      25     1     1     2     0     0  2.363715693E+02 -4.810447151E+02  1.084437329E+03  1.216102322E+03  1.250000000E+02  0.00000E+00  9.000E+00
      25     1     1     2     0     0  6.322485520E+01  1.401601969E+02 -7.576985306E+02  7.831821795E+02  1.250000000E+02  0.00000E+00  9.000E+00
       1     1     1     2   501     0 -2.995964245E+02  3.408845183E+02  2.108895498E+03  2.157174192E+03  0.000000000E+00  0.00000E+00  9.000E+00
#rwgt            2          17   4.2920621364975437E-004           1      184906           0
</event>
<event>
      5   9999  3.19816E-02  1.18176E+02 -1.00000E+00  1.20651E-01
      21    -1     0     0   502   501  0.000000000E+00  0.000000000E+00  1.782460843E+03  1.782460843E+03  0.000000000E+00  0.00000E+00  9.000E+00
      21    -1     0     0   511   502  0.000000000E+00  0.000000000E+00 -2.474854385E+02  2.474854385E+02  0.000000000E+00  0.00000E+00  9.000E+00
      25     1     1     2     0     0  1.537325872E+02 -3.981371159E+02  8.610907970E+02  9.691487152E+02  1.250000000E+02  0.00000E+00  9.000E+00
      25     1     1     2     0     0 -1.508893421E+02  2.799956989E+02  8.108333819E+02  8.799096306E+02  1.250000000E+02  0.00000E+00  9.000E+00
      21     1     1     2   511   501 -2.843245093E+00  1.181414170E+02 -1.369487745E+02  1.808879357E+02  3.814697266E-06  0.00000E+00  9.000E+00
#rwgt            1           1   2.3680759906807458E-002           1      184940           0
</event>
<event>
      5   9999  3.19816E-02  2.07098E+02 -1.00000E+00  1.11099E-01
      21    -1     0     0   502   501  0.000000000E+00  0.000000000E+00  7.524205237E+02  7.524205237E+02  0.000000000E+00  0.00000E+00  9.000E+00
      21    -1     0     0   512   502  0.000000000E+00  0.000000000E+00 -2.857060097E+03  2.857060097E+03  0.000000000E+00  0.00000E+00  9.000E+00
      25     1     1     2     0     0  7.842335620E+02  1.117667375E+03 -1.108454112E+03  1.763093350E+03  1.250000000E+02  0.00000E+00  9.000E+00
      25     1     1     2     0     0 -5.843483710E+02 -1.171849014E+03 -7.150356661E+02  1.497195423E+03  1.250000000E+02  0.00000E+00  9.000E+00
      21     1     1     2   512   501 -1.998851909E+02  5.418163842E+01 -2.811497954E+02  3.491918484E+02  3.814697266E-06  0.00000E+00  9.000E+00
#rwgt            1           1   3.0412652503034002E-002           1      185019           0
</event>
<event>
      5   9999  3.19816E-02  9.00539E+01 -1.00000E+00  1.25909E-01
      21    -1     0     0   502   501  0.000000000E+00  0.000000000E+00  5.305104530E+02  5.305104530E+02  0.000000000E+00  0.00000E+00  9.000E+00
      21    -1     0     0   511   502  0.000000000E+00  0.000000000E+00 -2.331498013E+03  2.331498013E+03  0.000000000E+00  0.00000E+00  9.000E+00
      25     1     1     2     0     0 -3.040370955E+02 -5.106419606E+02  8.322461956E+01  6.129805092E+02  1.250000000E+02  0.00000E+00  9.000E+00
      25     1     1     2     0     0  3.412191179E+02  5.926615342E+02 -4.867399089E+02  8.486571271E+02  1.250000000E+02  0.00000E+00  9.000E+00
      21     1     1     2   511   501 -3.718202242E+01 -8.201957361E+01 -1.397472270E+03  1.400370829E+03  1.525878906E-05  0.00000E+00  9.000E+00
#rwgt            1           1   2.9073743955063684E-002           1      185109           0
</event>
<event>
      5   9999  3.19816E-02  1.29275E+01 -1.00000E+00  1.83692E-01
      21    -1     0     0   502   501  0.000000000E+00  0.000000000E+00  6.515448670E+02  6.515448670E+02  0.000000000E+00  0.00000E+00  9.000E+00
      21    -1     0     0   501   512  0.000000000E+00  0.000000000E+00 -1.320155801E+02  1.320155801E+02  0.000000000E+00  0.00000E+00  9.000E+00
      25     1     1     2     0     0 -9.720088888E+01  1.865348689E+02  3.793452465E+02  4.514101086E+02  1.250000000E+02  0.00000E+00  9.000E+00
      25     1     1     2     0     0  1.090825668E+02 -1.814412419E+02  1.705015215E+02  2.991917436E+02  1.250000000E+02  0.00000E+00  9.000E+00
      21     1     1     2   502   512 -1.188167791E+01 -5.093627020E+00 -3.031748115E+01  3.295859477E+01  3.371747881E-07  0.00000E+00  9.000E+00
#rwgt            1           1   2.3471839754996452E-002           1      185185           0
</event>
<event>
      5   9999  3.19816E-02  6.18462E+01 -1.00000E+00  1.34004E-01
      21    -1     0     0   502   501  0.000000000E+00  0.000000000E+00  1.873058331E+02  1.873058331E+02  0.000000000E+00  0.00000E+00  9.000E+00
       1    -1     0     0   501     0  0.000000000E+00  0.000000000E+00 -2.068637052E+03  2.068637052E+03  0.000000000E+00  0.00000E+00  9.000E+00
      25     1     1     2     0     0  1.245332372E+02 -8.448008661E+01 -5.783986433E+02  6.105861141E+02  1.250000000E+02  0.00000E+00  9.000E+00
      25     1     1     2     0     0 -1.766923686E+02  5.124783929E+01  9.800365284E+01  2.430560637E+02  1.250000000E+02  0.00000E+00  9.000E+00
       1     1     1     2   502     0  5.215913141E+01  3.323224731E+01 -1.400936228E+03  1.402300707E+03  2.157918644E-05  0.00000E+00  9.000E+00
#rwgt            1           1   2.9315315611152561E-002           1      185353           0
</event>
<event>
      5   9999  3.19816E-02  5.83950E+02 -1.00000E+00  9.69741E-02
      21    -1     0     0   502   501  0.000000000E+00  0.000000000E+00  8.685470422E+02  8.685470422E+02  0.000000000E+00  0.00000E+00  9.000E+00
      21    -1     0     0   501   511  0.000000000E+00  0.000000000E+00 -7.261736083E+02  7.261736083E+02  0.000000000E+00  0.00000E+00  9.000E+00
      25     1     1     2     0     0  1.637150996E+02 -1.731213956E+02  3.317527939E+01  2.711074521E+02  1.250000000E+02  0.00000E+00  9.000E+00
      25     1     1     2     0     0 -2.899853051E+01 -3.950768208E+02  4.777505078E+02  6.330854261E+02  1.250000000E+02  0.00000E+00  9.000E+00
      21     1     1     2   502   511 -1.347165691E+02  5.681982164E+02 -3.685523532E+02  6.905277722E+02  1.427329020E-05  0.00000E+00  9.000E+00
#rwgt            2          11   3.8234006775636513E-003           1      185417           0
</event>
<event>
      5   9999  3.19816E-02  3.54565E+01 -1.00000E+00  1.48164E-01
      21    -1     0     0   502   512  0.000000000E+00  0.000000000E+00  1.260316228E+02  1.260316228E+02  0.000000000E+00  0.00000E+00  9.000E+00
      21    -1     0     0   501   502  0.000000000E+00  0.000000000E+00 -2.135676949E+03  2.135676949E+03  0.000000000E+00  0.00000E+00  9.000E+00
      25     1     1     2     0     0  8.588096472E+01 -3.699844128E+02 -1.494394457E+03  1.546965998E+03  1.250000000E+02  0.00000E+00  9.000E+00
      25     1     1     2     0     0 -1.126662127E+02  3.932161917E+02 -5.257595088E+02  6.777615436E+02  1.250000000E+02  0.00000E+00  9.000E+00
      21     1     1     2   501   512  2.678524795E+01 -2.323177889E+01  1.050863990E+01  3.698102988E+01  4.129530925E-07  0.00000E+00  9.000E+00
#rwgt            1           1   2.7883018935042574E-002           1      185437           0
</event>
<event>
      5   9999  3.19816E-02  1.27122E+02 -1.00000E+00  1.19315E-01
      21    -1     0     0   502   511  0.000000000E+00  0.000000000E+00  6.955969514E+02  6.955969514E+02  0.000000000E+00  0.00000E+00  9.000E+00
      21    -1     0     0   501   502  0.000000000E+00  0.000000000E+00 -2.204467398E+03  2.204467398E+03  0.000000000E+00  0.00000E+00  9.000E+00
      25     1     1     2     0     0  1.086028185E+03 -5.713226797E+00 -1.263113741E+03  1.670500279E+03  1.250000000E+02  0.00000E+00  9.000E+00
      25     1     1     2     0     0 -9.595951358E+02  1.892804565E+01 -3.844331089E+02  1.041438866E+03  1.250000000E+02  0.00000E+00  9.000E+00
      21     1     1     2   501   511 -1.264330494E+02 -1.321481886E+01  1.386764039E+02  1.881252041E+02  1.907348633E-06  0.00000E+00  9.000E+00
#rwgt            1           1   3.0270109282411348E-002           1      185572           0
</event>
<event>
      5   9999  3.19816E-02  2.43921E+01 -1.00000E+00  1.59556E-01
      21    -1     0     0   512   501  0.000000000E+00  0.000000000E+00  6.324528264E+02  6.324528264E+02  0.000000000E+00  0.00000E+00  9.000E+00
      21    -1     0     0   501   502  0.000000000E+00  0.000000000E+00 -6.351452966E+02  6.351452966E+02  0.000000000E+00  0.00000E+00  9.000E+00
      25     1     1     2     0     0 -4.267658347E+02  2.975280358E+02 -3.105451449E+01  5.359490579E+02  1.250000000E+02  0.00000E+00  9.000E+00
      25     1     1     2     0     0  4.334231523E+02 -3.209940184E+02 -1.322323921E+02  5.692127847E+02  1.250000000E+02  0.00000E+00  9.000E+00
      21     1     1     2   512   502 -6.657317582E+00  2.346598259E+01  1.605944363E+02  1.624362804E+02  0.000000000E+00  0.00000E+00  9.000E+00
#rwgt            1           1   3.0526407064357618E-002           1      185644           0
</event>
<event>
      5   9999  3.19816E-02  1.18128E+02 -1.00000E+00  1.20659E-01
      -2    -1     0     0     0   501  0.000000000E+00  0.000000000E+00  6.434466515E+02  6.434466515E+02  0.000000000E+00  0.00000E+00  9.000E+00
      21    -1     0     0   501   502  0.000000000E+00  0.000000000E+00 -1.210767050E+03  1.210767050E+03  0.000000000E+00  0.00000E+00  9.000E+00
      25     1     1     2     0     0  4.156928567E+02 -3.479757264E+02 -4.189477999E+02  6.964408922E+02  1.250000000E+02  0.00000E+00  9.000E+00
      25     1     1     2     0     0 -5.193157740E+02  2.912614700E+02 -4.995824709E+02  7.872291676E+02  1.250000000E+02  0.00000E+00  9.000E+00
      -2     1     1     2     0   502  1.036229173E+02  5.671425642E+01  3.512098724E+02  3.705436416E+02  3.814697266E-06  0.00000E+00  9.000E+00
#rwgt            1           1   2.9582850602594489E-002           1      185811           0
</event>
<event>
      5   9999  3.19816E-02  6.47945E+01 -1.00000E+00  1.32943E-01
      21    -1     0     0   502   511  0.000000000E+00  0.000000000E+00  3.054234468E+02  3.054234468E+02  0.000000000E+00  0.00000E+00  9.000E+00
      21    -1     0     0   501   502  0.000000000E+00  0.000000000E+00 -2.852477723E+02  2.852477723E+02  0.000000000E+00  0.00000E+00  9.000E+00
      25     1     1     2     0     0  4.834432621E+01 -3.759584807E+01  1.923706258E+02  2.374491090E+02  1.250000000E+02  0.00000E+00  9.000E+00
      25     1     1     2     0     0 -7.927314664E+01 -1.934036661E+01 -2.247406370E+02  2.697992503E+02  1.250000000E+02  0.00000E+00  9.000E+00
      21     1     1     2   501   511  3.092882043E+01  5.693621468E+01  5.254568565E+01  8.342285991E+01  2.023048729E-06  0.00000E+00  9.000E+00
#rwgt            1           1   2.9676367600403378E-002           1      185880           0
</event>
<event>
      5   9999  3.19816E-02  3.28036E+01 -1.00000E+00  1.50393E-01
      21    -1     0     0   502   501  0.000000000E+00  0.000000000E+00  8.662410477E+02  8.662410477E+02  0.000000000E+00  0.00000E+00  9.000E+00
      21    -1     0     0   501   512  0.000000000E+00  0.000000000E+00 -5.517758565E+01  5.517758565E+01  0.000000000E+00  0.00000E+00  9.000E+00
      25     1     1     2     0     0  1.592392425E+02  2.284647661E+01  5.050599792E+02  5.446004778E+02  1.250000000E+02  0.00000E+00  9.000E+00
      25     1     1     2     0     0 -1.294067207E+02 -3.648826553E+01  2.806408657E+02  3.353532292E+02  1.250000000E+02  0.00000E+00  9.000E+00
      21     1     1     2   502   512 -2.983252181E+01  1.364178892E+01  2.536261720E+01  4.146492631E+01  0.000000000E+00  0.00000E+00  9.000E+00
#rwgt            1           1   2.6670877633192220E-002           1      185960           0
</event>
<event>
      5   9999  3.19816E-02  1.67942E+02 -1.00000E+00  1.14482E-01
      21    -1     0     0   502   511  0.000000000E+00  0.000000000E+00  1.145637019E+03  1.145637019E+03  0.000000000E+00  0.00000E+00  9.000E+00
      21    -1     0     0   501   502  0.000000000E+00  0.000000000E+00 -5.624947759E+02  5.624947759E+02  0.000000000E+00  0.00000E+00  9.000E+00
      25     1     1     2     0     0  2.581417996E+02 -5.306019478E+00  4.972235902E+02  5.740397557E+02  1.250000000E+02  0.00000E+00  9.000E+00
      25     1     1     2     0     0 -2.390168786E+02 -1.615431839E+02 -4.632226637E+02  5.598441790E+02  1.250000000E+02  0.00000E+00  9.000E+00
      21     1     1     2   501   511 -1.912492096E+01  1.668492034E+02  5.491413165E+02  5.742478601E+02  1.078959322E-05  0.00000E+00  9.000E+00
#rwgt            1           1   3.2347210878388384E-002           1      186030           0
</event>
<event>
      5   9999  3.19816E-02  4.35554E+01 -1.00000E+00  1.42583E-01
      21    -1     0     0   502   501  0.000000000E+00  0.000000000E+00  1.553678650E+03  1.553678650E+03  0.000000000E+00  0.00000E+00  9.000E+00
      21    -1     0     0   501   512  0.000000000E+00  0.000000000E+00 -3.225603625E+01  3.225603625E+01  0.000000000E+00  0.00000E+00  9.000E+00
      25     1     1     2     0     0 -7.704542035E+01  6.046154092E+01  9.445364541E+02  9.577921006E+02  1.250000000E+02  0.00000E+00  9.000E+00
      25     1     1     2     0     0  1.143492299E+02 -8.294489556E+01  5.366915633E+02  5.688747105E+02  1.250000000E+02  0.00000E+00  9.000E+00
      21     1     1     2   502   512 -3.730380959E+01  2.248335464E+01  4.019459592E+01  5.926787483E+01  1.430511475E-06  0.00000E+00  9.000E+00
#rwgt            1           1   3.0111414044798102E-002           1      186073           0
</event>
<event>
      5   9999  3.19816E-02  1.67675E+01 -1.00000E+00  1.72944E-01
      21    -1     0     0   502   501  0.000000000E+00  0.000000000E+00  2.892200451E+02  2.892200451E+02  0.000000000E+00  0.00000E+00  9.000E+00
      21    -1     0     0   511   502  0.000000000E+00  0.000000000E+00 -4.261458766E+02  4.261458766E+02  0.000000000E+00  0.00000E+00  9.000E+00
      25     1     1     2     0     0  4.015337809E+01 -2.879385169E+02 -1.090094582E+02  3.347072531E+02  1.250000000E+02  0.00000E+00  9.000E+00
      25     1     1     2     0     0 -2.499290840E+01  2.951016100E+02  2.762467303E+01  3.226417955E+02  1.250000000E+02  0.00000E+00  9.000E+00
      21     1     1     2   511   501 -1.516046968E+01 -7.163093083E+00 -5.554104626E+01  5.801687309E+01  0.000000000E+00  0.00000E+00  9.000E+00
#rwgt            1           1   3.0675856263311884E-002           1      186181           0
</event>
<event>
      5   9999  3.19816E-02  1.56169E+02 -1.00000E+00  1.15704E-01
      21    -1     0     0   502   501  0.000000000E+00  0.000000000E+00  2.654755948E+02  2.654755948E+02  0.000000000E+00  0.00000E+00  9.000E+00
      21    -1     0     0   512   502  0.000000000E+00  0.000000000E+00 -3.007890321E+02  3.007890321E+02  0.000000000E+00  0.00000E+00  9.000E+00
      25     1     1     2     0     0  5.068554031E+01  1.018587237E+02  1.702109971E+01  1.698791966E+02  1.250000000E+02  0.00000E+00  9.000E+00
      25     1     1     2     0     0  3.706705339E+01  2.732428056E+01  1.087950357E+02  1.719940189E+02  1.250000000E+02  0.00000E+00  9.000E+00
      21     1     1     2   512   501 -8.775259370E+01 -1.291830043E+02 -1.611295728E+02  2.243914114E+02  3.814697266E-06  0.00000E+00  9.000E+00
#rwgt            2          11   1.3251236469708151E-003           1      186375           0
</event>
<event>
      5   9999  3.19816E-02  3.12562E+01 -1.00000E+00  1.51813E-01
      21    -1     0     0   502   501  0.000000000E+00  0.000000000E+00  1.690420174E+02  1.690420174E+02  0.000000000E+00  0.00000E+00  9.000E+00
      21    -1     0     0   501   511  0.000000000E+00  0.000000000E+00 -2.862645513E+02  2.862645513E+02  0.000000000E+00  0.00000E+00  9.000E+00
      25     1     1     2     0     0 -1.208317778E+02 -5.249148666E+01  5.462722979E+00  1.816879634E+02  1.250000000E+02  0.00000E+00  9.000E+00
      25     1     1     2     0     0  1.499075376E+02  6.396114015E+01 -7.936130415E+01  2.201965346E+02  1.250000000E+02  0.00000E+00  9.000E+00
      21     1     1     2   502   511 -2.907575971E+01 -1.146965348E+01 -4.332395274E+01  5.342207067E+01  4.768371582E-07  0.00000E+00  9.000E+00
#rwgt            1           1   2.5479449079935629E-002           1      186410           0
</event>
<event>
      5   9999  3.19816E-02  3.12758E+01 -1.00000E+00  1.51794E-01
      21    -1     0     0   502   501  0.000000000E+00  0.000000000E+00  5.900909651E+01  5.900909651E+01  0.000000000E+00  0.00000E+00  9.000E+00
      21    -1     0     0   501   512  0.000000000E+00  0.000000000E+00 -6.849080322E+02  6.849080322E+02  0.000000000E+00  0.00000E+00  9.000E+00
      25     1     1     2     0     0 -6.346424344E+01 -4.964579563E+01 -3.311198802E+02  3.629845593E+02  1.250000000E+02  0.00000E+00  9.000E+00
      25     1     1     2     0     0  9.205492291E+01  3.696701913E+01 -1.107031719E+02  1.942185923E+02  1.250000000E+02  0.00000E+00  9.000E+00
      21     1     1     2   502   512 -2.859067947E+01  1.267877650E+01 -1.840758836E+02  1.867139771E+02  2.697398305E-06  0.00000E+00  9.000E+00
#rwgt            1           1   3.3165569267928026E-002           1      186551           0
</event>
<event>
      5   9999  3.19816E-02  5.83927E+01 -1.00000E+00  1.35337E-01
      21    -1     0     0   502   501  0.000000000E+00  0.000000000E+00  8.751228270E+02  8.751228270E+02  0.000000000E+00  0.00000E+00  9.000E+00
      21    -1     0     0   511   502  0.000000000E+00  0.000000000E+00 -2.646115082E+02  2.646115082E+02  0.000000000E+00  0.00000E+00  9.000E+00
      25     1     1     2     0     0 -1.817368222E+02 -1.911856280E+02  7.304617111E+02  7.866254053E+02  1.250000000E+02  0.00000E+00  9.000E+00
      25     1     1     2     0     0  1.238713823E+02  1.990151942E+02 -6.629620350E+01  2.738089726E+02  1.250000000E+02  0.00000E+00  9.000E+00
      21     1     1     2   511   501  5.786543991E+01 -7.829566160E+00 -5.365418880E+01  7.929995724E+01  1.907348633E-06  0.00000E+00  9.000E+00
#rwgt            2          11   2.5249921435470438E-003           1      186752           0
</event>
<event>
      5   9999  3.19816E-02  8.64950E+01 -1.00000E+00  1.26730E-01
      21    -1     0     0   512   501  0.000000000E+00  0.000000000E+00  1.845233513E+03  1.845233513E+03  0.000000000E+00  0.00000E+00  9.000E+00
      21    -1     0     0   501   502  0.000000000E+00  0.000000000E+00 -6.274990272E+02  6.274990272E+02  0.000000000E+00  0.00000E+00  9.000E+00
      25     1     1     2     0     0 -1.244905557E+02  5.814820949E+02 -3.971026174E+02  7.259027579E+02  1.250000000E+02  0.00000E+00  9.000E+00
      25     1     1     2     0     0  7.840527382E+01 -5.082868868E+02  1.552425735E+03  1.640168775E+03  1.250000000E+02  0.00000E+00  9.000E+00
      21     1     1     2   512   502  4.608528186E+01 -7.319520809E+01  6.241136797E+01  1.066610076E+02  1.651812370E-06  0.00000E+00  9.000E+00
#rwgt            1           1   3.5523828989948138E-002           1      186787           0
</event>
<event>
      5   9999  3.19816E-02  1.65033E+02 -1.00000E+00  1.14773E-01
      21    -1     0     0   511   501  0.000000000E+00  0.000000000E+00  7.884117637E+02  7.884117637E+02  0.000000000E+00  0.00000E+00  9.000E+00
      21    -1     0     0   501   502  0.000000000E+00  0.000000000E+00 -2.529075673E+02  2.529075673E+02  0.000000000E+00  0.00000E+00  9.000E+00
      25     1     1     2     0     0  9.734786101E+01  1.623512516E+02  1.148089913E+02  2.542452348E+02  1.250000000E+02  0.00000E+00  9.000E+00
      25     1     1     2     0     0 -2.559543272E+02 -1.167442625E+02 -2.788148950E+01  3.091022774E+02  1.250000000E+02  0.00000E+00  9.000E+00
      21     1     1     2   511   502  1.586064662E+02 -4.560698907E+01  4.485766947E+02  4.779718188E+02  5.394796609E-06  0.00000E+00  9.000E+00
#rwgt            1           1   2.7827380809338147E-002           1      186926           0
</event>
<event>
      5   9999  3.19816E-02  1.64989E+02 -1.00000E+00  1.14778E-01
      21    -1     0     0   502   501  0.000000000E+00  0.000000000E+00  6.208835027E+02  6.208835027E+02  0.000000000E+00  0.00000E+00  9.000E+00
      -2    -1     0     0     0   502  0.000000000E+00  0.000000000E+00 -2.406994808E+03  2.406994808E+03  0.000000000E+00  0.00000E+00  9.000E+00
      25     1     1     2     0     0  3.073364676E+01 -3.128277569E+02  5.700418268E+01  3.430455354E+02  1.250000000E+02  0.00000E+00  9.000E+00
      25     1     1     2     0     0  1.997331482E+01  4.698314690E+02  2.759277979E+02  5.593761634E+02  1.250000000E+02  0.00000E+00  9.000E+00
      -2     1     1     2     0   501 -5.070696158E+01 -1.570037121E+02 -2.119043286E+03  2.125456612E+03  3.051757812E-05  0.00000E+00  9.000E+00
#rwgt            2           9   2.2009631927541364E-004           1      187125           0
</event>
<event>
      5   9999  3.19816E-02  7.73457E+01 -1.00000E+00  1.29063E-01
      21    -1     0     0   502   501  0.000000000E+00  0.000000000E+00  2.395694822E+02  2.395694822E+02  0.000000000E+00  0.00000E+00  9.000E+00
       2    -1     0     0   501     0  0.000000000E+00  0.000000000E+00 -2.118208747E+03  2.118208747E+03  0.000000000E+00  0.00000E+00  9.000E+00
      25     1     1     2     0     0 -3.674527090E+02  3.215914172E+02 -1.554653451E+02  5.274817594E+02  1.250000000E+02  0.00000E+00  9.000E+00
      25     1     1     2     0     0  3.368518756E+02 -2.505566433E+02 -8.741639055E+02  9.777706026E+02  1.250000000E+02  0.00000E+00  9.000E+00
       2     1     1     2   502     0  3.060083339E+01 -7.103477395E+01 -8.490100140E+02  8.525258671E+02  1.078959322E-05  0.00000E+00  9.000E+00
#rwgt            1           1   2.7029854356534825E-002           1      187144           0
</event>
<event>
      5   9999  3.19816E-02  5.19946E+01 -1.00000E+00  1.38113E-01
       1    -1     0     0   502     0  0.000000000E+00  0.000000000E+00  6.630193856E+02  6.630193856E+02  0.000000000E+00  0.00000E+00  9.000E+00
      21    -1     0     0   501   502  0.000000000E+00  0.000000000E+00 -3.695148781E+02  3.695148781E+02  0.000000000E+00  0.00000E+00  9.000E+00
      25     1     1     2     0     0 -4.318979869E+01 -1.467630105E+02 -3.025794701E+02  3.613641871E+02  1.250000000E+02  0.00000E+00  9.000E+00
      25     1     1     2     0     0 -1.104187752E+00  1.195327867E+02  1.720422747E+02  2.439525582E+02  1.250000000E+02  0.00000E+00  9.000E+00
       1     1     1     2   501     0  4.429398644E+01  2.723022376E+01  4.240417028E+02  4.272175184E+02  5.394796609E-06  0.00000E+00  9.000E+00
#rwgt            1           1   2.7859705787966305E-002           1      187264           0
</event>
<event>
      5   9999  3.19816E-02  6.20271E+01 -1.00000E+00  1.33937E-01
      21    -1     0     0   502   501  0.000000000E+00  0.000000000E+00  5.658515091E+01  5.658515091E+01  0.000000000E+00  0.00000E+00  9.000E+00
      -3    -1     0     0     0   502  0.000000000E+00  0.000000000E+00 -1.594883443E+03  1.594883443E+03  0.000000000E+00  0.00000E+00  9.000E+00
      25     1     1     2     0     0  5.087215185E+01  2.030593271E+02 -4.191005970E+02  4.848622243E+02  1.250000000E+02  0.00000E+00  9.000E+00
      25     1     1     2     0     0  1.076826857E+01 -2.099743439E+02 -1.025286588E+03  1.054060135E+03  1.250000000E+02  0.00000E+00  9.000E+00
      -3     1     1     2     0   501 -6.164042042E+01  6.915016870E+00 -9.391110724E+01  1.125462347E+02  1.348699152E-06  0.00000E+00  9.000E+00
#rwgt            1           1   2.6620793565427438E-002           1      187359           0
</event>
<event>
      5   9999  3.19816E-02  1.18672E+02 -1.00000E+00  1.20574E-01
      21    -1     0     0   502   501  0.000000000E+00  0.000000000E+00  1.291358709E+03  1.291358709E+03  0.000000000E+00  0.00000E+00  9.000E+00
      21    -1     0     0   511   502  0.000000000E+00  0.000000000E+00 -1.022116147E+03  1.022116147E+03  0.000000000E+00  0.00000E+00  9.000E+00
      25     1     1     2     0     0 -6.797894581E+02 -5.019222750E+01  5.784259601E+02  9.026818700E+02  1.250000000E+02  0.00000E+00  9.000E+00
      25     1     1     2     0     0  6.570245699E+02 -6.627533145E+01  3.383682446E+02  7.524571575E+02  1.250000000E+02  0.00000E+00  9.000E+00
      21     1     1     2   511   501  2.276488825E+01  1.164675590E+02 -6.475516434E+02  6.583358287E+02  7.629394531E-06  0.00000E+00  9.000E+00
#rwgt            1           1   2.7711836779680993E-002           1      187416           0
</event>
<event>
      5   9999  3.19816E-02  1.65652E+02 -1.00000E+00  1.14710E-01
      21    -1     0     0   502   512  0.000000000E+00  0.000000000E+00  9.533444425E+02  9.533444425E+02  0.000000000E+00  0.00000E+00  9.000E+00
      21    -1     0     0   501   502  0.000000000E+00  0.000000000E+00 -1.091006056E+03  1.091006056E+03  0.000000000E+00  0.00000E+00  9.000E+00
      25     1     1     2     0     0 -2.384709455E+02 -6.096038937E+02 -5.812116871E+02  8.842608916E+02  1.250000000E+02  0.00000E+00  9.000E+00
      25     1     1     2     0     0  1.742888742E+02  4.568907008E+02 -1.637309147E+02  5.306208972E+02  1.250000000E+02  0.00000E+00  9.000E+00
      21     1     1     2   501   512  6.418207134E+01  1.527131929E+02  6.072809884E+02  6.294687096E+02  7.629394531E-06  0.00000E+00  9.000E+00
#rwgt            1           1   2.7977578820971953E-002           1      187496           0
</event>
<event>
      5   9999  3.19816E-02  6.22947E+01 -1.00000E+00  1.33838E-01
      21    -1     0     0   502   511  0.000000000E+00  0.000000000E+00  6.526424488E+01  6.526424488E+01  0.000000000E+00  0.00000E+00  9.000E+00
      21    -1     0     0   501   502  0.000000000E+00  0.000000000E+00 -6.744706110E+02  6.744706110E+02  0.000000000E+00  0.00000E+00  9.000E+00
      25     1     1     2     0     0  1.408486260E+01 -1.407309552E+02 -1.884747684E+02  2.667420541E+02  1.250000000E+02  0.00000E+00  9.000E+00
      25     1     1     2     0     0 -5.907849357E+00  7.897526628E+01 -3.416729631E+02  3.723404478E+02  1.250000000E+02  0.00000E+00  9.000E+00
      21     1     1     2   501   511 -8.177013239E+00  6.175568889E+01 -7.905863466E+01  1.006523540E+02  1.348699152E-06  0.00000E+00  9.000E+00
#rwgt            1           1   3.3906938993680497E-002           1      187544           0
</event>
<event>
      5   9999  3.19816E-02  4.99110E+01 -1.00000E+00  1.39120E-01
      21    -1     0     0   502   501  0.000000000E+00  0.000000000E+00  1.245166593E+03  1.245166593E+03  0.000000000E+00  0.00000E+00  9.000E+00
      21    -1     0     0   501   512  0.000000000E+00  0.000000000E+00 -1.321809408E+02  1.321809408E+02  0.000000000E+00  0.00000E+00  9.000E+00
      25     1     1     2     0     0  2.980633783E+02  1.164426798E+02  5.706103202E+02  6.660494071E+02  1.250000000E+02  0.00000E+00  9.000E+00
      25     1     1     2     0     0 -3.202295121E+02 -1.611614481E+02  5.415524309E+02  6.613803657E+02  1.250000000E+02  0.00000E+00  9.000E+00
      21     1     1     2   502   512  2.216613376E+01  4.471876834E+01  8.229014374E-01  4.991776131E+01  7.148675809E-07  0.00000E+00  9.000E+00
#rwgt            2          11   2.8961281785030418E-003           1      187715           0
</event>
<event>
      5   9999  3.19816E-02  3.56271E+01 -1.00000E+00  1.48029E-01
       2    -1     0     0   502     0  0.000000000E+00  0.000000000E+00  1.687648718E+03  1.687648718E+03  0.000000000E+00  0.00000E+00  9.000E+00
      21    -1     0     0   501   502  0.000000000E+00  0.000000000E+00 -1.339585042E+02  1.339585042E+02  0.000000000E+00  0.00000E+00  9.000E+00
      25     1     1     2     0     0 -8.222296485E+01  7.939744321E+01 -2.064707017E+00  1.693925410E+02  1.250000000E+02  0.00000E+00  9.000E+00
      25     1     1     2     0     0  1.177722453E+02 -7.704467554E+01  1.365067482E+02  2.325194101E+02  1.250000000E+02  0.00000E+00  9.000E+00
       2     1     1     2   501     0 -3.554928042E+01 -2.352767669E+00  1.419248172E+03  1.419695271E+03  1.525878906E-05  0.00000E+00  9.000E+00
#rwgt            1           1   2.1084351229448593E-002           1      187750           0
</event>
<event>
      5   9999  3.20336E-02  4.19388E+01 -1.00000E+00  1.43577E-01
      21    -1     0     0   502   501  0.000000000E+00  0.000000000E+00  4.976622396E+02  4.976622396E+02  0.000000000E+00  0.00000E+00  9.000E+00
       2    -1     0     0   501     0  0.000000000E+00  0.000000000E+00 -3.613904237E+03  3.613904237E+03  0.000000000E+00  0.00000E+00  9.000E+00
      25     1     1     2     0     0 -3.083097459E+02 -1.614120867E+02  3.466230265E+02  5.068345722E+02  1.250000000E+02  0.00000E+00  9.000E+00
      25     1     1     2     0     0  2.674175099E+02  1.521014183E+02 -3.186200214E+02  4.602072187E+02  1.250000000E+02  0.00000E+00  9.000E+00
       2     1     1     2   502     0  4.089223596E+01  9.310668362E+00 -3.144245003E+03  3.144524686E+03  4.315837288E-05  0.00000E+00  9.000E+00
#rwgt            1           1   3.1728199566464825E-002           1      187821           0
</event>
<event>
      5   9999  3.19816E-02  1.56543E+02 -1.00000E+00  1.15663E-01
      21    -1     0     0   502   501  0.000000000E+00  0.000000000E+00  2.140409957E+03  2.140409957E+03  0.000000000E+00  0.00000E+00  9.000E+00
      21    -1     0     0   501   511  0.000000000E+00  0.000000000E+00 -5.354778919E+02  5.354778919E+02  0.000000000E+00  0.00000E+00  9.000E+00
      25     1     1     2     0     0 -5.126243637E+02  1.288464951E+01  6.068528460E+02  8.042668271E+02  1.250000000E+02  0.00000E+00  9.000E+00
      25     1     1     2     0     0  4.525166269E+02 -1.574280111E+02  1.376097118E+03  1.462471591E+03  1.250000000E+02  0.00000E+00  9.000E+00
      21     1     1     2   502   511  6.010773679E+01  1.445433616E+02 -3.780178998E+02  4.091494299E+02  0.000000000E+00  0.00000E+00  9.000E+00
#rwgt            1           1   4.3864650089866189E-002           1      187983           0
</event>
<event>
      5   9999  3.19816E-02  5.14020E+01 -1.00000E+00  1.38394E-01
      21    -1     0     0   512   501  0.000000000E+00  0.000000000E+00  3.315990802E+02  3.315990802E+02  0.000000000E+00  0.00000E+00  9.000E+00
      21    -1     0     0   501   502  0.000000000E+00  0.000000000E+00 -3.535258936E+03  3.535258936E+03  0.000000000E+00  0.00000E+00  9.000E+00
      25     1     1     2     0     0  1.300790031E+02  7.713812429E+02 -3.909762320E+02  8.834234448E+02  1.250000000E+02  0.00000E+00  9.000E+00
      25     1     1     2     0     0 -1.676196643E+02 -7.362690865E+02 -2.828044420E+03  2.929786470E+03  1.250000000E+02  0.00000E+00  9.000E+00
      21     1     1     2   512   502  3.754066122E+01 -3.511215635E+01  1.536079571E+01  5.364810168E+01  1.430511475E-06  0.00000E+00  9.000E+00
#rwgt            1           1   6.0707535980001406E-002           1      188104           0
</event>
<event>
      5   9999  3.19816E-02  1.52970E+01 -1.00000E+00  1.76585E-01
      21    -1     0     0   502   501  0.000000000E+00  0.000000000E+00  6.421029626E+01  6.421029626E+01  0.000000000E+00  0.00000E+00  9.000E+00
      21    -1     0     0   501   511  0.000000000E+00  0.000000000E+00 -1.550252749E+03  1.550252749E+03  0.000000000E+00  0.00000E+00  9.000E+00
      25     1     1     2     0     0 -2.696383091E+02  7.982100720E+01 -7.393887361E+02  8.008725954E+02  1.250000000E+02  0.00000E+00  9.000E+00
      25     1     1     2     0     0  2.731461373E+02 -6.493167861E+01 -7.000093023E+02  7.645017714E+02  1.250000000E+02  0.00000E+00  9.000E+00
      21     1     1     2   502   511 -3.507828112E+00 -1.488932860E+01 -4.664441428E+01  4.908867841E+01  6.743495762E-07  0.00000E+00  9.000E+00
#rwgt            1           1   2.9272566353522655E-002           1      188273           0
</event>
<event>
      5   9999  3.19816E-02  1.28641E+01 -1.00000E+00  1.83908E-01
      21    -1     0     0   502   501  0.000000000E+00  0.000000000E+00  3.213012721E+02  3.213012721E+02  0.000000000E+00  0.00000E+00  9.000E+00
      21    -1     0     0   501   512  0.000000000E+00  0.000000000E+00 -3.044968755E+02  3.044968755E+02  0.000000000E+00  0.00000E+00  9.000E+00
      25     1     1     2     0     0 -9.442318876E+01  1.095821371E+02  2.511894012E+02  3.156661189E+02  1.250000000E+02  0.00000E+00  9.000E+00
      25     1     1     2     0     0  1.009161002E+02 -9.847685129E+01 -2.279450062E+02  2.957459642E+02  1.250000000E+02  0.00000E+00  9.000E+00
      21     1     1     2   502   512 -6.492911421E+00 -1.110528576E+01 -6.439998492E+00  1.438606448E+01  1.460009660E-07  0.00000E+00  9.000E+00
#rwgt            1           1   2.8021179127911307E-002           1      188420           0
</event>
<event>
      5   9999  3.19816E-02  6.56919E+01 -1.00000E+00  1.32633E-01
      21    -1     0     0   502   511  0.000000000E+00  0.000000000E+00  2.545294267E+02  2.545294267E+02  0.000000000E+00  0.00000E+00  9.000E+00
      21    -1     0     0   501   502  0.000000000E+00  0.000000000E+00 -4.536916635E+02  4.536916635E+02  0.000000000E+00  0.00000E+00  9.000E+00
      25     1     1     2     0     0  1.321671892E+02  3.595544088E+01 -2.538354322E+02  3.143539188E+02  1.250000000E+02  0.00000E+00  9.000E+00
      25     1     1     2     0     0 -1.689386004E+02  1.848068624E+01 -9.427747928E+01  2.310736453E+02  1.250000000E+02  0.00000E+00  9.000E+00
      21     1     1     2   501   511  3.677141125E+01 -5.443612712E+01  1.489506747E+02  1.627935260E+02  1.907348633E-06  0.00000E+00  9.000E+00
#rwgt            1           1   2.8876706516732163E-002           1      188648           0
</event>
<event>
      5   9999  3.19816E-02  4.13405E+01 -1.00000E+00  1.43958E-01
      21    -1     0     0   502   501  0.000000000E+00  0.000000000E+00  8.179410413E+02  8.179410413E+02  0.000000000E+00  0.00000E+00  9.000E+00
      21    -1     0     0   512   502  0.000000000E+00  0.000000000E+00 -2.584223610E+02  2.584223610E+02  0.000000000E+00  0.00000E+00  9.000E+00
      25     1     1     2     0     0  7.571075883E+01 -3.663941779E+02  2.324787378E+02  4.578735373E+02  1.250000000E+02  0.00000E+00  9.000E+00
      25     1     1     2     0     0 -1.056631419E+02  3.948879115E+02  3.652032243E+02  5.622273181E+02  1.250000000E+02  0.00000E+00  9.000E+00
      21     1     1     2   512   501  2.995238303E+01 -2.849373360E+01 -3.816328191E+01  5.626254695E+01  1.261592536E-06  0.00000E+00  9.000E+00
#rwgt            1           1   2.4017157617465968E-002           1      188714           0
</event>
<event>
      5   9999  3.19816E-02  2.26243E+01 -1.00000E+00  1.62069E-01
      21    -1     0     0   502   501  0.000000000E+00  0.000000000E+00  5.304916391E+02  5.304916391E+02  0.000000000E+00  0.00000E+00  9.000E+00
      21    -1     0     0   501   511  0.000000000E+00  0.000000000E+00 -2.458252266E+02  2.458252266E+02  0.000000000E+00  0.00000E+00  9.000E+00
      25     1     1     2     0     0  2.342936549E+02  2.093501688E+02  9.690131886E+01  3.517611058E+02  1.250000000E+02  0.00000E+00  9.000E+00
      25     1     1     2     0     0 -2.173006719E+02 -1.944136556E+02  2.193610921E+02  3.856948797E+02  1.250000000E+02  0.00000E+00  9.000E+00
      21     1     1     2   502   511 -1.699298303E+01 -1.493651325E+01 -3.159599840E+01  3.886088027E+01  3.371747881E-07  0.00000E+00  9.000E+00
#rwgt            1           1   2.5620029611595305E-002           1      188830           0
</event>
<event>
      5   9999  3.19816E-02  1.50450E+02 -1.00000E+00  1.16342E-01
       2    -1     0     0   502     0  0.000000000E+00  0.000000000E+00  1.263909866E+03  1.263909866E+03  0.000000000E+00  0.00000E+00  9.000E+00
      21    -1     0     0   501   502  0.000000000E+00  0.000000000E+00 -6.940659356E+02  6.940659356E+02  0.000000000E+00  0.00000E+00  9.000E+00
      25     1     1     2     0     0 -1.582043766E+02  1.950713416E+01  1.505897039E+02  2.524111963E+02  1.250000000E+02  0.00000E+00  9.000E+00
      25     1     1     2     0     0  1.754133073E+02 -1.689699848E+02 -6.082949928E+02  6.670595793E+02  1.250000000E+02  0.00000E+00  9.000E+00
       2     1     1     2   501     0 -1.720893069E+01  1.494628507E+02  1.027549219E+03  1.038505026E+03  1.525878906E-05  0.00000E+00  9.000E+00
#rwgt            1           1   2.8594086180085899E-002           1      188965           0
</event>
<event>
      5   9999  3.19816E-02  6.26907E+01 -1.00000E+00  1.33693E-01
      21    -1     0     0   502   501  0.000000000E+00  0.000000000E+00  2.726388976E+02  2.726388976E+02  0.000000000E+00  0.00000E+00  9.000E+00
      -1    -1     0     0     0   502  0.000000000E+00  0.000000000E+00 -4.891704575E+02  4.891704575E+02  0.000000000E+00  0.00000E+00  9.000E+00
      25     1     1     2     0     0 -8.081762835E+01 -8.020772776E+00 -1.597057996E+02  2.184645607E+02  1.250000000E+02  0.00000E+00  9.000E+00
      25     1     1     2     0     0  9.380312844E+01 -5.331030590E+01  2.111980230E+02  2.680869645E+02  1.250000000E+02  0.00000E+00  9.000E+00
      -1     1     1     2     0   501 -1.298550009E+01  6.133107868E+01 -2.680237834E+02  2.752578298E+02  5.394796609E-06  0.00000E+00  9.000E+00
#rwgt            1           1   2.8487061774903333E-002           1      189052           0
</event>
<event>
      5   9999  3.19816E-02  1.59110E+02 -1.00000E+00  1.15388E-01
       2    -1     0     0   502     0  0.000000000E+00  0.000000000E+00  2.672209582E+03  2.672209582E+03  0.000000000E+00  0.00000E+00  9.000E+00
      21    -1     0     0   501   502  0.000000000E+00  0.000000000E+00 -6.875144896E+02  6.875144896E+02  0.000000000E+00  0.00000E+00  9.000E+00
      25     1     1     2     0     0  3.505571975E+01 -3.539315624E+02 -1.871068956E+02  4.208686787E+02  1.250000000E+02  0.00000E+00  9.000E+00
      25     1     1     2     0     0 -1.694549049E+02  2.687672777E+02 -3.044748292E+02  4.574721150E+02  1.250000000E+02  0.00000E+00  9.000E+00
       2     1     1     2   501     0  1.343991852E+02  8.516428464E+01  2.476276817E+03  2.481383278E+03  0.000000000E+00  0.00000E+00  9.000E+00
#rwgt            1           1   2.7136531848246177E-002           1      189121           0
</event>
<event>
      5   9999  3.19816E-02  1.20924E+02 -1.00000E+00  1.20227E-01
      21    -1     0     0   511   501  0.000000000E+00  0.000000000E+00  4.831728255E+02  4.831728255E+02  0.000000000E+00  0.00000E+00  9.000E+00
      21    -1     0     0   501   502  0.000000000E+00  0.000000000E+00 -3.112595025E+02  3.112595025E+02  0.000000000E+00  0.00000E+00  9.000E+00
      25     1     1     2     0     0 -1.090186737E+02 -1.018779979E+01  1.768508681E+02  2.426728086E+02  1.250000000E+02  0.00000E+00  9.000E+00
      25     1     1     2     0     0  3.198013832E+01  1.033953341E+02 -2.376470071E+02  2.895072095E+02  1.250000000E+02  0.00000E+00  9.000E+00
      21     1     1     2   511   502  7.703853535E+01 -9.320753434E+01  2.327094619E+02  2.622523099E+02  3.814697266E-06  0.00000E+00  9.000E+00
#rwgt            1           1   2.6500321811862262E-002           1      189179           0
</event>
<event>
      5   9999  3.19816E-02  7.89737E+01 -1.00000E+00  1.28621E-01
      21    -1     0     0   502   512  0.000000000E+00  0.000000000E+00  1.354344986E+03  1.354344986E+03  0.000000000E+00  0.00000E+00  9.000E+00
      21    -1     0     0   501   502  0.000000000E+00  0.000000000E+00 -6.678908744E+01  6.678908744E+01  0.000000000E+00  0.00000E+00  9.000E+00
      25     1     1     2     0     0  7.382061248E+01  7.214093671E+01  8.065223482E+01  1.810623665E+02  1.250000000E+02  0.00000E+00  9.000E+00
      25     1     1     2     0     0 -1.435168854E+02 -3.500243737E+01  6.698273149E+02  6.972201222E+02  1.250000000E+02  0.00000E+00  9.000E+00
      21     1     1     2   501   512  6.969627288E+01 -3.713849934E+01  5.370763493E+02  5.428515852E+02  0.000000000E+00  0.00000E+00  9.000E+00
#rwgt            1           1   2.9409263034062185E-002           1      189312           0
</event>
<event>
      5   9999  3.19816E-02  1.23312E+02 -1.00000E+00  1.19869E-01
      21    -1     0     0   502   511  0.000000000E+00  0.000000000E+00  1.935773290E+03  1.935773290E+03  0.000000000E+00  0.00000E+00  9.000E+00
      21    -1     0     0   501   502  0.000000000E+00  0.000000000E+00 -1.211071548E+02  1.211071548E+02  0.000000000E+00  0.00000E+00  9.000E+00
      25     1     1     2     0     0  3.201470197E+01 -2.540877391E+01  1.597105395E+03  1.602510901E+03  1.250000000E+02  0.00000E+00  9.000E+00
      25     1     1     2     0     0  7.884757732E+01  7.940297077E+01 -3.674242794E+01  1.717462612E+02  1.250000000E+02  0.00000E+00  9.000E+00
      21     1     1     2   501   511 -1.108622793E+02 -5.399419686E+01  2.543031681E+02  2.826232821E+02  4.672030912E-06  0.00000E+00  9.000E+00
#rwgt            1           1   2.5706108492429731E-002           1      189370           0
</event>
<event>
      5   9999  3.19816E-02  9.89621E+01 -1.00000E+00  1.24032E-01
       1    -1     0     0   502     0  0.000000000E+00  0.000000000E+00  2.047334018E+03  2.047334018E+03  0.000000000E+00  0.00000E+00  9.000E+00
      21    -1     0     0   501   502  0.000000000E+00  0.000000000E+00 -6.054833181E+02  6.054833181E+02  0.000000000E+00  0.00000E+00  9.000E+00
      25     1     1     2     0     0 -5.808058202E+02 -3.418023933E+02 -2.825681539E+02  7.413730764E+02  1.250000000E+02  0.00000E+00  9.000E+00
      25     1     1     2     0     0  4.988261356E+02  2.863693727E+02  8.645531955E+02  1.045902557E+03  1.250000000E+02  0.00000E+00  9.000E+00
       1     1     1     2   501     0  8.197968455E+01  5.543302062E+01  8.598656586E+02  8.655417028E+02  1.078959322E-05  0.00000E+00  9.000E+00
#rwgt            1           1   3.8170104296178425E-002           1      189484           0
</event>
<event>
      5   9999  3.19816E-02  4.09993E+01 -1.00000E+00  1.44179E-01
      21    -1     0     0   502   501  0.000000000E+00  0.000000000E+00  1.467502136E+02  1.467502136E+02  0.000000000E+00  0.00000E+00  9.000E+00
      21    -1     0     0   501   511  0.000000000E+00  0.000000000E+00 -6.002008912E+02  6.002008912E+02  0.000000000E+00  0.00000E+00  9.000E+00
      25     1     1     2     0     0 -4.900411169E+01  3.566800913E+01  9.147248136E+01  1.663304683E+02  1.250000000E+02  0.00000E+00  9.000E+00
      25     1     1     2     0     0  5.855313776E+01 -7.553976314E+01 -3.948690672E+02  4.250662372E+02  1.250000000E+02  0.00000E+00  9.000E+00
      21     1     1     2   502   511 -9.549026068E+00  3.987175401E+01 -1.500540918E+02  1.555543993E+02  2.697398305E-06  0.00000E+00  9.000E+00
#rwgt            1           1   3.0474453785602418E-002           1      189601           0
</event>
<event>
      5   9999  3.19816E-02  4.65850E+01 -1.00000E+00  1.40851E-01
      21    -1     0     0   502   501  0.000000000E+00  0.000000000E+00  1.070438108E+03  1.070438108E+03  0.000000000E+00  0.00000E+00  9.000E+00
       1    -1     0     0   501     0  0.000000000E+00  0.000000000E+00 -1.167666675E+03  1.167666675E+03  0.000000000E+00  0.00000E+00  9.000E+00
      25     1     1     2     0     0  2.034311039E+02  1.434665570E+02  9.864942693E+02  1.025067222E+03  1.250000000E+02  0.00000E+00  9.000E+00
      25     1     1     2     0     0 -1.580918619E+02 -1.327653267E+02 -1.632071611E+02  2.913438625E+02  1.250000000E+02  0.00000E+00  9.000E+00
       1     1     1     2   502     0 -4.533924202E+01 -1.070123030E+01 -9.205156761E+02  9.216936981E+02  1.078959322E-05  0.00000E+00  9.000E+00
#rwgt            1           1   3.0297129203866170E-002           1      189711           0
</event>
<event>
      5   9999  3.19816E-02  6.39367E+01 -1.00000E+00  1.33245E-01
      21    -1     0     0   502   511  0.000000000E+00  0.000000000E+00  2.940902962E+02  2.940902962E+02  0.000000000E+00  0.00000E+00  9.000E+00
      21    -1     0     0   501   502  0.000000000E+00  0.000000000E+00 -1.879075219E+02  1.879075219E+02  0.000000000E+00  0.00000E+00  9.000E+00
      25     1     1     2     0     0 -1.457511466E+02 -8.482210040E+01  1.810178940E-01  2.099124060E+02  1.250000000E+02  0.00000E+00  9.000E+00
      25     1     1     2     0     0  8.238802174E+01  7.627721712E+01  2.655466347E+01  1.701062907E+02  1.250000000E+02  0.00000E+00  9.000E+00
      21     1     1     2   501   511  6.336312482E+01  8.544883275E+00  7.944709294E+01  1.019791214E+02  1.907348633E-06  0.00000E+00  9.000E+00
#rwgt            1           1   2.5812903439857430E-002           1      189854           0
</event>
<event>
      5   9999  3.19816E-02  1.15963E+02 -1.00000E+00  1.21002E-01
      21    -1     0     0   502   501  0.000000000E+00  0.000000000E+00  4.942809527E+02  4.942809527E+02  0.000000000E+00  0.00000E+00  9.000E+00
      -2    -1     0     0     0   502  0.000000000E+00  0.000000000E+00 -1.990259458E+02  1.990259458E+02  0.000000000E+00  0.00000E+00  9.000E+00
      25     1     1     2     0     0 -1.271272376E+02  1.384200393E+02  2.782380255E+02  3.582776028E+02  1.250000000E+02  0.00000E+00  9.000E+00
      25     1     1     2     0     0  1.755975240E+01 -1.763998905E+02  2.724808605E+01  2.186154717E+02  1.250000000E+02  0.00000E+00  9.000E+00
      -2     1     1     2     0   501  1.095674852E+02  3.797985118E+01 -1.023110458E+01  1.164138240E+02  1.137184145E-06  0.00000E+00  9.000E+00
#rwgt            1           1   2.7153204167180815E-002           1      189924           0
</event>
<event>
      5   9999  3.19816E-02  3.91053E+00 -1.00000E+00  2.65807E-01
      21    -1     0     0   511   501  0.000000000E+00  0.000000000E+00  7.430045783E+02  7.430045783E+02  0.000000000E+00  0.00000E+00  9.000E+00
      21    -1     0     0   501   502  0.000000000E+00  0.000000000E+00 -1.045069610E+02  1.045069610E+02  0.000000000E+00  0.00000E+00  9.000E+00
      25     1     1     2     0     0  8.994138215E+01  2.375359513E+01 -2.972066931E+01  1.586253564E+02  1.250000000E+02  0.00000E+00  9.000E+00
      25     1     1     2     0     0 -9.074295447E+01 -1.992609691E+01  5.789618971E+02  5.995441697E+02  1.250000000E+02  0.00000E+00  9.000E+00
      21     1     1     2   511   502  8.015723159E-01 -3.827498224E+00  8.925638948E+01  8.934201321E+01  9.536743164E-07  0.00000E+00  9.000E+00
#rwgt            1           1   3.0644925947745462E-002           1      189985           0
</event>
<event>
      5   9999  3.19816E-02  3.10638E+01 -1.00000E+00  1.51996E-01
      21    -1     0     0   502   512  0.000000000E+00  0.000000000E+00  6.991608086E+02  6.991608086E+02  0.000000000E+00  0.00000E+00  9.000E+00
      21    -1     0     0   501   502  0.000000000E+00  0.000000000E+00 -1.517695442E+02  1.517695442E+02  0.000000000E+00  0.00000E+00  9.000E+00
      25     1     1     2     0     0 -1.471036494E+02  3.197686480E+01  4.181887894E+02  4.617021411E+02  1.250000000E+02  0.00000E+00  9.000E+00
      25     1     1     2     0     0  1.677812444E+02 -5.515873084E+01 -3.754843696E+01  2.196085533E+02  1.250000000E+02  0.00000E+00  9.000E+00
      21     1     1     2   501   512 -2.067759500E+01  2.318186604E+01  1.667509120E+02  1.696196583E+02  2.697398305E-06  0.00000E+00  9.000E+00
#rwgt            1           1   3.1965042091218143E-002           1      190388           0
</event>
<event>
      5   9999  3.19816E-02  2.49224E+01 -1.00000E+00  1.58852E-01
      21    -1     0     0   511   501  0.000000000E+00  0.000000000E+00  1.351849866E+03  1.351849866E+03  0.000000000E+00  0.00000E+00  9.000E+00
      21    -1     0     0   501   502  0.000000000E+00  0.000000000E+00 -1.501194960E+02  1.501194960E+02  0.000000000E+00  0.00000E+00  9.000E+00
      25     1     1     2     0     0  2.414257898E+02  7.430048864E+01  2.462777917E+01  2.829107670E+02  1.250000000E+02  0.00000E+00  9.000E+00
      25     1     1     2     0     0 -2.393333188E+02 -9.913489884E+01  1.011878562E+03  1.051965489E+03  1.250000000E+02  0.00000E+00  9.000E+00
      21     1     1     2   511   502 -2.092470954E+00  2.483441020E+01  1.652240290E+02  1.670931062E+02  0.000000000E+00  0.00000E+00  9.000E+00
#rwgt            1           1   2.5925119709103394E-002           1      190500           0
</event>
<event>
      5   9999  3.19816E-02  1.08648E+02 -1.00000E+00  1.22229E-01
      -2    -1     0     0     0   501  0.000000000E+00  0.000000000E+00  6.048077842E+01  6.048077842E+01  0.000000000E+00  0.00000E+00  9.000E+00
      21    -1     0     0   501   502  0.000000000E+00  0.000000000E+00 -1.200380390E+03  1.200380390E+03  0.000000000E+00  0.00000E+00  9.000E+00
      25     1     1     2     0     0 -9.401899891E+01 -2.376415700E+01 -7.538953935E+02  7.703165399E+02  1.250000000E+02  0.00000E+00  9.000E+00
      25     1     1     2     0     0  1.237877661E+02 -8.072572957E+01 -2.606525835E+02  3.246610906E+02  1.250000000E+02  0.00000E+00  9.000E+00
      -2     1     1     2     0   502 -2.976876721E+01  1.044898866E+02 -1.253516350E+02  1.658835383E+02  1.348699152E-06  0.00000E+00  9.000E+00
#rwgt            1           1   2.9798512346873005E-002           1      190614           0
</event>
<event>
      5   9999  3.19816E-02  3.11864E+01 -1.00000E+00  1.51879E-01
      21    -1     0     0   502   501  0.000000000E+00  0.000000000E+00  2.038672845E+02  2.038672845E+02  0.000000000E+00  0.00000E+00  9.000E+00
      21    -1     0     0   511   502  0.000000000E+00  0.000000000E+00 -2.941315665E+02  2.941315665E+02  0.000000000E+00  0.00000E+00  9.000E+00
      25     1     1     2     0     0 -7.087406609E+00  1.743621935E+02  3.230619492E+01  2.170739415E+02  1.250000000E+02  0.00000E+00  9.000E+00
      25     1     1     2     0     0  1.892238339E+01 -1.455087271E+02 -4.589083053E+01  1.981459426E+02  1.250000000E+02  0.00000E+00  9.000E+00
      21     1     1     2   511   501 -1.183497678E+01 -2.885346641E+01 -7.667964634E+01  8.277896691E+01  1.348699152E-06  0.00000E+00  9.000E+00
#rwgt            1           1   2.8039579690416698E-002           1      190663           0
</event>
<event>
      5   9999  3.19816E-02  4.85936E+00 -1.00000E+00  2.45024E-01
      21    -1     0     0   502   501  0.000000000E+00  0.000000000E+00  3.271581985E+01  3.271581985E+01  0.000000000E+00  0.00000E+00  9.000E+00
       1    -1     0     0   501     0  0.000000000E+00  0.000000000E+00 -1.388081545E+03  1.388081545E+03  0.000000000E+00  0.00000E+00  9.000E+00
      25     1     1     2     0     0  1.113213354E+02  3.319996774E+01 -5.900081591E+02  6.141899587E+02  1.250000000E+02  0.00000E+00  9.000E+00
      25     1     1     2     0     0 -1.071566979E+02 -3.069613087E+01 -3.196057949E+02  3.608291486E+02  1.250000000E+02  0.00000E+00  9.000E+00
       1     1     1     2   502     0 -4.164637482E+00 -2.503836872E+00 -4.457517713E+02  4.457782577E+02  9.344061824E-06  0.00000E+00  9.000E+00
#rwgt            1           1   2.6569101316115146E-002           1      190812           0
</event>
<event>
      5   9999  3.19816E-02  5.34766E+01 -1.00000E+00  1.37430E-01
      21    -1     0     0   502   511  0.000000000E+00  0.000000000E+00  2.341785360E+02  2.341785360E+02  0.000000000E+00  0.00000E+00  9.000E+00
      21    -1     0     0   501   502  0.000000000E+00  0.000000000E+00 -8.586437581E+02  8.586437581E+02  0.000000000E+00  0.00000E+00  9.000E+00
      25     1     1     2     0     0 -3.783449271E+01 -3.237415092E+02 -4.747932513E+02  5.893162522E+02  1.250000000E+02  0.00000E+00  9.000E+00
      25     1     1     2     0     0  4.475166291E+01  3.767688634E+02 -1.841491247E+02  4.398788332E+02  1.250000000E+02  0.00000E+00  9.000E+00
      21     1     1     2   501   511 -6.917170201E+00 -5.302735425E+01  3.447715395E+01  6.362720870E+01  1.066240300E-06  0.00000E+00  9.000E+00
#rwgt            1           1   2.8978475069102082E-002           1      191081           0
</event>
<event>
      5   9999  3.19816E-02  3.93872E+01 -1.00000E+00  1.45257E-01
      21    -1     0     0   502   501  0.000000000E+00  0.000000000E+00  1.187568720E+03  1.187568720E+03  0.000000000E+00  0.00000E+00  9.000E+00
      21    -1     0     0   501   512  0.000000000E+00  0.000000000E+00 -2.490268615E+02  2.490268615E+02  0.000000000E+00  0.00000E+00  9.000E+00
      25     1     1     2     0     0  3.867915171E+02 -1.090873018E+02  9.123509254E+02  1.004747196E+03  1.250000000E+02  0.00000E+00  9.000E+00
      25     1     1     2     0     0 -3.476033093E+02  1.051333446E+02  4.762507447E+01  3.870067551E+02  1.250000000E+02  0.00000E+00  9.000E+00
      21     1     1     2   502   512 -3.918820787E+01  3.953957216E+00 -2.143414121E+01  4.484163047E+01  8.920806376E-07  0.00000E+00  9.000E+00
#rwgt            1           1   2.9960486995916621E-002           1      191220           0
</event>
<event>
      5   9999  3.19816E-02  2.07633E+02 -1.00000E+00  1.11059E-01
      21    -1     0     0   502   501  0.000000000E+00  0.000000000E+00  2.517415843E+02  2.517415843E+02  0.000000000E+00  0.00000E+00  9.000E+00
      21    -1     0     0   511   502  0.000000000E+00  0.000000000E+00 -6.569286083E+02  6.569286083E+02  0.000000000E+00  0.00000E+00  9.000E+00
      25     1     1     2     0     0  3.574221813E+02 -2.003138247E+01 -9.202281750E+01  3.901859440E+02  1.250000000E+02  0.00000E+00  9.000E+00
      25     1     1     2     0     0 -1.530494721E+02  5.668085177E+01 -1.579606080E+02  2.592554986E+02  1.250000000E+02  0.00000E+00  9.000E+00
      21     1     1     2   511   501 -2.043727091E+02 -3.664946929E+01 -1.552035984E+02  2.592287500E+02  3.303624740E-06  0.00000E+00  9.000E+00
#rwgt            1           1   2.9820255732037566E-002           1      191354           0
</event>
<event>
      5   9999  3.19816E-02  1.91557E+01 -1.00000E+00  1.67930E-01
      21    -1     0     0   502   501  0.000000000E+00  0.000000000E+00  6.860739620E+02  6.860739620E+02  0.000000000E+00  0.00000E+00  9.000E+00
      21    -1     0     0   512   502  0.000000000E+00  0.000000000E+00 -5.346256351E+02  5.346256351E+02  0.000000000E+00  0.00000E+00  9.000E+00
      25     1     1     2     0     0  4.662701235E+01 -4.464432483E+01  6.486022886E+02  6.636845054E+02  1.250000000E+02  0.00000E+00  9.000E+00
      25     1     1     2     0     0 -2.755743594E+01  4.283029586E+01 -1.237494478E+02  1.831195575E+02  1.250000000E+02  0.00000E+00  9.000E+00
      21     1     1     2   512   501 -1.906957640E+01  1.814028972E+00 -3.734045139E+02  3.738955341E+02  0.000000000E+00  0.00000E+00  9.000E+00
#rwgt            1           1   2.6945668736458674E-002           1      191414           0
</event>
<event>
      5   9999  3.19816E-02  1.41579E+02 -1.00000E+00  1.17397E-01
      21    -1     0     0   502   501  0.000000000E+00  0.000000000E+00  2.921360488E+02  2.921360488E+02  0.000000000E+00  0.00000E+00  9.000E+00
      21    -1     0     0   501   511  0.000000000E+00  0.000000000E+00 -1.820559781E+03  1.820559781E+03  0.000000000E+00  0.00000E+00  9.000E+00
      25     1     1     2     0     0  2.585767879E+02  3.984477962E+02 -4.489203629E+02  6.654149786E+02  1.250000000E+02  0.00000E+00  9.000E+00
      25     1     1     2     0     0 -3.997462607E+02 -4.092116262E+02 -3.055460128E+02  6.604805780E+02  1.250000000E+02  0.00000E+00  9.000E+00
      21     1     1     2   502   511  1.411694728E+02  1.076383000E+01 -7.739573564E+02  7.868002730E+02  0.000000000E+00  0.00000E+00  9.000E+00
#rwgt            1           1   2.8359513696643558E-002           1      191558           0
</event>
<event>
      5   9999  3.19816E-02  1.04267E+02 -1.00000E+00  1.23017E-01
      21    -1     0     0   502   501  0.000000000E+00  0.000000000E+00  1.131386915E+03  1.131386915E+03  0.000000000E+00  0.00000E+00  9.000E+00
      21    -1     0     0   512   502  0.000000000E+00  0.000000000E+00 -3.944463000E+02  3.944463000E+02  0.000000000E+00  0.00000E+00  9.000E+00
      25     1     1     2     0     0  2.723563695E+02  1.530511942E+02  8.442602587E+02  9.088470963E+02  1.250000000E+02  0.00000E+00  9.000E+00
      25     1     1     2     0     0 -2.580292213E+02 -2.563291880E+02  8.894857127E+01  3.947411557E+02  1.250000000E+02  0.00000E+00  9.000E+00
      21     1     1     2   512   501 -1.432714821E+01  1.032779938E+02 -1.962682152E+02  2.222449628E+02  4.672030912E-06  0.00000E+00  9.000E+00
#rwgt            1           1   2.7036059691055526E-002           1      191637           0
</event>
<event>
      5   9999  3.19816E-02  2.24742E+02 -1.00000E+00  1.09835E-01
      21    -1     0     0   502   501  0.000000000E+00  0.000000000E+00  7.940872452E+02  7.940872452E+02  0.000000000E+00  0.00000E+00  9.000E+00
      21    -1     0     0   501   511  0.000000000E+00  0.000000000E+00 -9.202367000E+02  9.202367000E+02  0.000000000E+00  0.00000E+00  9.000E+00
      25     1     1     2     0     0  2.323917565E+02 -7.171889354E+01 -7.543457437E+02  8.023789810E+02  1.250000000E+02  0.00000E+00  9.000E+00
      25     1     1     2     0     0 -5.939099889E+01 -7.173801475E+01  6.660406055E+02  6.840385382E+02  1.250000000E+02  0.00000E+00  9.000E+00
      21     1     1     2   502   511 -1.730007576E+02  1.434569083E+02 -3.784431670E+01  2.279064260E+02  3.303624740E-06  0.00000E+00  9.000E+00
#rwgt            1           1   3.1810866512127216E-002           1      191736           0
</event>
<event>
      5   9999  3.19816E-02  1.41192E+01 -1.00000E+00  1.79896E-01
      21    -1     0     0   502   501  0.000000000E+00  0.000000000E+00  6.135155487E+02  6.135155487E+02  0.000000000E+00  0.00000E+00  9.000E+00
      21    -1     0     0   512   502  0.000000000E+00  0.000000000E+00 -3.114815940E+03  3.114815940E+03  0.000000000E+00  0.00000E+00  9.000E+00
      25     1     1     2     0     0  5.726476884E+02  5.613819880E+02  2.499126615E+02  8.492093087E+02  1.250000000E+02  0.00000E+00  9.000E+00
      25     1     1     2     0     0 -5.716122962E+02 -5.754632062E+02 -2.581265760E+03  2.708589383E+03  1.250000000E+02  0.00000E+00  9.000E+00
      21     1     1     2   512   501 -1.035392216E+00  1.408121814E+01 -1.699472930E+02  1.705327979E+02  0.000000000E+00  0.00000E+00  9.000E+00
#rwgt            1           1   3.8511472946468568E-002           1      191813           0
</event>
<event>
      5   9999  3.19816E-02  7.14950E+01 -1.00000E+00  1.30758E-01
       2    -1     0     0   502     0  0.000000000E+00  0.000000000E+00  1.507951096E+03  1.507951096E+03  0.000000000E+00  0.00000E+00  9.000E+00
      21    -1     0     0   501   502  0.000000000E+00  0.000000000E+00 -2.556162030E+01  2.556162030E+01  0.000000000E+00  0.00000E+00  9.000E+00
      25     1     1     2     0     0 -3.624391866E+00 -2.042926274E+00  2.240572706E+02  2.566007995E+02  1.250000000E+02  0.00000E+00  9.000E+00
      25     1     1     2     0     0  1.081341885E+01  7.317552209E+01  8.738789369E+02  8.858673622E+02  1.250000000E+02  0.00000E+00  9.000E+00
       2     1     1     2   501     0 -7.189026980E+00 -7.113259582E+01  3.844532677E+02  3.910445542E+02  0.000000000E+00  0.00000E+00  9.000E+00
#rwgt            1           1   5.8303595898064692E-002           1      192272           0
</event>
<event>
      5   9999  3.19816E-02  3.43529E+01 -1.00000E+00  1.49062E-01
      21    -1     0     0   511   501  0.000000000E+00  0.000000000E+00  1.483991552E+03  1.483991552E+03  0.000000000E+00  0.00000E+00  9.000E+00
      21    -1     0     0   501   502  0.000000000E+00  0.000000000E+00 -5.435812239E+02  5.435812239E+02  0.000000000E+00  0.00000E+00  9.000E+00
      25     1     1     2     0     0 -3.860132848E+01  1.152863265E+02  5.793928370E+01  1.837470006E+02  1.250000000E+02  0.00000E+00  9.000E+00
      25     1     1     2     0     0  8.423596046E+00 -1.317005793E+02 -4.632657240E+02  4.976506109E+02  1.250000000E+02  0.00000E+00  9.000E+00
      21     1     1     2   511   502  3.017773243E+01  1.641425285E+01  1.345736769E+03  1.346175164E+03  2.642899792E-05  0.00000E+00  9.000E+00
#rwgt            1           1   2.9268033498860369E-002           1      192324           0
</event>
<event>
      5   9999  3.19816E-02  7.16468E+02 -1.00000E+00  9.46075E-02
      21    -1     0     0   502   512  0.000000000E+00  0.000000000E+00  1.161699458E+03  1.161699458E+03  0.000000000E+00  0.00000E+00  9.000E+00
      21    -1     0     0   501   502  0.000000000E+00  0.000000000E+00 -1.198878878E+03  1.198878878E+03  0.000000000E+00  0.00000E+00  9.000E+00
      25     1     1     2     0     0  6.073530356E+02  1.316401157E+02  3.101365630E+02  7.057028536E+02  1.250000000E+02  0.00000E+00  9.000E+00
      25     1     1     2     0     0  1.068698697E+02 -1.883174451E+02 -7.791835642E+02  8.183132994E+02  1.250000000E+02  0.00000E+00  9.000E+00
      21     1     1     2   501   512 -7.142229053E+02  5.667732943E+01  4.318675806E+02  8.365621826E+02  1.078959322E-05  0.00000E+00  9.000E+00
#rwgt            2          11   1.6052118321692758E-003           1      192436           0
</event>
<event>
      5   9999  3.19816E-02  7.90550E+01 -1.00000E+00  1.28600E-01
      21    -1     0     0   511   501  0.000000000E+00  0.000000000E+00  4.840971608E+02  4.840971608E+02  0.000000000E+00  0.00000E+00  9.000E+00
      21    -1     0     0   501   502  0.000000000E+00  0.000000000E+00 -1.507959475E+03  1.507959475E+03  0.000000000E+00  0.00000E+00  9.000E+00
      25     1     1     2     0     0 -4.763191863E+01  3.465644105E+02 -1.356547459E+03  1.406492695E+03  1.250000000E+02  0.00000E+00  9.000E+00
      25     1     1     2     0     0 -2.905161403E+01 -3.657822603E+02  3.255097130E+02  5.061839897E+02  1.250000000E+02  0.00000E+00  9.000E+00
      21     1     1     2   511   502  7.668353266E+01  1.921784975E+01  7.175431844E+00  7.937995183E+01  1.472126130E-06  0.00000E+00  9.000E+00
#rwgt            1           1   3.0083766776204657E-002           1      192456           0
</event>
<event>
      5   9999  3.19816E-02  2.32730E+02 -1.00000E+00  1.09303E-01
      21    -1     0     0   502   501  0.000000000E+00  0.000000000E+00  1.805485991E+03  1.805485991E+03  0.000000000E+00  0.00000E+00  9.000E+00
      21    -1     0     0   501   512  0.000000000E+00  0.000000000E+00 -1.559706861E+02  1.559706861E+02  0.000000000E+00  0.00000E+00  9.000E+00
      25     1     1     2     0     0 -3.312228646E+02  3.278947412E+02  1.053890674E+03  1.159109184E+03  1.250000000E+02  0.00000E+00  9.000E+00
      25     1     1     2     0     0  1.889538073E+02 -1.437135810E+02  4.612658453E+02  5.336181356E+02  1.250000000E+02  0.00000E+00  9.000E+00
      21     1     1     2   502   512  1.422690573E+02 -1.841811602E+02  1.343587859E+02  2.687293579E+02  5.722045898E-06  0.00000E+00  9.000E+00
#rwgt            1           1   2.9915366142400670E-002           1      192546           0
</event>
<event>
      5   9999  3.19816E-02  7.49052E+01 -1.00000E+00  1.29748E-01
      21    -1     0     0   502   501  0.000000000E+00  0.000000000E+00  2.367264847E+03  2.367264847E+03  0.000000000E+00  0.00000E+00  9.000E+00
      21    -1     0     0   501   511  0.000000000E+00  0.000000000E+00 -9.523322591E+02  9.523322591E+02  0.000000000E+00  0.00000E+00  9.000E+00
      25     1     1     2     0     0  8.155528096E+02 -3.040049571E+02 -6.078385243E+02  1.068942501E+03  1.250000000E+02  0.00000E+00  9.000E+00
      25     1     1     2     0     0 -7.605588035E+02  3.548620615E+02  1.999694536E+03  2.172275308E+03  1.250000000E+02  0.00000E+00  9.000E+00
      21     1     1     2   502   511 -5.499400611E+01 -5.085710438E+01  2.307657569E+01  7.837929650E+01  7.539457465E-07  0.00000E+00  9.000E+00
#rwgt            1           1   4.0071010703432941E-002           1      192597           0
</event>
<event>
      5   9999  3.19816E-02  4.29085E+01 -1.00000E+00  1.42975E-01
      21    -1     0     0   502   501  0.000000000E+00  0.000000000E+00  5.566886135E+02  5.566886135E+02  0.000000000E+00  0.00000E+00  9.000E+00
       3    -1     0     0   501     0  0.000000000E+00  0.000000000E+00 -4.349476683E+02  4.349476683E+02  0.000000000E+00  0.00000E+00  9.000E+00
      25     1     1     2     0     0  2.395474369E+02 -3.165822572E+02  7.825193436E+01  4.235040322E+02  1.250000000E+02  0.00000E+00  9.000E+00
      25     1     1     2     0     0 -2.799460310E+02  3.310421584E+02  1.317071662E+02  4.700324122E+02  1.250000000E+02  0.00000E+00  9.000E+00
       3     1     1     2   502     0  4.039859409E+01 -1.445990122E+01 -8.821815540E+01  9.809983736E+01  1.907348633E-06  0.00000E+00  9.000E+00
#rwgt            1           1   2.8056791213919706E-002           1      192784           0
</event>
<event>
      5   9999  3.19816E-02  1.50666E+02 -1.00000E+00  1.16317E-01
      21    -1     0     0   502   501  0.000000000E+00  0.000000000E+00  1.172622877E+02  1.172622877E+02  0.000000000E+00  0.00000E+00  9.000E+00
      21    -1     0     0   511   502  0.000000000E+00  0.000000000E+00 -1.507809341E+03  1.507809341E+03  0.000000000E+00  0.00000E+00  9.000E+00
      25     1     1     2     0     0  1.774083046E+02 -1.126623952E+02 -3.293606752E+02  4.102072357E+02  1.250000000E+02  0.00000E+00  9.000E+00
      25     1     1     2     0     0 -2.539236121E+02 -1.712784438E+01 -2.162351229E+02  3.565854627E+02  1.250000000E+02  0.00000E+00  9.000E+00
      21     1     1     2   511   501  7.651530746E+01  1.297902396E+02 -8.449512547E+02  8.582789298E+02  1.525878906E-05  0.00000E+00  9.000E+00
#rwgt            1           1   2.7655417652320140E-002           1      192927           0
</event>
<event>
      5   9999  3.19816E-02  1.97533E+01 -1.00000E+00  1.66815E-01
      21    -1     0     0   502   501  0.000000000E+00  0.000000000E+00  3.857410489E+02  3.857410489E+02  0.000000000E+00  0.00000E+00  9.000E+00
      21    -1     0     0   501   512  0.000000000E+00  0.000000000E+00 -1.180769790E+02  1.180769790E+02  0.000000000E+00  0.00000E+00  9.000E+00
      25     1     1     2     0     0  8.534914573E+01  1.302788189E+01  7.999477577E+01  1.716926514E+02  1.250000000E+02  0.00000E+00  9.000E+00
      25     1     1     2     0     0 -8.047129647E+01 -3.216943877E+01  2.355152691E+02  2.803621663E+02  1.250000000E+02  0.00000E+00  9.000E+00
      21     1     1     2   502   512 -4.877849262E+00  1.914155688E+01 -4.784597489E+01  5.176321016E+01  9.536743164E-07  0.00000E+00  9.000E+00
#rwgt            1           1   2.6294489382706371E-002           1      192997           0
</event>
<event>
      5   9999  3.19816E-02  1.08542E+02 -1.00000E+00  1.22248E-01
       1    -1     0     0   502     0  0.000000000E+00  0.000000000E+00  2.382548468E+03  2.382548468E+03  0.000000000E+00  0.00000E+00  9.000E+00
      21    -1     0     0   501   502  0.000000000E+00  0.000000000E+00 -9.618826296E+01  9.618826296E+01  0.000000000E+00  0.00000E+00  9.000E+00
      25     1     1     2     0     0  1.806076764E+02 -1.817533150E+01  1.405200850E+02  2.613816553E+02  1.250000000E+02  0.00000E+00  9.000E+00
      25     1     1     2     0     0 -1.809763481E+02 -9.036589232E+01  3.805654310E+02  4.487465658E+02  1.250000000E+02  0.00000E+00  9.000E+00
       1     1     1     2   501     0  3.686716851E-01  1.085412238E+02  1.765274689E+03  1.768608510E+03  2.157918644E-05  0.00000E+00  9.000E+00
#rwgt            2          17   4.5554025034896816E-004           1      193102           0
</event>
<event>
      5   9999  3.19816E-02  1.34340E+01 -1.00000E+00  1.82017E-01
      21    -1     0     0   511   501  0.000000000E+00  0.000000000E+00  1.543239337E+02  1.543239337E+02  0.000000000E+00  0.00000E+00  9.000E+00
      21    -1     0     0   501   502  0.000000000E+00  0.000000000E+00 -2.090019233E+02  2.090019233E+02  0.000000000E+00  0.00000E+00  9.000E+00
      25     1     1     2     0     0  1.258119462E+01  6.905727645E+01 -1.256228759E+02  1.906129608E+02  1.250000000E+02  0.00000E+00  9.000E+00
      25     1     1     2     0     0  6.643499911E-01 -7.129959112E+01  6.288431097E+01  1.570462022E+02  1.250000000E+02  0.00000E+00  9.000E+00
      21     1     1     2   511   502 -1.324554461E+01  2.242314673E+00  8.060575326E+00  1.566669403E+01  2.064765462E-07  0.00000E+00  9.000E+00
#rwgt            1           1   3.4675136709444630E-002           1      193121           0
</event>
<event>
      5   9999  3.19816E-02  3.28377E+02 -1.00000E+00  1.04332E-01
      21    -1     0     0   502   512  0.000000000E+00  0.000000000E+00  1.167774090E+03  1.167774090E+03  0.000000000E+00  0.00000E+00  9.000E+00
      21    -1     0     0   501   502  0.000000000E+00  0.000000000E+00 -4.483975853E+02  4.483975853E+02  0.000000000E+00  0.00000E+00  9.000E+00
      25     1     1     2     0     0  9.569680877E+00  1.795096594E+02 -2.545985656E+02  3.357986394E+02  1.250000000E+02  0.00000E+00  9.000E+00
      25     1     1     2     0     0 -2.262584763E+02 -4.262428787E+02  5.230610771E+02  7.225605719E+02  1.250000000E+02  0.00000E+00  9.000E+00
      21     1     1     2   501   512  2.166887954E+02  2.467332193E+02  4.509139929E+02  5.578124636E+02  9.344061824E-06  0.00000E+00  9.000E+00
#rwgt            1           1   2.4068230042358786E-002           1      193312           0
</event>
<event>
      5   9999  3.19816E-02  2.29884E+01 -1.00000E+00  1.61529E-01
      21    -1     0     0   502   511  0.000000000E+00  0.000000000E+00  6.968370947E+02  6.968370947E+02  0.000000000E+00  0.00000E+00  9.000E+00
      21    -1     0     0   501   502  0.000000000E+00  0.000000000E+00 -7.513899333E+02  7.513899333E+02  0.000000000E+00  0.00000E+00  9.000E+00
      25     1     1     2     0     0  6.320767922E+02 -1.085657087E+02 -1.514570357E+02  6.707248453E+02  1.250000000E+02  0.00000E+00  9.000E+00
      25     1     1     2     0     0 -6.309458040E+02  8.560517344E+01 -2.898865547E+01  6.495276710E+02  1.250000000E+02  0.00000E+00  9.000E+00
      21     1     1     2   501   511 -1.130988263E+00  2.296053530E+01  1.258928526E+02  1.279745117E+02  0.000000000E+00  0.00000E+00  9.000E+00
#rwgt            1           1   2.6124633887952969E-002           1      193360           0
</event>
<event>
      5   9999  3.19816E-02  1.48050E+02 -1.00000E+00  1.16619E-01
      21    -1     0     0   502   512  0.000000000E+00  0.000000000E+00  1.413110448E+03  1.413110448E+03  0.000000000E+00  0.00000E+00  9.000E+00
      21    -1     0     0   501   502  0.000000000E+00  0.000000000E+00 -2.303917866E+03  2.303917866E+03  0.000000000E+00  0.00000E+00  9.000E+00
      25     1     1     2     0     0  8.494499213E+02  9.529280595E+02 -1.586648054E+03  2.040273046E+03  1.250000000E+02  0.00000E+00  9.000E+00
      25     1     1     2     0     0 -8.185184764E+02 -1.097710495E+03  5.986152933E+02  1.499635321E+03  1.250000000E+02  0.00000E+00  9.000E+00
      21     1     1     2   501   512 -3.093144488E+01  1.447824359E+02  9.722534307E+01  1.771199463E+02  1.907348633E-06  0.00000E+00  9.000E+00
#rwgt            1           1   3.0811604380191693E-002           1      193624           0
</event>
<event>
      5   9999  3.19816E-02  3.84552E+01 -1.00000E+00  1.45909E-01
      21    -1     0     0   502   501  0.000000000E+00  0.000000000E+00  3.385541472E+02  3.385541472E+02  0.000000000E+00  0.00000E+00  9.000E+00
      21    -1     0     0   511   502  0.000000000E+00  0.000000000E+00 -2.181484910E+02  2.181484910E+02  0.000000000E+00  0.00000E+00  9.000E+00
      25     1     1     2     0     0 -1.703680686E+02  7.057045311E+01 -3.544448252E+01  2.255809810E+02  1.250000000E+02  0.00000E+00  9.000E+00
      25     1     1     2     0     0  2.081629445E+02 -6.347471992E+01  1.495636237E+02  2.921560012E+02  1.250000000E+02  0.00000E+00  9.000E+00
      21     1     1     2   511   501 -3.779487591E+01 -7.095733188E+00  6.286515031E+00  3.896565598E+01  4.042583694E-07  0.00000E+00  9.000E+00
#rwgt            1           1   2.9236311544260152E-002           1      193677           0
</event>
<event>
      5   9999  3.19816E-02  9.86077E+01 -1.00000E+00  1.24102E-01
      21    -1     0     0   502   501  0.000000000E+00  0.000000000E+00  2.853567555E+02  2.853567555E+02  0.000000000E+00  0.00000E+00  9.000E+00
      21    -1     0     0   501   512  0.000000000E+00  0.000000000E+00 -6.742335554E+02  6.742335554E+02  0.000000000E+00  0.00000E+00  9.000E+00
      25     1     1     2     0     0 -1.148590992E+02 -1.360746861E+02  1.606313567E+02  2.704373599E+02  1.250000000E+02  0.00000E+00  9.000E+00
      25     1     1     2     0     0  1.234069496E+02  2.343112076E+02 -2.925949468E+02  4.139659649E+02  1.250000000E+02  0.00000E+00  9.000E+00
      21     1     1     2   502   512 -8.547850365E+00 -9.823652152E+01 -2.569132099E+02  2.751869861E+02  0.000000000E+00  0.00000E+00  9.000E+00
#rwgt            1           1   2.8221743062266946E-002           1      193739           0
</event>
<event>
      5   9999  3.19816E-02  9.06906E+01 -1.00000E+00  1.25767E-01
       3    -1     0     0   502     0  0.000000000E+00  0.000000000E+00  1.108205949E+03  1.108205949E+03  0.000000000E+00  0.00000E+00  9.000E+00
      21    -1     0     0   501   502  0.000000000E+00  0.000000000E+00 -9.682841534E+02  9.682841534E+02  0.000000000E+00  0.00000E+00  9.000E+00
      25     1     1     2     0     0 -2.908529777E+01  5.616333471E+01 -9.102460817E+02  9.209631936E+02  1.250000000E+02  0.00000E+00  9.000E+00
      25     1     1     2     0     0 -3.915783937E+01  3.566474461E+00  3.407702811E+01  1.353968241E+02  1.250000000E+02  0.00000E+00  9.000E+00
       3     1     1     2   501     0  6.824313714E+01 -5.972980917E+01  1.016090849E+03  1.020130084E+03  1.078959322E-05  0.00000E+00  9.000E+00
#rwgt            1           1   2.8224240443296026E-002           1      193798           0
</event>
<event>
      5   9999  3.19816E-02  4.72837E+00 -1.00000E+00  2.47449E-01
      21    -1     0     0   502   511  0.000000000E+00  0.000000000E+00  7.581918643E+01  7.581918643E+01  0.000000000E+00  0.00000E+00  9.000E+00
      21    -1     0     0   501   502  0.000000000E+00  0.000000000E+00 -6.714484076E+02  6.714484076E+02  0.000000000E+00  0.00000E+00  9.000E+00
      25     1     1     2     0     0 -4.216685435E+01  8.384003391E+01 -4.767496380E+02  5.017194557E+02  1.250000000E+02  0.00000E+00  9.000E+00
      25     1     1     2     0     0  3.743851032E+01 -8.385652098E+01 -1.489872025E+02  2.150714874E+02  1.250000000E+02  0.00000E+00  9.000E+00
      21     1     1     2   501   511  4.728344028E+00  1.648706892E-02  3.010761937E+01  3.047665095E+01  8.259061849E-07  0.00000E+00  9.000E+00
#rwgt            1           1   2.9451709431000925E-002           1      193866           0
</event>
<event>
      5   9999  3.19816E-02  5.78062E+01 -1.00000E+00  1.35574E-01
      21    -1     0     0   502   501  0.000000000E+00  0.000000000E+00  1.672090734E+03  1.672090734E+03  0.000000000E+00  0.00000E+00  9.000E+00
      21    -1     0     0   501   512  0.000000000E+00  0.000000000E+00 -1.345786118E+02  1.345786118E+02  0.000000000E+00  0.00000E+00  9.000E+00
      25     1     1     2     0     0 -1.494710363E+01 -2.270809477E+02  4.551951079E+02  5.240388907E+02  1.250000000E+02  0.00000E+00  9.000E+00
      25     1     1     2     0     0 -4.285866599E+01  2.272945601E+02  1.157957710E+03  1.187430310E+03  1.250000000E+02  0.00000E+00  9.000E+00
      21     1     1     2   502   512  5.780576962E+01 -2.136124724E-01 -7.564069625E+01  9.520014476E+01  3.932099939E-06  0.00000E+00  9.000E+00
#rwgt            1           1   2.4506980508767061E-002           1      194147           0
</event>
<event>
      5   9999  3.19816E-02  2.63808E+02 -1.00000E+00  1.07438E-01
      21    -1     0     0   502   501  0.000000000E+00  0.000000000E+00  2.573052102E+02  2.573052102E+02  0.000000000E+00  0.00000E+00  9.000E+00
      21    -1     0     0   501   511  0.000000000E+00  0.000000000E+00 -1.854352852E+03  1.854352852E+03  0.000000000E+00  0.00000E+00  9.000E+00
      25     1     1     2     0     0  2.810992827E+02  1.179828658E+02 -9.934309379E+02  1.046645495E+03  1.250000000E+02  0.00000E+00  9.000E+00
      25     1     1     2     0     0 -5.414277018E+02 -1.606892134E+02 -2.663174136E+02  6.368005530E+02  1.250000000E+02  0.00000E+00  9.000E+00
      21     1     1     2   502   511  2.603284191E+02  4.270634763E+01 -3.372992900E+02  4.282120141E+02  7.629394531E-06  0.00000E+00  9.000E+00
#rwgt            1           1   2.6172591635121947E-002           1      194241           0
</event>
<event>
      5   9999  3.19816E-02  3.89521E+01 -1.00000E+00  1.45559E-01
      21    -1     0     0   502   501  0.000000000E+00  0.000000000E+00  9.278630728E+02  9.278630728E+02  0.000000000E+00  0.00000E+00  9.000E+00
      21    -1     0     0   501   512  0.000000000E+00  0.000000000E+00 -1.258829595E+02  1.258829595E+02  0.000000000E+00  0.00000E+00  9.000E+00
      25     1     1     2     0     0  2.222152905E+02 -2.360135729E+01  1.127016309E+02  2.797558168E+02  1.250000000E+02  0.00000E+00  9.000E+00
      25     1     1     2     0     0 -2.610810291E+02  2.619446369E+01  6.704258882E+02  7.307156254E+02  1.250000000E+02  0.00000E+00  9.000E+00
      21     1     1     2   502   512  3.886573860E+01 -2.593106401E+00  1.885259423E+01  4.327459008E+01  7.152557373E-07  0.00000E+00  9.000E+00
#rwgt            1           1   2.8079301115932882E-002           1      194308           0
</event>
<event>
      5   9999  3.19816E-02  7.43808E+01 -1.00000E+00  1.29899E-01
      21    -1     0     0   502   501  0.000000000E+00  0.000000000E+00  8.409131506E+02  8.409131506E+02  0.000000000E+00  0.00000E+00  9.000E+00
      21    -1     0     0   501   511  0.000000000E+00  0.000000000E+00 -2.073390754E+02  2.073390754E+02  0.000000000E+00  0.00000E+00  9.000E+00
      25     1     1     2     0     0 -2.953840428E+02 -9.812249591E+01  5.776277996E+02  6.679510699E+02  1.250000000E+02  0.00000E+00  9.000E+00
      25     1     1     2     0     0  2.344821317E+02  1.408245146E+02  5.611352730E+01  3.059201561E+02  1.250000000E+02  0.00000E+00  9.000E+00
      21     1     1     2   502   511  6.090191114E+01 -4.270201869E+01 -1.672516536E-01  7.438099996E+01  1.711602658E-06  0.00000E+00  9.000E+00
#rwgt            1           1   2.9348030112417885E-002           1      194417           0
</event>
<event>
      5   9999  3.19816E-02  7.71364E+01 -1.00000E+00  1.29120E-01
      21    -1     0     0   502   512  0.000000000E+00  0.000000000E+00  8.576181959E+02  8.576181959E+02  0.000000000E+00  0.00000E+00  9.000E+00
      21    -1     0     0   501   502  0.000000000E+00  0.000000000E+00 -2.369843390E+02  2.369843390E+02  0.000000000E+00  0.00000E+00  9.000E+00
      25     1     1     2     0     0 -1.727251796E+02  6.536944176E+01  5.283577855E+02  5.734928954E+02  1.250000000E+02  0.00000E+00  9.000E+00
      25     1     1     2     0     0  1.323177183E+02 -1.310753382E+02 -1.480145941E+02  2.687415914E+02  1.250000000E+02  0.00000E+00  9.000E+00
      21     1     1     2   501   512  4.040746134E+01  6.570589642E+01  2.402906656E+02  2.523680481E+02  0.000000000E+00  0.00000E+00  9.000E+00
#rwgt            1           1   2.9470052435637047E-002           1      194530           0
</event>
<event>
      5   9999  3.19816E-02  6.12244E+01 -1.00000E+00  1.34236E-01
      21    -1     0     0   502   501  0.000000000E+00  0.000000000E+00  3.430063795E+02  3.430063795E+02  0.000000000E+00  0.00000E+00  9.000E+00
      21    -1     0     0   511   502  0.000000000E+00  0.000000000E+00 -2.188157552E+03  2.188157552E+03  0.000000000E+00  0.00000E+00  9.000E+00
      25     1     1     2     0     0 -3.590012629E+01  7.434774514E+02 -4.913429562E+02  9.006055965E+02  1.250000000E+02  0.00000E+00  9.000E+00
      25     1     1     2     0     0  7.075303454E+01 -7.938133420E+02 -1.068911807E+03  1.339157596E+03  1.250000000E+02  0.00000E+00  9.000E+00
      21     1     1     2   511   501 -3.485290825E+01  5.033589055E+01 -2.848964095E+02  2.914007399E+02  0.000000000E+00  0.00000E+00  9.000E+00
#rwgt            1           1   2.8976414845393393E-002           1      194648           0
</event>
<event>
      5   9999  3.19816E-02  6.56157E+01 -1.00000E+00  1.32659E-01
      21    -1     0     0   502   501  0.000000000E+00  0.000000000E+00  4.825988994E+02  4.825988994E+02  0.000000000E+00  0.00000E+00  9.000E+00
      21    -1     0     0   512   502  0.000000000E+00  0.000000000E+00 -9.231324096E+01  9.231324096E+01  0.000000000E+00  0.00000E+00  9.000E+00
      25     1     1     2     0     0 -6.830079985E+01 -1.729497389E+01  1.716133690E+02  2.236968122E+02  1.250000000E+02  0.00000E+00  9.000E+00
      25     1     1     2     0     0  4.975566110E+01  8.023544323E+01  2.360858662E+02  2.833282343E+02  1.250000000E+02  0.00000E+00  9.000E+00
      21     1     1     2   512   501  1.854513875E+01 -6.294046934E+01 -1.741357673E+01  6.788709381E+01  1.011524364E-06  0.00000E+00  9.000E+00
#rwgt            1           1   4.1002035323596309E-002           1      194793           0
</event>
<event>
      5   9999  3.19816E-02  5.05268E+01 -1.00000E+00  1.38816E-01
      21    -1     0     0   502   511  0.000000000E+00  0.000000000E+00  1.485594942E+02  1.485594942E+02  0.000000000E+00  0.00000E+00  9.000E+00
      21    -1     0     0   501   502  0.000000000E+00  0.000000000E+00 -9.097208749E+02  9.097208749E+02  0.000000000E+00  0.00000E+00  9.000E+00
      25     1     1     2     0     0 -1.451034938E+02 -1.361918949E+02 -1.686500385E+01  2.356112996E+02  1.250000000E+02  0.00000E+00  9.000E+00
      25     1     1     2     0     0  9.505340817E+01  1.431159047E+02 -7.422938675E+02  7.721026475E+02  1.250000000E+02  0.00000E+00  9.000E+00
      21     1     1     2   501   511  5.005008567E+01 -6.924009807E+00 -2.002509358E+00  5.056642197E+01  1.032812801E-06  0.00000E+00  9.000E+00
#rwgt            1           1   1.2849585689735989E-002           1      194920           0
</event>
<event>
      5   9999  3.19816E-02  9.23506E+01 -1.00000E+00  1.25403E-01
      21    -1     0     0   512   501  0.000000000E+00  0.000000000E+00  3.855268064E+02  3.855268064E+02  0.000000000E+00  0.00000E+00  9.000E+00
      21    -1     0     0   501   502  0.000000000E+00  0.000000000E+00 -3.991524792E+02  3.991524792E+02  0.000000000E+00  0.00000E+00  9.000E+00
      25     1     1     2     0     0 -2.548727328E+02  7.521882798E+01 -2.299288474E+02  3.729748743E+02  1.250000000E+02  0.00000E+00  9.000E+00
      25     1     1     2     0     0  1.730268685E+02 -1.179960957E+02  2.051073959E+02  3.186776109E+02  1.250000000E+02  0.00000E+00  9.000E+00
      21     1     1     2   512   502  8.184586424E+01  4.277726770E+01  1.119577871E+01  9.302680036E+01  1.715123006E-06  0.00000E+00  9.000E+00
#rwgt            2          11   3.7037612384304397E-003           1      195135           0
</event>
<event>
      5   9999  3.19816E-02  4.29280E+01 -1.00000E+00  1.42963E-01
      21    -1     0     0   511   501  0.000000000E+00  0.000000000E+00  2.617272871E+02  2.617272871E+02  0.000000000E+00  0.00000E+00  9.000E+00
      21    -1     0     0   501   502  0.000000000E+00  0.000000000E+00 -2.683848257E+02  2.683848257E+02  0.000000000E+00  0.00000E+00  9.000E+00
      25     1     1     2     0     0 -1.150835840E+02 -8.987965358E+01  9.009429253E+01  2.122841609E+02  1.250000000E+02  0.00000E+00  9.000E+00
      25     1     1     2     0     0  1.526903547E+02  1.105810043E+02 -1.323358327E+02  2.620692190E+02  1.250000000E+02  0.00000E+00  9.000E+00
      21     1     1     2   511   502 -3.760677064E+01 -2.070135076E+01  3.558400158E+01  5.575873286E+01  4.768371582E-07  0.00000E+00  9.000E+00
#rwgt            1           1   2.6413621723357365E-002           1      195215           0
</event>
<event>
      5   9999  3.19816E-02  3.96823E+01 -1.00000E+00  1.45055E-01
      21    -1     0     0   502   501  0.000000000E+00  0.000000000E+00  6.283958307E+02  6.283958307E+02  0.000000000E+00  0.00000E+00  9.000E+00
      21    -1     0     0   512   502  0.000000000E+00  0.000000000E+00 -6.163231472E+02  6.163231472E+02  0.000000000E+00  0.00000E+00  9.000E+00
      25     1     1     2     0     0 -2.740365646E+02  3.988381275E+02 -2.208341933E+02  5.464070201E+02  1.250000000E+02  0.00000E+00  9.000E+00
      25     1     1     2     0     0  3.117273611E+02 -4.112514303E+02  3.076721875E+02  6.136683644E+02  1.250000000E+02  0.00000E+00  9.000E+00
      21     1     1     2   512   501 -3.769079644E+01  1.241330273E+01 -7.476531069E+01  8.464359340E+01  1.348699152E-06  0.00000E+00  9.000E+00
#rwgt            1           1   2.8119526707699592E-002           1      195349           0
</event>
<event>
      5   9999  3.19816E-02  5.03625E+01 -1.00000E+00  1.38897E-01
      21    -1     0     0   502   501  0.000000000E+00  0.000000000E+00  2.535181891E+03  2.535181891E+03  0.000000000E+00  0.00000E+00  9.000E+00
      21    -1     0     0   501   511  0.000000000E+00  0.000000000E+00 -7.562134823E+02  7.562134823E+02  0.000000000E+00  0.00000E+00  9.000E+00
      25     1     1     2     0     0  1.543807572E+02 -5.162841095E+01 -6.282432535E+02  6.609186762E+02  1.250000000E+02  0.00000E+00  9.000E+00
      25     1     1     2     0     0 -1.510221979E+02  1.377973538E+00  2.509138872E+03  2.516786142E+03  1.250000000E+02  0.00000E+00  9.000E+00
      21     1     1     2   502   511 -3.358559248E+00  5.025043742E+01 -1.019272097E+02  1.136905557E+02  1.907348633E-06  0.00000E+00  9.000E+00
#rwgt            1           1   3.2159634360435903E-002           1      195495           0
</event>
<event>
      5   9999  3.19816E-02  5.33300E+01 -1.00000E+00  1.37496E-01
      21    -1     0     0   502   501  0.000000000E+00  0.000000000E+00  1.326000418E+02  1.326000418E+02  0.000000000E+00  0.00000E+00  9.000E+00
      21    -1     0     0   512   502  0.000000000E+00  0.000000000E+00 -7.054520021E+02  7.054520021E+02  0.000000000E+00  0.00000E+00  9.000E+00
      25     1     1     2     0     0 -5.574552605E+01  1.622118465E+02 -4.398848103E+02  4.884095547E+02  1.250000000E+02  0.00000E+00  9.000E+00
      25     1     1     2     0     0  7.032422540E+00 -1.405064196E+02  1.846273954E+01  1.890962233E+02  1.250000000E+02  0.00000E+00  9.000E+00
      21     1     1     2   512   501  4.871310351E+01 -2.170542692E+01 -1.514298895E+02  1.605462658E+02  1.907348633E-06  0.00000E+00  9.000E+00
#rwgt            1           1   3.0791219245304827E-002           1      195724           0
</event>
<event>
      5   9999  3.19816E-02  1.23656E+02 -1.00000E+00  1.19818E-01
      21    -1     0     0   511   501  0.000000000E+00  0.000000000E+00  1.242332050E+02  1.242332050E+02  0.000000000E+00  0.00000E+00  9.000E+00
      21    -1     0     0   501   502  0.000000000E+00  0.000000000E+00 -8.867421758E+02  8.867421758E+02  0.000000000E+00  0.00000E+00  9.000E+00
      25     1     1     2     0     0  2.660199127E+02 -8.068735696E+01 -3.520183850E+02  4.656382576E+02  1.250000000E+02  0.00000E+00  9.000E+00
      25     1     1     2     0     0 -1.517528734E+02  1.279508674E+02 -2.856239071E+02  3.696029970E+02  1.250000000E+02  0.00000E+00  9.000E+00
      21     1     1     2   511   502 -1.142670392E+02 -4.726351044E+01 -1.248666787E+02  1.757341262E+02  1.348699152E-06  0.00000E+00  9.000E+00
#rwgt            1           1   2.5234398022682094E-002           1      195818           0
</event>
<event>
      5   9999  3.19816E-02  1.36335E+02 -1.00000E+00  1.18062E-01
      21    -1     0     0   502   501  0.000000000E+00  0.000000000E+00  5.644426881E+02  5.644426881E+02  0.000000000E+00  0.00000E+00  9.000E+00
      -2    -1     0     0     0   502  0.000000000E+00  0.000000000E+00 -1.074687825E+03  1.074687825E+03  0.000000000E+00  0.00000E+00  9.000E+00
      25     1     1     2     0     0  3.158873721E+02  5.772863236E+01  1.069603403E+02  3.608087322E+02  1.250000000E+02  0.00000E+00  9.000E+00
      25     1     1     2     0     0 -2.729519784E+02 -1.871266646E+02  2.288663081E+02  4.213359207E+02  1.250000000E+02  0.00000E+00  9.000E+00
      -2     1     1     2     0   501 -4.293539374E+01  1.293980322E+02 -8.460717850E+02  8.569858599E+02  1.078959322E-05  0.00000E+00  9.000E+00
#rwgt            1           1   2.8000506713924074E-002           1      195874           0
</event>
<event>
      5   9999  3.19816E-02  3.14146E+02 -1.00000E+00  1.04946E-01
      21    -1     0     0   511   501  0.000000000E+00  0.000000000E+00  6.867634064E+02  6.867634064E+02  0.000000000E+00  0.00000E+00  9.000E+00
      21    -1     0     0   501   502  0.000000000E+00  0.000000000E+00 -5.685332682E+02  5.685332682E+02  0.000000000E+00  0.00000E+00  9.000E+00
      25     1     1     2     0     0 -2.828144747E+02 -2.239102465E+02 -6.018786607E+01  3.864807949E+02  1.250000000E+02  0.00000E+00  9.000E+00
      25     1     1     2     0     0  5.210270306E+02  1.911226813E+01  1.119284048E+02  5.477110672E+02  1.250000000E+02  0.00000E+00  9.000E+00
      21     1     1     2   511   502 -2.382125559E+02  2.047979784E+02  6.648959941E+01  3.211048124E+02  1.348699152E-06  0.00000E+00  9.000E+00
#rwgt            1           1   2.8676317743600827E-002           1      195944           0
</event>
<event>
      5   9999  3.19816E-02  3.48176E+01 -1.00000E+00  1.48679E-01
      21    -1     0     0   502   501  0.000000000E+00  0.000000000E+00  3.084684852E+02  3.084684852E+02  0.000000000E+00  0.00000E+00  9.000E+00
      21    -1     0     0   512   502  0.000000000E+00  0.000000000E+00 -5.228590954E+02  5.228590954E+02  0.000000000E+00  0.00000E+00  9.000E+00
      25     1     1     2     0     0  1.477388075E+02 -3.166023191E+02 -1.934853654E+02  4.184798326E+02  1.250000000E+02  0.00000E+00  9.000E+00
      25     1     1     2     0     0 -1.694937350E+02  2.894180048E+02  2.077883029E+01  3.585354481E+02  1.250000000E+02  0.00000E+00  9.000E+00
      21     1     1     2   512   501  2.175492749E+01  2.718431423E+01 -4.168407508E+01  5.431229995E+01  6.743495762E-07  0.00000E+00  9.000E+00
#rwgt            1           1   2.8408823322917082E-002           1      195995           0
</event>
<event>
      5   9999  3.19816E-02  1.03255E+02 -1.00000E+00  1.23206E-01
      21    -1     0     0   502   511  0.000000000E+00  0.000000000E+00  3.030696956E+02  3.030696956E+02  0.000000000E+00  0.00000E+00  9.000E+00
      21    -1     0     0   501   502  0.000000000E+00  0.000000000E+00 -4.715716792E+02  4.715716792E+02  0.000000000E+00  0.00000E+00  9.000E+00
      25     1     1     2     0     0 -1.146900080E+02 -5.841085744E+01  1.177040068E+02  2.145806594E+02  1.250000000E+02  0.00000E+00  9.000E+00
      25     1     1     2     0     0  3.997601792E+01 -1.285861607E+01 -3.911848711E+02  4.128123416E+02  1.250000000E+02  0.00000E+00  9.000E+00
      21     1     1     2   501   511  7.471399004E+01  7.126947351E+01  1.049788807E+02  1.472483737E+02  1.907348633E-06  0.00000E+00  9.000E+00
#rwgt            1           1   2.6196220120316638E-002           1      196173           0
</event>
<event>
      5   9999  3.19816E-02  2.97078E+01 -1.00000E+00  1.53336E-01
      21    -1     0     0   512   501  0.000000000E+00  0.000000000E+00  2.973077437E+03  2.973077437E+03  0.000000000E+00  0.00000E+00  9.000E+00
      21    -1     0     0   501   502  0.000000000E+00  0.000000000E+00 -5.771539018E+01  5.771539018E+01  0.000000000E+00  0.00000E+00  9.000E+00
      25     1     1     2     0     0  3.719854058E+02 -1.169788838E+01  1.809583075E+03  1.851681908E+03  1.250000000E+02  0.00000E+00  9.000E+00
      25     1     1     2     0     0 -3.552538007E+02  3.624596448E+01  9.978680267E+02  1.067185378E+03  1.250000000E+02  0.00000E+00  9.000E+00
      21     1     1     2   512   502 -1.673160510E+01 -2.454807609E+01  1.079109449E+02  1.119255408E+02  1.348699152E-06  0.00000E+00  9.000E+00
#rwgt            1           1   4.6696907609888177E-002           1      196225           0
</event>
<event>
      5   9999  3.19816E-02  2.73274E+01 -1.00000E+00  1.55909E-01
      21    -1     0     0   502   501  0.000000000E+00  0.000000000E+00  1.533345741E+03  1.533345741E+03  0.000000000E+00  0.00000E+00  9.000E+00
      21    -1     0     0   511   502  0.000000000E+00  0.000000000E+00 -4.226249682E+02  4.226249682E+02  0.000000000E+00  0.00000E+00  9.000E+00
      25     1     1     2     0     0 -4.170697674E+02 -1.545990498E+01  9.153093327E+02  1.013707243E+03  1.250000000E+02  0.00000E+00  9.000E+00
      25     1     1     2     0     0  4.442476256E+02  1.831460783E+01  4.743084248E+02  6.620308599E+02  1.250000000E+02  0.00000E+00  9.000E+00
      21     1     1     2   511   501 -2.717785820E+01 -2.854702848E+00 -2.788969851E+02  2.802326062E+02  3.814697266E-06  0.00000E+00  9.000E+00
#rwgt            1           1   2.9837663246937214E-002           1      196441           0
</event>
<event>
      5   9999  3.19816E-02  1.05172E+01 -1.00000E+00  1.93259E-01
      21    -1     0     0   502   512  0.000000000E+00  0.000000000E+00  6.195625989E+02  6.195625989E+02  0.000000000E+00  0.00000E+00  9.000E+00
      21    -1     0     0   501   502  0.000000000E+00  0.000000000E+00 -5.093224148E+01  5.093224148E+01  0.000000000E+00  0.00000E+00  9.000E+00
      25     1     1     2     0     0 -6.812495526E+01  1.570489379E+00  4.354806034E+02  4.581613601E+02  1.250000000E+02  0.00000E+00  9.000E+00
      25     1     1     2     0     0  7.030723280E+01  8.717810442E+00  9.376622359E+01  1.715698455E+02  1.250000000E+02  0.00000E+00  9.000E+00
      21     1     1     2   501   512 -2.182277534E+00 -1.028829982E+01  3.938353047E+01  4.076363478E+01  9.536743164E-07  0.00000E+00  9.000E+00
#rwgt            1           1   3.2286310864877113E-002           1      196564           0
</event>
<event>
      5   9999  3.19816E-02  6.68423E+01 -1.00000E+00  1.32244E-01
      21    -1     0     0   502   501  0.000000000E+00  0.000000000E+00  6.797305491E+02  6.797305491E+02  0.000000000E+00  0.00000E+00  9.000E+00
      21    -1     0     0   501   511  0.000000000E+00  0.000000000E+00 -5.659530796E+02  5.659530796E+02  0.000000000E+00  0.00000E+00  9.000E+00
      25     1     1     2     0     0 -3.820215458E+02  2.794840084E+02  4.257256451E+02  6.487827813E+02  1.250000000E+02  0.00000E+00  9.000E+00
      25     1     1     2     0     0  3.455603342E+02 -2.234619012E+02 -2.196100388E+02  4.829086197E+02  1.250000000E+02  0.00000E+00  9.000E+00
      21     1     1     2   502   511  3.646121160E+01 -5.602210721E+01 -9.233813686E+01  1.139922277E+02  0.000000000E+00  0.00000E+00  9.000E+00
#rwgt            1           1   2.3435765342596792E-002           1      196718           0
</event>
<event>
      5   9999  3.19816E-02  3.72724E+01 -1.00000E+00  1.46768E-01
      21    -1     0     0   502   501  0.000000000E+00  0.000000000E+00  3.072397088E+02  3.072397088E+02  0.000000000E+00  0.00000E+00  9.000E+00
      21    -1     0     0   512   502  0.000000000E+00  0.000000000E+00 -2.576530494E+02  2.576530494E+02  0.000000000E+00  0.00000E+00  9.000E+00
      25     1     1     2     0     0 -1.350417481E+02  2.203060254E+01  2.155767653E+02  2.842885206E+02  1.250000000E+02  0.00000E+00  9.000E+00
      25     1     1     2     0     0  1.175709482E+02 -5.495485798E+01 -1.633969248E+02  2.432416891E+02  1.250000000E+02  0.00000E+00  9.000E+00
      21     1     1     2   512   501  1.747079984E+01  3.292425544E+01 -2.593181193E+00  3.736254852E+01  4.969040156E-07  0.00000E+00  9.000E+00
#rwgt            1           1   2.6978247486750772E-002           1      196823           0
</event>
<event>
      5   9999  3.19816E-02  1.04170E+03 -1.00000E+00  9.05673E-02
      21    -1     0     0   502   501  0.000000000E+00  0.000000000E+00  2.146466887E+03  2.146466887E+03  0.000000000E+00  0.00000E+00  9.000E+00
      21    -1     0     0   501   511  0.000000000E+00  0.000000000E+00 -8.948181737E+02  8.948181737E+02  0.000000000E+00  0.00000E+00  9.000E+00
      25     1     1     2     0     0 -5.423712912E+02  1.084570724E+02  1.572561327E+02  5.884590431E+02  1.250000000E+02  0.00000E+00  9.000E+00
      25     1     1     2     0     0 -3.619166286E+02  4.086525521E+02  1.277778582E+03  1.395107042E+03  1.250000000E+02  0.00000E+00  9.000E+00
      21     1     1     2   502   511  9.042879199E+02 -5.171096245E+02 -1.833860013E+02  1.057718976E+03  1.849243110E-05  0.00000E+00  9.000E+00
#rwgt            2          11   1.1707598006706710E-003           1      197004           0
</event>
<event>
      5   9999  3.19816E-02  4.88790E+01 -1.00000E+00  1.39640E-01
      -4    -1     0     0     0   501  0.000000000E+00  0.000000000E+00  2.470565075E+02  2.470565075E+02  0.000000000E+00  0.00000E+00  9.000E+00
      21    -1     0     0   501   502  0.000000000E+00  0.000000000E+00 -6.443375462E+02  6.443375462E+02  0.000000000E+00  0.00000E+00  9.000E+00
      25     1     1     2     0     0  1.816666229E+01 -1.142246851E+02 -4.505382366E+02  4.816502973E+02  1.250000000E+02  0.00000E+00  9.000E+00
      25     1     1     2     0     0  3.068526334E+01  1.158523790E+02 -1.322561219E+02  2.178991530E+02  1.250000000E+02  0.00000E+00  9.000E+00
      -4     1     1     2     0   502 -4.885192563E+01 -1.627693955E+00  1.855133198E+02  1.918446034E+02  2.697398305E-06  0.00000E+00  9.000E+00
#rwgt            1           1   2.8575452091887853E-002           1      197054           0
</event>
<event>
      5   9999  3.19816E-02  5.76397E+00 -1.00000E+00  2.28213E-01
      21    -1     0     0   511   501  0.000000000E+00  0.000000000E+00  5.206093827E+02  5.206093827E+02  0.000000000E+00  0.00000E+00  9.000E+00
      21    -1     0     0   501   502  0.000000000E+00  0.000000000E+00 -1.042434875E+02  1.042434875E+02  0.000000000E+00  0.00000E+00  9.000E+00
      25     1     1     2     0     0 -1.258038528E+02  9.468184829E+01  5.461366891E+01  2.083240615E+02  1.250000000E+02  0.00000E+00  9.000E+00
      25     1     1     2     0     0  1.288268801E+02 -8.977423534E+01  3.522945331E+02  4.054531001E+02  1.250000000E+02  0.00000E+00  9.000E+00
      21     1     1     2   511   502 -3.023027377E+00 -4.907612949E+00  9.457693261E+00  1.107570861E+01  0.000000000E+00  0.00000E+00  9.000E+00
#rwgt            1           1   2.8183139348855926E-002           1      197141           0
</event>
<event>
      5   9999  3.19816E-02  1.25184E+02 -1.00000E+00  1.19594E-01
      21    -1     0     0   512   501  0.000000000E+00  0.000000000E+00  1.493060505E+03  1.493060505E+03  0.000000000E+00  0.00000E+00  9.000E+00
      21    -1     0     0   501   502  0.000000000E+00  0.000000000E+00 -1.644399368E+02  1.644399368E+02  0.000000000E+00  0.00000E+00  9.000E+00
      25     1     1     2     0     0  2.671515055E+02  1.798827509E+02  3.797609821E+02  5.133917944E+02  1.250000000E+02  0.00000E+00  9.000E+00
      25     1     1     2     0     0 -2.750104378E+02 -3.048199951E+02  4.194179742E+02  6.000686689E+02  1.250000000E+02  0.00000E+00  9.000E+00
      21     1     1     2   512   502  7.858932228E+00  1.249372441E+02  5.294416116E+02  5.440399782E+02  0.000000000E+00  0.00000E+00  9.000E+00
#rwgt            1           1   2.9014830021342336E-002           1      197530           0
</event>
<event>
      5   9999  3.19816E-02  6.66276E+01 -1.00000E+00  1.32316E-01
      21    -1     0     0   502   501  0.000000000E+00  0.000000000E+00  1.802526862E+03  1.802526862E+03  0.000000000E+00  0.00000E+00  9.000E+00
      21    -1     0     0   511   502  0.000000000E+00  0.000000000E+00 -1.427351208E+02  1.427351208E+02  0.000000000E+00  0.00000E+00  9.000E+00
      25     1     1     2     0     0 -1.857140097E+02  2.335127388E+02  1.408914570E+03  1.445573643E+03  1.250000000E+02  0.00000E+00  9.000E+00
      25     1     1     2     0     0  1.560286552E+02 -2.931618161E+02  2.481523881E+02  4.330050801E+02  1.250000000E+02  0.00000E+00  9.000E+00
      21     1     1     2   511   501  2.968535458E+01  5.964907727E+01  2.724783543E+00  6.668325983E+01  5.559551151E-07  0.00000E+00  9.000E+00
#rwgt            1           1   3.0433946408941783E-002           1      197577           0
</event>
<event>
      5   9999  3.19816E-02  1.42840E+01 -1.00000E+00  1.79408E-01
      21    -1     0     0   512   501  0.000000000E+00  0.000000000E+00  3.354089877E+03  3.354089877E+03  0.000000000E+00  0.00000E+00  9.000E+00
      21    -1     0     0   501   502  0.000000000E+00  0.000000000E+00 -6.907120548E+01  6.907120548E+01  0.000000000E+00  0.00000E+00  9.000E+00
      25     1     1     2     0     0  4.281254257E+01  3.954643208E+02  2.107694737E+03  2.148540679E+03  1.250000000E+02  0.00000E+00  9.000E+00
      25     1     1     2     0     0 -5.174185187E+01 -4.066133047E+02  8.987944500E+02  9.957248928E+02  1.250000000E+02  0.00000E+00  9.000E+00
      21     1     1     2   512   502  8.929309296E+00  1.114898388E+01  2.785294841E+02  2.788955108E+02  5.394796609E-06  0.00000E+00  9.000E+00
#rwgt            1           1   3.7502532243645928E-002           1      197677           0
</event>
<event>
      5   9999  3.19816E-02  2.03025E+02 -1.00000E+00  1.11411E-01
      21    -1     0     0   502   501  0.000000000E+00  0.000000000E+00  9.334662774E+02  9.334662774E+02  0.000000000E+00  0.00000E+00  9.000E+00
       2    -1     0     0   501     0  0.000000000E+00  0.000000000E+00 -3.155359839E+03  3.155359839E+03  0.000000000E+00  0.00000E+00  9.000E+00
      25     1     1     2     0     0 -4.547947551E+02 -6.410192072E+02  3.065376602E+02  8.528389241E+02  1.250000000E+02  0.00000E+00  9.000E+00
      25     1     1     2     0     0  3.857384230E+02  4.500991350E+02  8.757961559E+01  6.121099178E+02  1.250000000E+02  0.00000E+00  9.000E+00
       2     1     1     2   502     0  6.905633207E+01  1.909200722E+02 -2.616010838E+03  2.623877275E+03  3.051757812E-05  0.00000E+00  9.000E+00
#rwgt            1           1   2.4027976370939744E-002           1      197893           0
</event>
<event>
      5   9999  3.19816E-02  2.12074E+01 -1.00000E+00  1.64296E-01
      21    -1     0     0   511   501  0.000000000E+00  0.000000000E+00  6.875278848E+02  6.875278848E+02  0.000000000E+00  0.00000E+00  9.000E+00
      21    -1     0     0   501   502  0.000000000E+00  0.000000000E+00 -3.509888210E+02  3.509888210E+02  0.000000000E+00  0.00000E+00  9.000E+00
      25     1     1     2     0     0 -1.060263728E+02 -4.432298552E+02  1.988852511E+02  5.127130185E+02  1.250000000E+02  0.00000E+00  9.000E+00
      25     1     1     2     0     0  8.587932823E+01  4.498519773E+02  1.039392307E+02  4.859736868E+02  1.250000000E+02  0.00000E+00  9.000E+00
      21     1     1     2   511   502  2.014704460E+01 -6.622122136E+00  3.371458194E+01  3.983000054E+01  4.768371582E-07  0.00000E+00  9.000E+00
#rwgt            1           1   2.7572327646762550E-002           1      197968           0
</event>
<event>
      5   9999  3.19816E-02  5.58948E+01 -1.00000E+00  1.36369E-01
      21    -1     0     0   502   501  0.000000000E+00  0.000000000E+00  1.621182433E+02  1.621182433E+02  0.000000000E+00  0.00000E+00  9.000E+00
      21    -1     0     0   501   512  0.000000000E+00  0.000000000E+00 -8.636169127E+02  8.636169127E+02  0.000000000E+00  0.00000E+00  9.000E+00
      25     1     1     2     0     0  2.067520649E+02  1.946738159E+02 -1.061615395E+02  3.279322848E+02  1.250000000E+02  0.00000E+00  9.000E+00
      25     1     1     2     0     0 -1.988378386E+02 -1.393421588E+02 -3.383555543E+02  4.348128383E+02  1.250000000E+02  0.00000E+00  9.000E+00
      21     1     1     2   502   512 -7.914226296E+00 -5.533165711E+01 -2.569815756E+02  2.629900330E+02  5.394796609E-06  0.00000E+00  9.000E+00
#rwgt            2          11   1.5092184298057709E-003           1      198227           0
</event>
<event>
      5   9999  3.19816E-02  7.25253E+01 -1.00000E+00  1.30446E-01
       2    -1     0     0   502     0  0.000000000E+00  0.000000000E+00  4.361318832E+03  4.361318832E+03  0.000000000E+00  0.00000E+00  9.000E+00
      21    -1     0     0   501   502  0.000000000E+00  0.000000000E+00 -9.844766214E+01  9.844766214E+01  0.000000000E+00  0.00000E+00  9.000E+00
      25     1     1     2     0     0  6.834080719E+01 -1.752503694E+02  2.510005816E+02  3.376528540E+02  1.250000000E+02  0.00000E+00  9.000E+00
      25     1     1     2     0     0 -1.140861205E+02  2.315290318E+02  3.206837319E+02  4.302143551E+02  1.250000000E+02  0.00000E+00  9.000E+00
       2     1     1     2   501     0  4.574531330E+01 -5.627866242E+01  3.691186856E+03  3.691899285E+03  8.631674575E-05  0.00000E+00  9.000E+00
#rwgt            1           1   2.5505503679537873E-002           1      198247           0
</event>
<event>
      5   9999  3.19816E-02  4.14975E+01 -1.00000E+00  1.43857E-01
      21    -1     0     0   502   501  0.000000000E+00  0.000000000E+00  1.014262994E+03  1.014262994E+03  0.000000000E+00  0.00000E+00  9.000E+00
      21    -1     0     0   511   502  0.000000000E+00  0.000000000E+00 -7.930985759E+01  7.930985759E+01  0.000000000E+00  0.00000E+00  9.000E+00
      25     1     1     2     0     0  5.560087581E+01 -2.733690940E+01  8.917567553E+02  9.026039412E+02  1.250000000E+02  0.00000E+00  9.000E+00
      25     1     1     2     0     0 -3.163756324E+01  6.121614265E+01  2.216420645E+01  1.444458500E+02  1.250000000E+02  0.00000E+00  9.000E+00
      21     1     1     2   511   501 -2.396331257E+01 -3.387923325E+01  2.103217494E+01  4.652306071E+01  3.371747881E-07  0.00000E+00  9.000E+00
#rwgt            1           1   2.9265635050588351E-002           1      198304           0
</event>
<event>
      5   9999  3.19816E-02  5.95023E+01 -1.00000E+00  1.34897E-01
      21    -1     0     0   502   501  0.000000000E+00  0.000000000E+00  1.051091248E+03  1.051091248E+03  0.000000000E+00  0.00000E+00  9.000E+00
      21    -1     0     0   512   502  0.000000000E+00  0.000000000E+00 -7.681073481E+02  7.681073481E+02  0.000000000E+00  0.00000E+00  9.000E+00
      25     1     1     2     0     0 -5.435574758E+02  5.090351524E+02  4.347971993E+02  8.713467280E+02  1.250000000E+02  0.00000E+00  9.000E+00
      25     1     1     2     0     0  6.029852852E+02 -5.060588606E+02 -1.338487460E+01  7.971768809E+02  1.250000000E+02  0.00000E+00  9.000E+00
      21     1     1     2   512   501 -5.942780938E+01 -2.976291818E+00 -1.384284250E+02  1.506749870E+02  3.303624740E-06  0.00000E+00  9.000E+00
#rwgt            1           1   2.9837394390142911E-002           1      198407           0
</event>
<event>
      5   9999  3.19816E-02  2.27365E+01 -1.00000E+00  1.61901E-01
      21    -1     0     0   502   501  0.000000000E+00  0.000000000E+00  6.179662993E+01  6.179662993E+01  0.000000000E+00  0.00000E+00  9.000E+00
      21    -1     0     0   511   502  0.000000000E+00  0.000000000E+00 -5.458014977E+02  5.458014977E+02  0.000000000E+00  0.00000E+00  9.000E+00
      25     1     1     2     0     0 -8.221109643E+01  7.738377708E+01 -2.313203982E+02  2.861486326E+02  1.250000000E+02  0.00000E+00  9.000E+00
      25     1     1     2     0     0  1.024638597E+02 -6.705070058E+01 -2.124539840E+02  2.752386861E+02  1.250000000E+02  0.00000E+00  9.000E+00
      21     1     1     2   511   501 -2.025276331E+01 -1.033307651E+01 -4.023048550E+01  4.621080886E+01  6.743495762E-07  0.00000E+00  9.000E+00
#rwgt            1           1   2.9923370246265266E-002           1      198547           0
</event>
<event>
      5   9999  3.19816E-02  1.16336E+02 -1.00000E+00  1.20943E-01
      21    -1     0     0   512   501  0.000000000E+00  0.000000000E+00  3.624123460E+02  3.624123460E+02  0.000000000E+00  0.00000E+00  9.000E+00
      21    -1     0     0   501   502  0.000000000E+00  0.000000000E+00 -3.936723753E+02  3.936723753E+02  0.000000000E+00  0.00000E+00  9.000E+00
      25     1     1     2     0     0 -3.366577712E+01  1.390114132E+02 -1.138201705E+02  2.214443243E+02  1.250000000E+02  0.00000E+00  9.000E+00
      25     1     1     2     0     0  1.116296981E+02 -5.266518820E+01 -1.775080916E+02  2.497377307E+02  1.250000000E+02  0.00000E+00  9.000E+00
      21     1     1     2   512   502 -7.796392100E+01 -8.634622501E+01  2.600682328E+02  2.849026663E+02  0.000000000E+00  0.00000E+00  9.000E+00
#rwgt            1           1   2.7425852393471336E-002           1      198652           0
</event>
<event>
      5   9999  3.19816E-02  2.47606E+02 -1.00000E+00  1.08373E-01
      21    -1     0     0   511   501  0.000000000E+00  0.000000000E+00  1.059510382E+03  1.059510382E+03  0.000000000E+00  0.00000E+00  9.000E+00
      21    -1     0     0   501   502  0.000000000E+00  0.000000000E+00 -6.725558747E+02  6.725558747E+02  0.000000000E+00  0.00000E+00  9.000E+00
      25     1     1     2     0     0 -1.349617719E+02  2.040770270E+02 -4.414519563E+02  5.199682131E+02  1.250000000E+02  0.00000E+00  9.000E+00
      25     1     1     2     0     0 -1.088993441E+02 -2.469771997E+02 -4.807031894E+01  3.013180378E+02  1.250000000E+02  0.00000E+00  9.000E+00
      21     1     1     2   511   502  2.438611161E+02  4.290017268E+01  8.764767823E+02  9.107800056E+02  0.000000000E+00  0.00000E+00  9.000E+00
#rwgt            2          11   5.1708461393846165E-003           1      198763           0
</event>
<event>
      5   9999  3.19816E-02  1.85361E+01 -1.00000E+00  1.69140E-01
      21    -1     0     0   512   501  0.000000000E+00  0.000000000E+00  1.143608309E+03  1.143608309E+03  0.000000000E+00  0.00000E+00  9.000E+00
      21    -1     0     0   501   502  0.000000000E+00  0.000000000E+00 -2.193631148E+02  2.193631148E+02  0.000000000E+00  0.00000E+00  9.000E+00
      25     1     1     2     0     0 -3.493196595E+02  2.458705180E+02  6.366859725E+02  7.768336782E+02  1.250000000E+02  0.00000E+00  9.000E+00
      25     1     1     2     0     0  3.478576618E+02 -2.643488685E+02  1.997568636E+02  4.964001226E+02  1.250000000E+02  0.00000E+00  9.000E+00
      21     1     1     2   512   502  1.461997641E+00  1.847835052E+01  8.780235827E+01  8.973762306E+01  1.651812370E-06  0.00000E+00  9.000E+00
#rwgt            1           1   2.9575855912690911E-002           1      198813           0
</event>
<event>
      5   9999  3.19816E-02  3.74866E+01 -1.00000E+00  1.46610E-01
      21    -1     0     0   511   501  0.000000000E+00  0.000000000E+00  1.641275703E+03  1.641275703E+03  0.000000000E+00  0.00000E+00  9.000E+00
      21    -1     0     0   501   502  0.000000000E+00  0.000000000E+00 -5.034985074E+02  5.034985074E+02  0.000000000E+00  0.00000E+00  9.000E+00
      25     1     1     2     0     0  3.738480748E+02  1.051956596E+02  6.626322618E+02  7.781613099E+02  1.250000000E+02  0.00000E+00  9.000E+00
      25     1     1     2     0     0 -3.367821048E+02 -1.107953574E+02 -3.659781243E+02  5.246549197E+02  1.250000000E+02  0.00000E+00  9.000E+00
      21     1     1     2   511   502 -3.706597002E+01  5.599697841E+00  8.411230579E+02  8.419579807E+02  1.078959322E-05  0.00000E+00  9.000E+00
#rwgt            1           1   2.7627106428714829E-002           1      198975           0
</event>
<event>
      5   9999  3.19816E-02  6.54762E+01 -1.00000E+00  1.32707E-01
      21    -1     0     0   502   501  0.000000000E+00  0.000000000E+00  1.813534506E+02  1.813534506E+02  0.000000000E+00  0.00000E+00  9.000E+00
      21    -1     0     0   512   502  0.000000000E+00  0.000000000E+00 -3.557653184E+02  3.557653184E+02  0.000000000E+00  0.00000E+00  9.000E+00
      25     1     1     2     0     0 -2.130787694E+01  2.012942538E+01 -2.508668244E+02  2.818126735E+02  1.250000000E+02  0.00000E+00  9.000E+00
      25     1     1     2     0     0 -8.748659147E+00  3.804051342E+01  1.192265980E+02  1.770977170E+02  1.250000000E+02  0.00000E+00  9.000E+00
      21     1     1     2   512   501  3.005653608E+01 -5.816993880E+01 -4.277164144E+01  7.820837840E+01  1.846782373E-06  0.00000E+00  9.000E+00
#rwgt            1           1   2.6629964583584059E-002           1      199149           0
</event>
<event>
      5   9999  3.19816E-02  8.39031E+01 -1.00000E+00  1.27356E-01
       2    -1     0     0   502     0  0.000000000E+00  0.000000000E+00  1.343502705E+03  1.343502705E+03  0.000000000E+00  0.00000E+00  9.000E+00
      21    -1     0     0   501   502  0.000000000E+00  0.000000000E+00 -1.765255175E+03  1.765255175E+03  0.000000000E+00  0.00000E+00  9.000E+00
      25     1     1     2     0     0 -5.803354481E+02 -6.719262403E+02 -1.053569830E+03  1.383440816E+03  1.250000000E+02  0.00000E+00  9.000E+00
      25     1     1     2     0     0  5.460391862E+02  5.953527344E+02 -2.380532215E+02  8.514094241E+02  1.250000000E+02  0.00000E+00  9.000E+00
       2     1     1     2   501     0  3.429626192E+01  7.657350588E+01  8.698705814E+02  8.739076403E+02  1.078959322E-05  0.00000E+00  9.000E+00
#rwgt            1           1   3.0093395934771269E-002           1      199255           0
</event>
<event>
      5   9999  3.19816E-02  4.25903E+01 -1.00000E+00  1.43170E-01
      21    -1     0     0   502   511  0.000000000E+00  0.000000000E+00  9.570376377E+02  9.570376377E+02  0.000000000E+00  0.00000E+00  9.000E+00
      21    -1     0     0   501   502  0.000000000E+00  0.000000000E+00 -2.970043529E+02  2.970043529E+02  0.000000000E+00  0.00000E+00  9.000E+00
      25     1     1     2     0     0 -1.628503308E+02 -1.929309665E+02 -1.972476172E+02  3.439101781E+02  1.250000000E+02  0.00000E+00  9.000E+00
      25     1     1     2     0     0  1.416109441E+02  1.560145570E+02  8.111833924E+02  8.473710507E+02  1.250000000E+02  0.00000E+00  9.000E+00
      21     1     1     2   501   511  2.123938675E+01  3.691640944E+01  4.609750968E+01  6.276076190E+01  0.000000000E+00  0.00000E+00  9.000E+00
#rwgt            1           1   2.4441653058915609E-002           1      199349           0
</event>
<event>
      5   9999  3.19816E-02  2.30412E+02 -1.00000E+00  1.09455E-01
      21    -1     0     0   502   501  0.000000000E+00  0.000000000E+00  2.843832394E+03  2.843832394E+03  0.000000000E+00  0.00000E+00  9.000E+00
      21    -1     0     0   512   502  0.000000000E+00  0.000000000E+00 -8.189489839E+01  8.189489839E+01  0.000000000E+00  0.00000E+00  9.000E+00
      25     1     1     2     0     0 -2.677925916E-01  3.109813309E+02  2.069135701E+03  2.096105200E+03  1.250000000E+02  0.00000E+00  9.000E+00
      25     1     1     2     0     0  1.365471200E+02 -1.251915799E+02  2.977676653E+02  3.723017999E+02  1.250000000E+02  0.00000E+00  9.000E+00
      21     1     1     2   512   501 -1.362793275E+02 -1.857897510E+02  3.950341288E+02  4.573202921E+02  9.344061824E-06  0.00000E+00  9.000E+00
#rwgt            2          11   7.2220305639032010E-003           1      199522           0
</event>
<event>
      5   9999  3.19816E-02  1.56256E+01 -1.00000E+00  1.75728E-01
      21    -1     0     0   502   501  0.000000000E+00  0.000000000E+00  6.184703018E+01  6.184703018E+01  0.000000000E+00  0.00000E+00  9.000E+00
      21    -1     0     0   511   502  0.000000000E+00  0.000000000E+00 -5.512016244E+02  5.512016244E+02  0.000000000E+00  0.00000E+00  9.000E+00
      25     1     1     2     0     0  6.759418517E+01 -4.019482466E+01 -7.812336391E+01  1.670714152E+02  1.250000000E+02  0.00000E+00  9.000E+00
      25     1     1     2     0     0 -7.564669399E+01  5.358575009E+01 -3.872949949E+02  4.173922232E+02  1.250000000E+02  0.00000E+00  9.000E+00
      21     1     1     2   511   501  8.052508817E+00 -1.339092543E+01 -2.393623542E+01  2.858501615E+01  3.371747881E-07  0.00000E+00  9.000E+00
#rwgt            1           1   3.1095725111563555E-002           1      199542           0
</event>
<event>
      5   9999  3.19816E-02  1.19362E+02 -1.00000E+00  1.20467E-01
      21    -1     0     0   512   501  0.000000000E+00  0.000000000E+00  3.459152966E+02  3.459152966E+02  0.000000000E+00  0.00000E+00  9.000E+00
      21    -1     0     0   501   502  0.000000000E+00  0.000000000E+00 -8.984078897E+02  8.984078897E+02  0.000000000E+00  0.00000E+00  9.000E+00
      25     1     1     2     0     0 -6.966178806E+01 -2.699468004E+02  8.901891439E+01  3.182348298E+02  1.250000000E+02  0.00000E+00  9.000E+00
      25     1     1     2     0     0  1.887111481E+02  2.785844682E+02 -7.048319663E+02  7.909704824E+02  1.250000000E+02  0.00000E+00  9.000E+00
      21     1     1     2   512   502 -1.190493600E+02 -8.637667775E+00  6.332045877E+01  1.351178742E+02  2.611744678E-06  0.00000E+00  9.000E+00
#rwgt            1           1   2.7042650916812135E-002           1      199690           0
</event>
<event>
      5   9999  3.19816E-02  3.02449E+02 -1.00000E+00  1.05477E-01
      21    -1     0     0   502   501  0.000000000E+00  0.000000000E+00  1.050100102E+02  1.050100102E+02  0.000000000E+00  0.00000E+00  9.000E+00
      21    -1     0     0   501   511  0.000000000E+00  0.000000000E+00 -2.125050081E+03  2.125050081E+03  0.000000000E+00  0.00000E+00  9.000E+00
      25     1     1     2     0     0 -2.751788386E+02 -2.089374037E+02 -4.643759437E+02  5.921555953E+02  1.250000000E+02  0.00000E+00  9.000E+00
      25     1     1     2     0     0  1.511129815E+02 -6.689369577E+01 -7.185018192E+02  7.477832332E+02  1.250000000E+02  0.00000E+00  9.000E+00
      21     1     1     2   502   511  1.240658571E+02  2.758310995E+02 -8.371623076E+02  8.901212623E+02  1.525878906E-05  0.00000E+00  9.000E+00
#rwgt            2          11   1.7023927051811306E-003           1      199826           0
</event>
<event>
      5   9999  3.19816E-02  4.42254E+01 -1.00000E+00  1.42186E-01
      21    -1     0     0   512   501  0.000000000E+00  0.000000000E+00  2.337815862E+02  2.337815862E+02  0.000000000E+00  0.00000E+00  9.000E+00
      21    -1     0     0   501   502  0.000000000E+00  0.000000000E+00 -1.504078643E+03  1.504078643E+03  0.000000000E+00  0.00000E+00  9.000E+00
      25     1     1     2     0     0 -1.483824978E+01 -2.040617746E+02 -4.008352889E+02  4.670709907E+02  1.250000000E+02  0.00000E+00  9.000E+00
      25     1     1     2     0     0  4.314131102E+01  2.380445126E+02 -1.050091514E+03  1.084824202E+03  1.250000000E+02  0.00000E+00  9.000E+00
      21     1     1     2   512   502 -2.830306124E+01 -3.398273797E+01  1.806297456E+02  1.859650364E+02  1.907348633E-06  0.00000E+00  9.000E+00
#rwgt            1           1   3.0927583872004092E-002           1      199846           0
</event>
<event>
      5   9999  3.19816E-02  1.64066E+02 -1.00000E+00  1.14871E-01
      21    -1     0     0   511   501  0.000000000E+00  0.000000000E+00  1.555879926E+02  1.555879926E+02  0.000000000E+00  0.00000E+00  9.000E+00
      21    -1     0     0   501   502  0.000000000E+00  0.000000000E+00 -1.462294388E+03  1.462294388E+03  0.000000000E+00  0.00000E+00  9.000E+00
      25     1     1     2     0     0  2.830908297E+01 -3.727207812E+02 -8.924428591E+02  9.756031169E+02  1.250000000E+02  0.00000E+00  9.000E+00
      25     1     1     2     0     0 -1.480865749E+02  2.606006309E+02 -3.020410431E+02  4.435043564E+02  1.250000000E+02  0.00000E+00  9.000E+00
      21     1     1     2   511   502  1.197774920E+02  1.121201503E+02 -1.122224928E+02  1.987749068E+02  1.348699152E-06  0.00000E+00  9.000E+00
#rwgt            1           1   2.7385844099551995E-002           1      199996           0
</event>
<event>
      5   9999  3.19816E-02  6.28060E+01 -1.00000E+00  1.33651E-01
      21    -1     0     0   512   501  0.000000000E+00  0.000000000E+00  4.425891340E+02  4.425891340E+02  0.000000000E+00  0.00000E+00  9.000E+00
      21    -1     0     0   501   502  0.000000000E+00  0.000000000E+00 -3.371898665E+02  3.371898665E+02  0.000000000E+00  0.00000E+00  9.000E+00
      25     1     1     2     0     0 -1.615777420E+02  3.681254870E+01  5.831122652E+01  2.156101333E+02  1.250000000E+02  0.00000E+00  9.000E+00
      25     1     1     2     0     0  2.008893386E+02 -8.579409250E+01 -1.922640554E+02  3.167137819E+02  1.250000000E+02  0.00000E+00  9.000E+00
      21     1     1     2   512   502 -3.931159659E+01  4.898154380E+01  2.393520963E+02  2.474550853E+02  2.697398305E-06  0.00000E+00  9.000E+00
#rwgt            1           1   2.6118304516095304E-002           1      200036           0
</event>
<event>
      5   9999  3.19816E-02  1.64510E+01 -1.00000E+00  1.73687E-01
      21    -1     0     0   502   511  0.000000000E+00  0.000000000E+00  1.327477893E+03  1.327477893E+03  0.000000000E+00  0.00000E+00  9.000E+00
      21    -1     0     0   501   502  0.000000000E+00  0.000000000E+00 -5.055073046E+01  5.055073046E+01  0.000000000E+00  0.00000E+00  9.000E+00
      25     1     1     2     0     0 -7.501470166E+01 -1.311302014E+02  9.116185058E+02  9.324674982E+02  1.250000000E+02  0.00000E+00  9.000E+00
      25     1     1     2     0     0  5.885414705E+01  1.280526865E+02  1.834008680E+02  2.629109726E+02  1.250000000E+02  0.00000E+00  9.000E+00
      21     1     1     2   501   511  1.616055461E+01  3.077514802E+00  1.819077889E+02  1.826501527E+02  0.000000000E+00  0.00000E+00  9.000E+00
#rwgt            1           1   2.8988254597521215E-002           1      200151           0
</event>
<event>
      5   9999  3.19816E-02  3.39689E+01 -1.00000E+00  1.49384E-01
      21    -1     0     0   502   501  0.000000000E+00  0.000000000E+00  4.702074215E+01  4.702074215E+01  0.000000000E+00  0.00000E+00  9.000E+00
      21    -1     0     0   501   512  0.000000000E+00  0.000000000E+00 -2.334749463E+03  2.334749463E+03  0.000000000E+00  0.00000E+00  9.000E+00
      25     1     1     2     0     0  5.015500239E+01  2.510668566E+02 -5.740550218E+02  6.408699235E+02  1.250000000E+02  0.00000E+00  9.000E+00
      25     1     1     2     0     0 -6.302378547E+01 -2.196298810E+02 -1.299949694E+03  1.325784104E+03  1.250000000E+02  0.00000E+00  9.000E+00
      21     1     1     2   502   512  1.286878308E+01 -3.143697560E+01 -4.137240048E+02  4.151161779E+02  5.394796609E-06  0.00000E+00  9.000E+00
#rwgt            1           1   2.7216251358555217E-002           1      200237           0
</event>
<event>
      5   9999  3.19816E-02  3.39463E+01 -1.00000E+00  1.49403E-01
      21    -1     0     0   502   501  0.000000000E+00  0.000000000E+00  3.012101428E+02  3.012101428E+02  0.000000000E+00  0.00000E+00  9.000E+00
      21    -1     0     0   511   502  0.000000000E+00  0.000000000E+00 -6.286630328E+02  6.286630328E+02  0.000000000E+00  0.00000E+00  9.000E+00
      25     1     1     2     0     0  1.337923320E+02  6.443794858E+01 -8.007232030E+01  2.099743170E+02  1.250000000E+02  0.00000E+00  9.000E+00
      25     1     1     2     0     0 -1.603156561E+02 -4.325159681E+01  1.897643097E+02  2.814379211E+02  1.250000000E+02  0.00000E+00  9.000E+00
      21     1     1     2   511   501  2.652332409E+01 -2.118635177E+01 -4.371448794E+02  4.384609376E+02  5.394796609E-06  0.00000E+00  9.000E+00
#rwgt            1           1   2.6986200760448466E-002           1      200327           0
</event>
<event>
      5   9999  3.19816E-02  2.08597E+02 -1.00000E+00  1.10987E-01
       2    -1     0     0   502     0  0.000000000E+00  0.000000000E+00  2.041510779E+03  2.041510779E+03  0.000000000E+00  0.00000E+00  9.000E+00
      21    -1     0     0   501   502  0.000000000E+00  0.000000000E+00 -9.951438481E+01  9.951438481E+01  0.000000000E+00  0.00000E+00  9.000E+00
      25     1     1     2     0     0  1.424571396E+02 -9.975682228E+01  1.039108549E+03  1.060951006E+03  1.250000000E+02  0.00000E+00  9.000E+00
      25     1     1     2     0     0 -3.509590223E+02  9.347265186E+01  5.919561328E+02  7.056531975E+02  1.250000000E+02  0.00000E+00  9.000E+00
       2     1     1     2   501     0  2.085018827E+02  6.284170425E+00  3.109317125E+02  3.744209605E+02  5.394796609E-06  0.00000E+00  9.000E+00
#rwgt            1           1   1.9091733559514795E-002           1      200443           0
</event>
<event>
      5   9999  3.19816E-02  2.24463E+01 -1.00000E+00  1.62338E-01
      21    -1     0     0   502   511  0.000000000E+00  0.000000000E+00  5.284841209E+02  5.284841209E+02  0.000000000E+00  0.00000E+00  9.000E+00
      21    -1     0     0   501   502  0.000000000E+00  0.000000000E+00 -3.104269484E+02  3.104269484E+02  0.000000000E+00  0.00000E+00  9.000E+00
      25     1     1     2     0     0 -1.099565030E+02 -6.262174314E+01 -7.400338012E+01  1.926484247E+02  1.250000000E+02  0.00000E+00  9.000E+00
      25     1     1     2     0     0  1.294226534E+02  5.144567001E+01 -1.272792455E+02  2.263225277E+02  1.250000000E+02  0.00000E+00  9.000E+00
      21     1     1     2   501   511 -1.946615046E+01  1.117607313E+01  4.193397981E+02  4.199401170E+02  5.394796609E-06  0.00000E+00  9.000E+00
#rwgt            1           1   2.2371649698835410E-002           1      200495           0
</event>
<event>
      5   9999  3.19816E-02  1.27665E+02 -1.00000E+00  1.19238E-01
      21    -1     0     0   502   501  0.000000000E+00  0.000000000E+00  6.828931807E+02  6.828931807E+02  0.000000000E+00  0.00000E+00  9.000E+00
      21    -1     0     0   512   502  0.000000000E+00  0.000000000E+00 -2.462152377E+03  2.462152377E+03  0.000000000E+00  0.00000E+00  9.000E+00
      25     1     1     2     0     0 -6.632154165E+02 -1.755485459E+02  4.062170470E+02  8.070373411E+02  1.250000000E+02  0.00000E+00  9.000E+00
      25     1     1     2     0     0  6.146243805E+02  5.749235411E+01 -2.077270731E+03  2.170655936E+03  1.250000000E+02  0.00000E+00  9.000E+00
      21     1     1     2   512   501  4.859103598E+01  1.180561918E+02 -1.082055126E+02  1.673522816E+02  1.348699152E-06  0.00000E+00  9.000E+00
#rwgt            1           1   6.2392698801735494E-002           1      200650           0
</event>
<event>
      5   9999  3.19816E-02  5.79648E+01 -1.00000E+00  1.35509E-01
      21    -1     0     0   502   501  0.000000000E+00  0.000000000E+00  7.464549822E+02  7.464549822E+02  0.000000000E+00  0.00000E+00  9.000E+00
       1    -1     0     0   501     0  0.000000000E+00  0.000000000E+00 -1.557783337E+03  1.557783337E+03  0.000000000E+00  0.00000E+00  9.000E+00
      25     1     1     2     0     0 -6.249406569E+01  2.953709846E+02  6.647723187E+02  7.407406851E+02  1.250000000E+02  0.00000E+00  9.000E+00
      25     1     1     2     0     0  2.356726258E+01 -2.524219703E+02 -4.226816399E+02  5.084850398E+02  1.250000000E+02  0.00000E+00  9.000E+00
       1     1     1     2   502     0  3.892680310E+01 -4.294901432E+01 -1.053419033E+03  1.055012594E+03  1.525878906E-05  0.00000E+00  9.000E+00
#rwgt            1           1   2.2142213315268073E-002           1      200768           0
</event>
<event>
      5   9999  3.19816E-02  2.42609E+02 -1.00000E+00  1.08677E-01
       2    -1     0     0   502     0  0.000000000E+00  0.000000000E+00  1.577800209E+03  1.577800209E+03  0.000000000E+00  0.00000E+00  9.000E+00
      21    -1     0     0   501   502  0.000000000E+00  0.000000000E+00 -1.577246454E+02  1.577246454E+02  0.000000000E+00  0.00000E+00  9.000E+00
      25     1     1     2     0     0  6.674410859E+01  2.885214031E+02  4.077802177E+02  5.192389451E+02  1.250000000E+02  0.00000E+00  9.000E+00
      25     1     1     2     0     0  1.574734290E+02 -3.811808238E+02  6.211024449E+02  7.559695420E+02  1.250000000E+02  0.00000E+00  9.000E+00
       2     1     1     2   501     0 -2.242175376E+02  9.265942069E+01  3.911929013E+02  4.603163678E+02  5.394796609E-06  0.00000E+00  9.000E+00
#rwgt            1           1   2.9767920981649851E-002           1      200893           0
</event>
<event>
      5   9999  3.19816E-02  3.52907E+02 -1.00000E+00  1.03350E-01
      21    -1     0     0   502   511  0.000000000E+00  0.000000000E+00  1.601682105E+03  1.601682105E+03  0.000000000E+00  0.00000E+00  9.000E+00
      21    -1     0     0   501   502  0.000000000E+00  0.000000000E+00 -4.418229973E+02  4.418229973E+02  0.000000000E+00  0.00000E+00  9.000E+00
      25     1     1     2     0     0 -3.260611689E+02 -3.005403901E+02  3.220903745E+01  4.618471977E+02  1.250000000E+02  0.00000E+00  9.000E+00
      25     1     1     2     0     0  3.490318705E+02  6.526987057E+02  6.914152203E+02  1.020548310E+03  1.250000000E+02  0.00000E+00  9.000E+00
      21     1     1     2   501   511 -2.297070162E+01 -3.521583155E+02  4.362348504E+02  5.611095945E+02  0.000000000E+00  0.00000E+00  9.000E+00
#rwgt            1           1   3.1581242151687221E-002           1      200940           0
</event>
<event>
      5   9999  3.19816E-02  4.52737E+01 -1.00000E+00  1.41581E-01
      21    -1     0     0   502   501  0.000000000E+00  0.000000000E+00  7.228034076E+01  7.228034076E+01  0.000000000E+00  0.00000E+00  9.000E+00
       2    -1     0     0   501     0  0.000000000E+00  0.000000000E+00 -2.153278202E+03  2.153278202E+03  0.000000000E+00  0.00000E+00  9.000E+00
      25     1     1     2     0     0 -2.229338742E+02  2.852410612E+01 -2.989070741E+02  3.943140574E+02  1.250000000E+02  0.00000E+00  9.000E+00
      25     1     1     2     0     0  1.784150983E+02 -3.675758757E+01 -4.803802286E+02  5.287468502E+02  1.250000000E+02  0.00000E+00  9.000E+00
       2     1     1     2   502     0  4.451877588E+01  8.233481449E+00 -1.301710559E+03  1.302497636E+03  1.525878906E-05  0.00000E+00  9.000E+00
#rwgt            1           1   3.2795367552873246E-002           1      201086           0
</event>
<event>
      5   9999  3.19816E-02  1.23533E+02 -1.00000E+00  1.19836E-01
      21    -1     0     0   502   511  0.000000000E+00  0.000000000E+00  1.540939527E+03  1.540939527E+03  0.000000000E+00  0.00000E+00  9.000E+00
      21    -1     0     0   501   502  0.000000000E+00  0.000000000E+00 -1.017472149E+02  1.017472149E+02  0.000000000E+00  0.00000E+00  9.000E+00
      25     1     1     2     0     0 -1.791075455E+02  5.427461148E+01  5.059191335E+02  5.537187156E+02  1.250000000E+02  0.00000E+00  9.000E+00
      25     1     1     2     0     0  3.026341856E+02 -5.552209870E+01  3.124801779E+02  4.560033063E+02  1.250000000E+02  0.00000E+00  9.000E+00
      21     1     1     2   501   511 -1.235266401E+02  1.247487223E+00  6.207930007E+02  6.329647200E+02  0.000000000E+00  0.00000E+00  9.000E+00
#rwgt            1           1   2.7622172872912448E-002           1      201149           0
</event>
<event>
      5   9999  3.19816E-02  2.65678E+01 -1.00000E+00  1.56797E-01
      21    -1     0     0   502   512  0.000000000E+00  0.000000000E+00  1.124648642E+03  1.124648642E+03  0.000000000E+00  0.00000E+00  9.000E+00
      21    -1     0     0   501   502  0.000000000E+00  0.000000000E+00 -4.697259533E+02  4.697259533E+02  0.000000000E+00  0.00000E+00  9.000E+00
      25     1     1     2     0     0  6.138058151E+02  1.240807170E+01 -6.933864297E+01  6.303525889E+02  1.250000000E+02  0.00000E+00  9.000E+00
      25     1     1     2     0     0 -5.962393131E+02  7.523525317E+00  7.005224913E+02  9.283936034E+02  1.250000000E+02  0.00000E+00  9.000E+00
      21     1     1     2   501   512 -1.756650196E+01 -1.993159702E+01  2.373883987E+01  3.562840256E+01  8.920806376E-07  0.00000E+00  9.000E+00
#rwgt            1           1   3.4048557279052524E-002           1      201179           0
</event>
<event>
      5   9999  3.19816E-02  7.78242E+01 -1.00000E+00  1.28932E-01
      21    -1     0     0   502   501  0.000000000E+00  0.000000000E+00  2.676856660E+02  2.676856660E+02  0.000000000E+00  0.00000E+00  9.000E+00
      21    -1     0     0   511   502  0.000000000E+00  0.000000000E+00 -4.298528786E+02  4.298528786E+02  0.000000000E+00  0.00000E+00  9.000E+00
      25     1     1     2     0     0  2.031119322E+02 -2.447568789E+01  4.770281842E+00  2.397942282E+02  1.250000000E+02  0.00000E+00  9.000E+00
      25     1     1     2     0     0 -2.807069032E+02  3.044422285E+01 -4.351750312E+01  3.118364784E+02  1.250000000E+02  0.00000E+00  9.000E+00
      21     1     1     2   511   501  7.759497096E+01 -5.968534961E+00 -1.234199913E+02  1.459078380E+02  1.348699152E-06  0.00000E+00  9.000E+00
#rwgt            1           1   2.8074964801968510E-002           1      201385           0
</event>
<event>
      5   9999  3.19816E-02  6.66228E+01 -1.00000E+00  1.32318E-01
      21    -1     0     0   502   512  0.000000000E+00  0.000000000E+00  4.191688548E+02  4.191688548E+02  0.000000000E+00  0.00000E+00  9.000E+00
      21    -1     0     0   501   502  0.000000000E+00  0.000000000E+00 -1.046317047E+02  1.046317047E+02  0.000000000E+00  0.00000E+00  9.000E+00
      25     1     1     2     0     0  4.437182925E+01 -2.094399617E+01 -1.358294378E+01  1.349703915E+02  1.250000000E+02  0.00000E+00  9.000E+00
      25     1     1     2     0     0 -3.382863508E+01 -4.483931289E+01  1.784230859E+02  2.249771946E+02  1.250000000E+02  0.00000E+00  9.000E+00
      21     1     1     2   501   512 -1.054319417E+01  6.578330906E+01  1.496970080E+02  1.638529734E+02  3.303624740E-06  0.00000E+00  9.000E+00
#rwgt            1           1   6.5014085932905780E-002           1      201453           0
</event>
<event>
      5   9999  3.19816E-02  3.81079E+01 -1.00000E+00  1.46157E-01
       2    -1     0     0   502     0  0.000000000E+00  0.000000000E+00  1.958098257E+03  1.958098257E+03  0.000000000E+00  0.00000E+00  9.000E+00
      21    -1     0     0   501   502  0.000000000E+00  0.000000000E+00 -7.061237048E+01  7.061237048E+01  0.000000000E+00  0.00000E+00  9.000E+00
      25     1     1     2     0     0 -3.255103475E+01  7.850112555E+01  4.662888014E+02  4.901757266E+02  1.250000000E+02  0.00000E+00  9.000E+00
      25     1     1     2     0     0  4.627127703E+01 -1.140534885E+02  7.334028042E+01  1.901394910E+02  1.250000000E+02  0.00000E+00  9.000E+00
       2     1     1     2   501     0 -1.372024228E+01  3.555236291E+01  1.347856804E+03  1.348395410E+03  2.642899792E-05  0.00000E+00  9.000E+00
#rwgt            1           1   2.6805398968322559E-002           1      201501           0
</event>
<event>
      5   9999  3.19816E-02  4.73031E+01 -1.00000E+00  1.40463E-01
      21    -1     0     0   511   501  0.000000000E+00  0.000000000E+00  4.759611894E+02  4.759611894E+02  0.000000000E+00  0.00000E+00  9.000E+00
      21    -1     0     0   501   502  0.000000000E+00  0.000000000E+00 -9.419558995E+02  9.419558995E+02  0.000000000E+00  0.00000E+00  9.000E+00
      25     1     1     2     0     0 -5.414553253E+02 -2.705180322E+02 -2.751824742E+02  6.765384462E+02  1.250000000E+02  0.00000E+00  9.000E+00
      25     1     1     2     0     0  5.593441727E+02  2.267279007E+02 -2.504159528E+02  6.652853477E+02  1.250000000E+02  0.00000E+00  9.000E+00
      21     1     1     2   511   502 -1.788884736E+01  4.379013148E+01  5.960371688E+01  7.609329498E+01  1.348699152E-06  0.00000E+00  9.000E+00
#rwgt            1           1   2.6265547334009719E-002           1      201568           0
</event>
<event>
      5   9999  3.19816E-02  4.93439E+01 -1.00000E+00  1.39404E-01
      -2    -1     0     0     0   501  0.000000000E+00  0.000000000E+00  1.495859141E+03  1.495859141E+03  0.000000000E+00  0.00000E+00  9.000E+00
      21    -1     0     0   501   502  0.000000000E+00  0.000000000E+00 -3.015427098E+02  3.015427098E+02  0.000000000E+00  0.00000E+00  9.000E+00
      25     1     1     2     0     0  9.830649868E+01  1.091997531E+02 -2.417847808E+02  3.093115484E+02  1.250000000E+02  0.00000E+00  9.000E+00
      25     1     1     2     0     0 -1.367367370E+02 -1.401503525E+02  5.070641989E+02  5.577438107E+02  1.250000000E+02  0.00000E+00  9.000E+00
      -2     1     1     2     0   502  3.843023836E+01  3.095059938E+01  9.290370135E+02  9.303464920E+02  1.078959322E-05  0.00000E+00  9.000E+00
#rwgt            1           1   2.8335880056667831E-002           1      201743           0
</event>
<event>
      5   9999  3.19816E-02  4.19465E+01 -1.00000E+00  1.43572E-01
      21    -1     0     0   502   511  0.000000000E+00  0.000000000E+00  2.968750090E+02  2.968750090E+02  0.000000000E+00  0.00000E+00  9.000E+00
      21    -1     0     0   501   502  0.000000000E+00  0.000000000E+00 -8.790921723E+02  8.790921723E+02  0.000000000E+00  0.00000E+00  9.000E+00
      25     1     1     2     0     0 -3.323315054E+02  2.780765404E+02 -4.642327647E+02  6.472309106E+02  1.250000000E+02  0.00000E+00  9.000E+00
      25     1     1     2     0     0  3.250460248E+02 -3.193854573E+02 -9.948470272E+01  4.828914936E+02  1.250000000E+02  0.00000E+00  9.000E+00
      21     1     1     2   501   511  7.285480583E+00  4.130891682E+01 -1.849969597E+01  4.584477710E+01  7.152557373E-07  0.00000E+00  9.000E+00
#rwgt            1           1   2.9144345853828479E-002           1      201816           0
</event>
<event>
      5   9999  3.19816E-02  3.38568E+01 -1.00000E+00  1.49479E-01
      21    -1     0     0   502   501  0.000000000E+00  0.000000000E+00  4.969790345E+02  4.969790345E+02  0.000000000E+00  0.00000E+00  9.000E+00
      21    -1     0     0   501   512  0.000000000E+00  0.000000000E+00 -7.617352414E+02  7.617352414E+02  0.000000000E+00  0.00000E+00  9.000E+00
      25     1     1     2     0     0  2.504737670E+02 -4.846933611E+02  1.235804395E+02  5.732031816E+02  1.250000000E+02  0.00000E+00  9.000E+00
      25     1     1     2     0     0 -2.291911514E+02  4.583620911E+02 -3.440994666E+02  6.298045993E+02  1.250000000E+02  0.00000E+00  9.000E+00
      21     1     1     2   502   512 -2.128261565E+01  2.633127007E+01 -4.423717974E+01  5.570649499E+01  6.743495762E-07  0.00000E+00  9.000E+00
#rwgt            1           1   3.1727878877426743E-002           1      201939           0
</event>
<event>
      5   9999  3.19816E-02  7.60485E+01 -1.00000E+00  1.29423E-01
      21    -1     0     0   511   501  0.000000000E+00  0.000000000E+00  7.566408801E+01  7.566408801E+01  0.000000000E+00  0.00000E+00  9.000E+00
      21    -1     0     0   501   502  0.000000000E+00  0.000000000E+00 -1.038501691E+03  1.038501691E+03  0.000000000E+00  0.00000E+00  9.000E+00
      25     1     1     2     0     0 -9.595375947E+01  9.772704862E+01 -2.033139177E+02  2.751713087E+02  1.250000000E+02  0.00000E+00  9.000E+00
      25     1     1     2     0     0  2.650544322E+01 -1.287158120E+02 -7.379981558E+02  7.599582730E+02  1.250000000E+02  0.00000E+00  9.000E+00
      21     1     1     2   511   502  6.944831624E+01  3.098876337E+01 -2.152552966E+01  7.903619747E+01  1.118282261E-06  0.00000E+00  9.000E+00
#rwgt            1           1   2.5630507219387158E-002           1      202068           0
</event>
<event>
      5   9999  3.19816E-02  2.14068E+01 -1.00000E+00  1.63970E-01
      21    -1     0     0   502   501  0.000000000E+00  0.000000000E+00  7.105975382E+02  7.105975382E+02  0.000000000E+00  0.00000E+00  9.000E+00
      21    -1     0     0   512   502  0.000000000E+00  0.000000000E+00 -1.124019068E+03  1.124019068E+03  0.000000000E+00  0.00000E+00  9.000E+00
      25     1     1     2     0     0 -4.473741183E+02 -3.619023591E+02  1.547011462E+02  6.088303244E+02  1.250000000E+02  0.00000E+00  9.000E+00
      25     1     1     2     0     0  4.452544223E+02  3.832039240E+02  5.424934989E+01  6.030462171E+02  1.250000000E+02  0.00000E+00  9.000E+00
      21     1     1     2   512   501  2.119695979E+00 -2.130156488E+01 -6.223720256E+02  6.227400645E+02  1.321449896E-05  0.00000E+00  9.000E+00
#rwgt            1           1   3.2210070995899634E-002           1      202122           0
</event>
<event>
      5   9999  3.19816E-02  3.53712E+02 -1.00000E+00  1.03319E-01
      21    -1     0     0   502   501  0.000000000E+00  0.000000000E+00  6.864850651E+02  6.864850651E+02  0.000000000E+00  0.00000E+00  9.000E+00
      21    -1     0     0   511   502  0.000000000E+00  0.000000000E+00 -1.579555539E+03  1.579555539E+03  0.000000000E+00  0.00000E+00  9.000E+00
      25     1     1     2     0     0 -5.712402532E+01 -1.938314918E+02  9.650881622E+01  2.564619915E+02  1.250000000E+02  0.00000E+00  9.000E+00
      25     1     1     2     0     0 -1.602241686E+02  4.728869212E+02  3.510838093E+02  6.230398587E+02  1.250000000E+02  0.00000E+00  9.000E+00
      21     1     1     2   511   501  2.173481939E+02 -2.790554294E+02 -1.340663099E+03  1.386538754E+03  0.000000000E+00  0.00000E+00  9.000E+00
#rwgt            2          11   3.3681280192789250E-003           1      202627           0
</event>
<event>
      5   9999  3.19816E-02  6.75355E+01 -1.00000E+00  1.32014E-01
      21    -1     0     0   512   501  0.000000000E+00  0.000000000E+00  1.169538583E+03  1.169538583E+03  0.000000000E+00  0.00000E+00  9.000E+00
      21    -1     0     0   501   502  0.000000000E+00  0.000000000E+00 -9.348061961E+02  9.348061961E+02  0.000000000E+00  0.00000E+00  9.000E+00
      25     1     1     2     0     0 -1.766213272E+01 -9.514121621E+02  4.547864225E+01  9.608279554E+02  1.250000000E+02  0.00000E+00  9.000E+00
      25     1     1     2     0     0 -4.917186743E+01  9.611210351E+02  3.043950175E+01  9.709392772E+02  1.250000000E+02  0.00000E+00  9.000E+00
      21     1     1     2   512   502  6.683400015E+01 -9.708873061E+00  1.588142428E+02  1.725775464E+02  1.907348633E-06  0.00000E+00  9.000E+00
#rwgt            1           1   4.6093968445380780E-002           1      202677           0
</event>
<event>
      5   9999  3.19816E-02  1.90449E+02 -1.00000E+00  1.12427E-01
      21    -1     0     0   502   501  0.000000000E+00  0.000000000E+00  2.670732496E+03  2.670732496E+03  0.000000000E+00  0.00000E+00  9.000E+00
       2    -1     0     0   501     0  0.000000000E+00  0.000000000E+00 -3.587143617E+02  3.587143617E+02  0.000000000E+00  0.00000E+00  9.000E+00
      25     1     1     2     0     0 -4.824410860E+02  4.139436275E+02  9.233081517E+02  1.127928043E+03  1.250000000E+02  0.00000E+00  9.000E+00
      25     1     1     2     0     0  6.719037912E+02 -3.945873066E+02  1.489797288E+03  1.685904745E+03  1.250000000E+02  0.00000E+00  9.000E+00
       2     1     1     2   502     0 -1.894627051E+02 -1.935632097E+01 -1.010873056E+02  2.156140699E+02  4.862803949E-06  0.00000E+00  9.000E+00
#rwgt            1           1   2.7932840847880211E-002           1      202829           0
</event>
<event>
      5   9999  3.19816E-02  2.19474E+01 -1.00000E+00  1.63107E-01
      21    -1     0     0   502   501  0.000000000E+00  0.000000000E+00  3.864741325E+02  3.864741325E+02  0.000000000E+00  0.00000E+00  9.000E+00
      21    -1     0     0   511   502  0.000000000E+00  0.000000000E+00 -1.189849295E+02  1.189849295E+02  0.000000000E+00  0.00000E+00  9.000E+00
      25     1     1     2     0     0  9.918584336E+01 -6.428082154E+01  2.082827561E+01  1.732878317E+02  1.250000000E+02  0.00000E+00  9.000E+00
      25     1     1     2     0     0 -1.143926606E+02  8.010612067E+01  2.471984705E+02  3.102172709E+02  1.250000000E+02  0.00000E+00  9.000E+00
      21     1     1     2   511   501  1.520681724E+01 -1.582529913E+01 -5.375431266E-01  2.195395945E+01  5.296728786E-07  0.00000E+00  9.000E+00
#rwgt            1           1   3.3321564461640744E-002           1      202878           0
</event>
<event>
      5   9999  3.19816E-02  1.08395E+02 -1.00000E+00  1.22274E-01
      21    -1     0     0   502   501  0.000000000E+00  0.000000000E+00  1.605566567E+02  1.605566567E+02  0.000000000E+00  0.00000E+00  9.000E+00
      21    -1     0     0   501   512  0.000000000E+00  0.000000000E+00 -9.475594634E+02  9.475594634E+02  0.000000000E+00  0.00000E+00  9.000E+00
      25     1     1     2     0     0  1.948851194E+02  1.896162646E+02 -3.339467590E+02  4.484194191E+02  1.250000000E+02  0.00000E+00  9.000E+00
      25     1     1     2     0     0 -1.768924645E+02 -2.965070694E+02 -3.123029639E+02  4.820430764E+02  1.250000000E+02  0.00000E+00  9.000E+00
      21     1     1     2   502   512 -1.799265485E+01  1.068908048E+02 -1.407530838E+02  1.776536247E+02  1.907348633E-06  0.00000E+00  9.000E+00
#rwgt            2          11   3.4696572815493113E-003           1      203021           0
</event>
<event>
      5   9999  3.19816E-02  1.34735E+01 -1.00000E+00  1.81890E-01
      21    -1     0     0   502   501  0.000000000E+00  0.000000000E+00  1.936087514E+02  1.936087514E+02  0.000000000E+00  0.00000E+00  9.000E+00
      21    -1     0     0   501   511  0.000000000E+00  0.000000000E+00 -3.845824519E+02  3.845824519E+02  0.000000000E+00  0.00000E+00  9.000E+00
      25     1     1     2     0     0  2.184451721E+02 -2.374158179E+01 -1.523650183E+02  2.951644537E+02  1.250000000E+02  0.00000E+00  9.000E+00
      25     1     1     2     0     0 -2.100433829E+02  3.427467302E+01 -5.053314920E+00  2.468673974E+02  1.250000000E+02  0.00000E+00  9.000E+00
      21     1     1     2   502   511 -8.401789289E+00 -1.053309122E+01 -3.355536734E+01  3.615935220E+01  6.743495762E-07  0.00000E+00  9.000E+00
#rwgt            1           1   2.4294606023100362E-002           1      203056           0
</event>
<event>
      5   9999  3.19816E-02  4.12801E+01 -1.00000E+00  1.43997E-01
      21    -1     0     0   502   501  0.000000000E+00  0.000000000E+00  4.995561693E+02  4.995561693E+02  0.000000000E+00  0.00000E+00  9.000E+00
      21    -1     0     0   512   502  0.000000000E+00  0.000000000E+00 -2.769321810E+02  2.769321810E+02  0.000000000E+00  0.00000E+00  9.000E+00
      25     1     1     2     0     0 -1.269127486E+02 -1.018162058E+02 -1.596820942E+02  2.599937628E+02  1.250000000E+02  0.00000E+00  9.000E+00
      25     1     1     2     0     0  1.475514154E+02  1.375666022E+02  4.049832172E+02  4.693957781E+02  1.250000000E+02  0.00000E+00  9.000E+00
      21     1     1     2   512   501 -2.063866687E+01 -3.575039639E+01 -2.267713465E+01  4.709880941E+01  5.840038640E-07  0.00000E+00  9.000E+00
#rwgt            1           1   2.8119255725691957E-002           1      203232           0
</event>
<event>
      5   9999  3.19816E-02  3.90537E+02 -1.00000E+00  1.01999E-01
      21    -1     0     0   502   511  0.000000000E+00  0.000000000E+00  5.481699012E+02  5.481699012E+02  0.000000000E+00  0.00000E+00  9.000E+00
      21    -1     0     0   501   502  0.000000000E+00  0.000000000E+00 -8.328721996E+02  8.328721996E+02  0.000000000E+00  0.00000E+00  9.000E+00
      25     1     1     2     0     0  1.676094028E+02  2.013043312E+02 -4.103305180E+02  5.026056901E+02  1.250000000E+02  0.00000E+00  9.000E+00
      25     1     1     2     0     0 -4.576490949E+02  6.022173973E+01  5.224935390E+01  4.810658448E+02  1.250000000E+02  0.00000E+00  9.000E+00
      21     1     1     2   501   511  2.900396921E+02 -2.615260709E+02  7.337886574E+01  3.973705660E+02  5.560829062E-06  0.00000E+00  9.000E+00
#rwgt            2          11   2.9106003909145518E-003           1      203446           0
</event>
<event>
      5   9999  3.19816E-02  1.85682E+01 -1.00000E+00  1.69076E-01
      21    -1     0     0   502   501  0.000000000E+00  0.000000000E+00  8.884236619E+02  8.884236619E+02  0.000000000E+00  0.00000E+00  9.000E+00
      21    -1     0     0   501   512  0.000000000E+00  0.000000000E+00 -6.026459445E+02  6.026459445E+02  0.000000000E+00  0.00000E+00  9.000E+00
      25     1     1     2     0     0 -6.107479866E+02  1.176186697E+02 -2.020107295E+02  6.657932032E+02  1.250000000E+02  0.00000E+00  9.000E+00
      25     1     1     2     0     0  5.922383712E+02 -1.190920319E+02  5.070425591E+02  7.985276182E+02  1.250000000E+02  0.00000E+00  9.000E+00
      21     1     1     2   502   512  1.850961543E+01  1.473362200E+00 -1.925411225E+01  2.674878498E+01  4.129530925E-07  0.00000E+00  9.000E+00
#rwgt            1           1   2.7148282950227698E-002           1      203481           0
</event>
<event>
      5   9999  3.19816E-02  1.03817E+02 -1.00000E+00  1.23101E-01
      21    -1     0     0   502   511  0.000000000E+00  0.000000000E+00  1.965882744E+02  1.965882744E+02  0.000000000E+00  0.00000E+00  9.000E+00
      21    -1     0     0   501   502  0.000000000E+00  0.000000000E+00 -2.639774069E+02  2.639774069E+02  0.000000000E+00  0.00000E+00  9.000E+00
      25     1     1     2     0     0 -9.037778257E+01 -2.534335796E+00  4.942368047E+00  1.543502298E+02  1.250000000E+02  0.00000E+00  9.000E+00
      25     1     1     2     0     0 -6.902065521E+00  3.879162243E+01 -1.323788483E+02  1.862836223E+02  1.250000000E+02  0.00000E+00  9.000E+00
      21     1     1     2   501   511  9.727984810E+01 -3.625728663E+01  6.004734776E+01  1.199318292E+02  1.784161275E-06  0.00000E+00  9.000E+00
#rwgt            1           1   4.8358633695689109E-002           1      203733           0
</event>
<event>
      5   9999  3.19816E-02  1.00113E+01 -1.00000E+00  1.95700E-01
      21    -1     0     0   502   501  0.000000000E+00  0.000000000E+00  7.974596865E+02  7.974596865E+02  0.000000000E+00  0.00000E+00  9.000E+00
      21    -1     0     0   512   502  0.000000000E+00  0.000000000E+00 -7.083153788E+02  7.083153788E+02  0.000000000E+00  0.00000E+00  9.000E+00
      25     1     1     2     0     0  3.578263715E+02 -3.002314274E+02 -1.033040870E+02  4.944444929E+02  1.250000000E+02  0.00000E+00  9.000E+00
      25     1     1     2     0     0 -3.663539675E+02  2.949867346E+02  5.034149889E+02  7.002028665E+02  1.250000000E+02  0.00000E+00  9.000E+00
      21     1     1     2   512   501  8.527596019E+00  5.244692769E+00 -3.109665943E+02  3.111277060E+02  3.814697266E-06  0.00000E+00  9.000E+00
#rwgt            1           1   2.9189125146399951E-002           1      203781           0
</event>
<event>
      5   9999  3.19816E-02  2.73828E+01 -1.00000E+00  1.55845E-01
      21    -1     0     0   502   501  0.000000000E+00  0.000000000E+00  1.282652418E+03  1.282652418E+03  0.000000000E+00  0.00000E+00  9.000E+00
       1    -1     0     0   501     0  0.000000000E+00  0.000000000E+00 -5.129930894E+02  5.129930894E+02  0.000000000E+00  0.00000E+00  9.000E+00
      25     1     1     2     0     0 -5.590656875E+02 -4.712344195E+00  1.320239170E+02  5.879047234E+02  1.250000000E+02  0.00000E+00  9.000E+00
      25     1     1     2     0     0  5.349438084E+02  1.767193739E+01  8.398294389E+02  1.003700982E+03  1.250000000E+02  0.00000E+00  9.000E+00
       1     1     1     2   502     0  2.412187912E+01 -1.295959320E+01 -2.021940271E+02  2.040398018E+02  2.697398305E-06  0.00000E+00  9.000E+00
#rwgt            1           1   2.8587227828807404E-002           1      204133           0
</event>
<event>
      5   9999  3.19816E-02  2.13320E+01 -1.00000E+00  1.64091E-01
      21    -1     0     0   502   501  0.000000000E+00  0.000000000E+00  1.871587475E+02  1.871587475E+02  0.000000000E+00  0.00000E+00  9.000E+00
      21    -1     0     0   501   511  0.000000000E+00  0.000000000E+00 -1.347639178E+03  1.347639178E+03  0.000000000E+00  0.00000E+00  9.000E+00
      25     1     1     2     0     0  7.369673486E+01  3.232459298E+02 -2.536823804E+02  4.357738978E+02  1.250000000E+02  0.00000E+00  9.000E+00
      25     1     1     2     0     0 -8.117047335E+01 -3.432258722E+02 -2.689428483E+02  4.608122185E+02  1.250000000E+02  0.00000E+00  9.000E+00
      21     1     1     2   502   511  7.473738492E+00  1.997994243E+01 -6.378552015E+02  6.382118089E+02  0.000000000E+00  0.00000E+00  9.000E+00
#rwgt            1           1   2.5071365139743000E-002           1      204290           0
</event>
<event>
      5   9999  3.19816E-02  3.76360E+01 -1.00000E+00  1.46500E-01
      21    -1     0     0   502   501  0.000000000E+00  0.000000000E+00  4.198588283E+02  4.198588283E+02  0.000000000E+00  0.00000E+00  9.000E+00
       2    -1     0     0   501     0  0.000000000E+00  0.000000000E+00 -1.991189547E+03  1.991189547E+03  0.000000000E+00  0.00000E+00  9.000E+00
      25     1     1     2     0     0 -3.051394889E+02  5.444119111E+02 -1.077011877E+03  1.251029184E+03  1.250000000E+02  0.00000E+00  9.000E+00
      25     1     1     2     0     0  2.806292706E+02 -5.158512009E+02  6.094135381E+01  6.034849605E+02  1.250000000E+02  0.00000E+00  9.000E+00
       2     1     1     2   502     0  2.451021832E+01 -2.856071027E+01 -5.552601956E+02  5.565342306E+02  1.078959322E-05  0.00000E+00  9.000E+00
#rwgt            1           1   3.2337747142992930E-002           1      204421           0
</event>
<event>
      5   9999  3.19816E-02  1.72246E+01 -1.00000E+00  1.71907E-01
      21    -1     0     0   502   501  0.000000000E+00  0.000000000E+00  4.546790589E+02  4.546790589E+02  0.000000000E+00  0.00000E+00  9.000E+00
      21    -1     0     0   511   502  0.000000000E+00  0.000000000E+00 -4.663772705E+02  4.663772705E+02  0.000000000E+00  0.00000E+00  9.000E+00
      25     1     1     2     0     0 -1.562469391E+02 -2.463030258E+01 -3.953474287E+02  4.437841223E+02  1.250000000E+02  0.00000E+00  9.000E+00
      25     1     1     2     0     0  1.614519242E+02  8.210988773E+00  4.027043040E+02  4.515859837E+02  1.250000000E+02  0.00000E+00  9.000E+00
      21     1     1     2   511   501 -5.204985097E+00  1.641931381E+01 -1.905508690E+01  2.568622340E+01  3.371747881E-07  0.00000E+00  9.000E+00
#rwgt            1           1   2.8563637214922770E-002           1      204583           0
</event>
<event>
      5   9999  3.19816E-02  2.76647E+01 -1.00000E+00  1.55525E-01
      21    -1     0     0   512   501  0.000000000E+00  0.000000000E+00  3.075911619E+02  3.075911619E+02  0.000000000E+00  0.00000E+00  9.000E+00
      21    -1     0     0   501   502  0.000000000E+00  0.000000000E+00 -3.009325122E+02  3.009325122E+02  0.000000000E+00  0.00000E+00  9.000E+00
      25     1     1     2     0     0  1.965282525E+01 -2.219725572E+01  1.022351448E+02  1.641827534E+02  1.250000000E+02  0.00000E+00  9.000E+00
      25     1     1     2     0     0 -3.729800504E+01  4.350412313E+01 -2.511481105E+02  2.863286980E+02  1.250000000E+02  0.00000E+00  9.000E+00
      21     1     1     2   512   502  1.764517980E+01 -2.130686741E+01  1.555716155E+02  1.580122226E+02  1.907348633E-06  0.00000E+00  9.000E+00
#rwgt            1           1   2.6669766351248639E-002           1      204759           0
</event>
<event>
      5   9999  3.19816E-02  5.46148E+01 -1.00000E+00  1.36923E-01
      21    -1     0     0   502   501  0.000000000E+00  0.000000000E+00  2.299970992E+02  2.299970992E+02  0.000000000E+00  0.00000E+00  9.000E+00
      21    -1     0     0   501   511  0.000000000E+00  0.000000000E+00 -1.000990833E+03  1.000990833E+03  0.000000000E+00  0.00000E+00  9.000E+00
      25     1     1     2     0     0 -1.882618795E+02 -3.179641187E+02 -5.272496551E+02  6.558665374E+02  1.250000000E+02  0.00000E+00  9.000E+00
      25     1     1     2     0     0  1.771654752E+02  3.714397488E+02 -1.305984647E+02  4.494842061E+02  1.250000000E+02  0.00000E+00  9.000E+00
      21     1     1     2   502   511  1.109640433E+01 -5.347563006E+01 -1.131456138E+02  1.256371884E+02  1.907348633E-06  0.00000E+00  9.000E+00
#rwgt            1           1   2.8639334829128144E-002           1      204866           0
</event>
<event>
      5   9999  3.19816E-02  1.47439E+02 -1.00000E+00  1.16691E-01
      21    -1     0     0   502   501  0.000000000E+00  0.000000000E+00  1.955347498E+03  1.955347498E+03  0.000000000E+00  0.00000E+00  9.000E+00
      21    -1     0     0   512   502  0.000000000E+00  0.000000000E+00 -4.736177370E+02  4.736177370E+02  0.000000000E+00  0.00000E+00  9.000E+00
      25     1     1     2     0     0 -1.286586671E+02 -1.095375405E+01  1.152887802E+02  2.135170724E+02  1.250000000E+02  0.00000E+00  9.000E+00
      25     1     1     2     0     0  1.506515912E+02  1.567430868E+02  1.769026712E+03  1.786713409E+03  1.250000000E+02  0.00000E+00  9.000E+00
      21     1     1     2   512   501 -2.199292416E+01 -1.457893327E+02 -4.025857313E+02  4.287347540E+02  0.000000000E+00  0.00000E+00  9.000E+00
#rwgt            1           1   2.8884851594294179E-002           1      204977           0
</event>
<event>
      5   9999  3.19816E-02  1.30560E+02 -1.00000E+00  1.18834E-01
      21    -1     0     0   502   501  0.000000000E+00  0.000000000E+00  1.695635709E+02  1.695635709E+02  0.000000000E+00  0.00000E+00  9.000E+00
      21    -1     0     0   511   502  0.000000000E+00  0.000000000E+00 -1.235831901E+03  1.235831901E+03  0.000000000E+00  0.00000E+00  9.000E+00
      25     1     1     2     0     0  1.554902094E+01 -2.777661181E+02 -6.485947003E+02  7.167258009E+02  1.250000000E+02  0.00000E+00  9.000E+00
      25     1     1     2     0     0 -1.278665090E+02  3.443302878E+02 -2.042291291E+02  4.384606350E+02  1.250000000E+02  0.00000E+00  9.000E+00
      21     1     1     2   511   501  1.123174881E+02 -6.656416967E+01 -2.134445008E+02  2.502090361E+02  2.697398305E-06  0.00000E+00  9.000E+00
#rwgt            2          11   3.7834046308442967E-003           1      205069           0
</event>
<event>
      5   9999  3.19816E-02  1.78632E+01 -1.00000E+00  1.70522E-01
      21    -1     0     0   512   501  0.000000000E+00  0.000000000E+00  1.578151454E+03  1.578151454E+03  0.000000000E+00  0.00000E+00  9.000E+00
      21    -1     0     0   501   502  0.000000000E+00  0.000000000E+00 -5.905164785E+02  5.905164785E+02  0.000000000E+00  0.00000E+00  9.000E+00
      25     1     1     2     0     0  9.573928946E+01  5.834368004E+02 -1.958774686E+02  6.352617526E+02  1.250000000E+02  0.00000E+00  9.000E+00
      25     1     1     2     0     0 -1.131437233E+02 -5.874593777E+02  3.592288394E+02  7.089290385E+02  1.250000000E+02  0.00000E+00  9.000E+00
      21     1     1     2   512   502  1.740443388E+01  4.022577270E+00  8.242836049E+02  8.244771414E+02  0.000000000E+00  0.00000E+00  9.000E+00
#rwgt            1           1   2.8760849961101186E-002           1      205089           0
</event>
<event>
      5   9999  3.19816E-02  1.68651E+02 -1.00000E+00  1.14411E-01
      21    -1     0     0   502   501  0.000000000E+00  0.000000000E+00  5.007655094E+02  5.007655094E+02  0.000000000E+00  0.00000E+00  9.000E+00
      21    -1     0     0   501   511  0.000000000E+00  0.000000000E+00 -6.380240143E+02  6.380240143E+02  0.000000000E+00  0.00000E+00  9.000E+00
      25     1     1     2     0     0 -1.625878551E+02 -3.404127360E+02  3.279712903E+02  5.152725577E+02  1.250000000E+02  0.00000E+00  9.000E+00
      25     1     1     2     0     0  8.314296681E+01  1.916452573E+02 -3.112344293E+02  3.951360874E+02  1.250000000E+02  0.00000E+00  9.000E+00
      21     1     1     2   502   511  7.944488831E+01  1.487674787E+02 -1.539953659E+02  2.283808786E+02  0.000000000E+00  0.00000E+00  9.000E+00
#rwgt            1           1   3.5008029962609301E-002           1      205285           0
</event>
<event>
      5   9999  3.19816E-02  3.20073E+01 -1.00000E+00  1.51112E-01
      21    -1     0     0   502   501  0.000000000E+00  0.000000000E+00  2.027773395E+02  2.027773395E+02  0.000000000E+00  0.00000E+00  9.000E+00
       1    -1     0     0   501     0  0.000000000E+00  0.000000000E+00 -1.950435425E+03  1.950435425E+03  0.000000000E+00  0.00000E+00  9.000E+00
      25     1     1     2     0     0  2.685693276E+01 -1.329816599E+02  1.528966275E+02  2.395992392E+02  1.250000000E+02  0.00000E+00  9.000E+00
      25     1     1     2     0     0  2.969580660E+00  1.445939098E+02 -1.620549178E+03  1.631784562E+03  1.250000000E+02  0.00000E+00  9.000E+00
       1     1     1     2   502     0 -2.982651342E+01 -1.161224981E+01 -2.800055351E+02  2.818289640E+02  3.814697266E-06  0.00000E+00  9.000E+00
#rwgt            1           1   2.2893404300702712E-002           1      205362           0
</event>
<event>
      5   9999  3.19816E-02  4.14228E+01 -1.00000E+00  1.43905E-01
       3    -1     0     0   502     0  0.000000000E+00  0.000000000E+00  9.685785723E+02  9.685785723E+02  0.000000000E+00  0.00000E+00  9.000E+00
      21    -1     0     0   501   502  0.000000000E+00  0.000000000E+00 -7.110287977E+01  7.110287977E+01  0.000000000E+00  0.00000E+00  9.000E+00
      25     1     1     2     0     0 -1.520846465E+02  5.566543459E+01  2.199593572E+02  3.003922421E+02  1.250000000E+02  0.00000E+00  9.000E+00
      25     1     1     2     0     0  1.925294855E+02 -6.461346408E+01  4.629309024E+02  5.207422807E+02  1.250000000E+02  0.00000E+00  9.000E+00
       3     1     1     2   501     0 -4.044483902E+01  8.948029492E+00  2.145854330E+02  2.185469292E+02  2.697398305E-06  0.00000E+00  9.000E+00
#rwgt            1           1   3.3346000387848747E-002           1      205535           0
</event>
<event>
      5   9999  3.19816E-02  9.69300E+01 -1.00000E+00  1.24440E-01
      21    -1     0     0   502   511  0.000000000E+00  0.000000000E+00  7.874482849E+02  7.874482849E+02  0.000000000E+00  0.00000E+00  9.000E+00
      21    -1     0     0   501   502  0.000000000E+00  0.000000000E+00 -6.125557463E+02  6.125557463E+02  0.000000000E+00  0.00000E+00  9.000E+00
      25     1     1     2     0     0 -1.074730733E+02 -6.178763876E+02 -1.455923521E+02  6.558535086E+02  1.250000000E+02  0.00000E+00  9.000E+00
      25     1     1     2     0     0  3.736710504E+01  5.509393000E+02  2.285804048E+02  6.105771157E+02  1.250000000E+02  0.00000E+00  9.000E+00
      21     1     1     2   501   511  7.010596829E+01  6.693708760E+01  9.190448586E+01  1.335734068E+02  1.907348633E-06  0.00000E+00  9.000E+00
#rwgt            1           1   3.1036554570986752E-002           1      205613           0
</event>
<event>
      5   9999  3.19816E-02  3.22050E+02 -1.00000E+00  1.04601E-01
      21    -1     0     0   502   501  0.000000000E+00  0.000000000E+00  3.608062606E+02  3.608062606E+02  0.000000000E+00  0.00000E+00  9.000E+00
      21    -1     0     0   512   502  0.000000000E+00  0.000000000E+00 -7.848330572E+02  7.848330572E+02  0.000000000E+00  0.00000E+00  9.000E+00
      25     1     1     2     0     0  1.408988573E+02  1.225392497E+01 -3.556204609E+02  4.026084436E+02  1.250000000E+02  0.00000E+00  9.000E+00
      25     1     1     2     0     0  1.173029377E+02 -2.047323213E+02  1.919905969E+02  3.288779285E+02  1.250000000E+02  0.00000E+00  9.000E+00
      21     1     1     2   512   501 -2.582017950E+02  1.924783963E+02 -2.603969326E+02  4.141529458E+02  5.394796609E-06  0.00000E+00  9.000E+00
#rwgt            1           1   2.7596771833826181E-002           1      205697           0
</event>
<event>
      5   9999  3.49306E-02  8.08722E+01 -1.00000E+00  1.28122E-01
      21    -1     0     0   502   501  0.000000000E+00  0.000000000E+00  7.088906407E+02  7.088906407E+02  0.000000000E+00  0.00000E+00  9.000E+00
      21    -1     0     0   501   511  0.000000000E+00  0.000000000E+00 -2.507900593E+03  2.507900593E+03  0.000000000E+00  0.00000E+00  9.000E+00
      25     1     1     2     0     0 -5.405006620E+02 -8.389556840E+02 -1.466083412E+03  1.777923839E+03  1.250000000E+02  0.00000E+00  9.000E+00
      25     1     1     2     0     0  5.255652013E+02  9.184367758E+02  3.107475317E+01  1.065990400E+03  1.250000000E+02  0.00000E+00  9.000E+00
      21     1     1     2   502   511  1.493546064E+01 -7.948109181E+01 -3.640012939E+02  3.728769956E+02  0.000000000E+00  0.00000E+00  9.000E+00
#rwgt            1           1   8.5234511539960256E-002           1      205743           0
</event>
<event>
      5   9999  3.19816E-02  7.55106E+01 -1.00000E+00  1.29575E-01
      21    -1     0     0   502   501  0.000000000E+00  0.000000000E+00  3.244607122E+02  3.244607122E+02  0.000000000E+00  0.00000E+00  9.000E+00
       1    -1     0     0   501     0  0.000000000E+00  0.000000000E+00 -4.913173921E+02  4.913173921E+02  0.000000000E+00  0.00000E+00  9.000E+00
      25     1     1     2     0     0  1.705614524E+02 -1.701250004E+02  2.107730644E+02  3.436335395E+02  1.250000000E+02  0.00000E+00  9.000E+00
      25     1     1     2     0     0 -1.166958825E+02  1.172066596E+02 -2.631620058E+02  3.350142853E+02  1.250000000E+02  0.00000E+00  9.000E+00
       1     1     1     2   502     0 -5.386556991E+01  5.291834085E+01 -1.144677385E+02  1.371302796E+02  1.348699152E-06  0.00000E+00  9.000E+00
#rwgt            1           1   3.4836441875193920E-002           1      205866           0
</event>
<event>
      5   9999  3.19816E-02  1.91331E+02 -1.00000E+00  1.12353E-01
      21    -1     0     0   502   501  0.000000000E+00  0.000000000E+00  1.160871952E+03  1.160871952E+03  0.000000000E+00  0.00000E+00  9.000E+00
      21    -1     0     0   511   502  0.000000000E+00  0.000000000E+00 -7.021847318E+02  7.021847318E+02  0.000000000E+00  0.00000E+00  9.000E+00
      25     1     1     2     0     0 -4.480654749E+02 -2.828175429E+02  2.644343726E+02  6.052263789E+02  1.250000000E+02  0.00000E+00  9.000E+00
      25     1     1     2     0     0  5.521529323E+02  1.222764119E+02  5.847169313E+02  8.230086702E+02  1.250000000E+02  0.00000E+00  9.000E+00
      21     1     1     2   511   501 -1.040874575E+02  1.605411310E+02 -3.904640835E+02  4.348216348E+02  5.394796609E-06  0.00000E+00  9.000E+00
#rwgt            1           1   3.4427695674988316E-002           1      205939           0
</event>
<event>
      5   9999  3.19816E-02  2.21871E+02 -1.00000E+00  1.10032E-01
      -1    -1     0     0     0   501  0.000000000E+00  0.000000000E+00  1.081612874E+03  1.081612874E+03  0.000000000E+00  0.00000E+00  9.000E+00
      21    -1     0     0   501   502  0.000000000E+00  0.000000000E+00 -1.180987329E+02  1.180987329E+02  0.000000000E+00  0.00000E+00  9.000E+00
      25     1     1     2     0     0  2.249581744E+01  1.395214097E+02  5.194437010E+02  5.526473053E+02  1.250000000E+02  0.00000E+00  9.000E+00
      25     1     1     2     0     0 -1.737389360E+02  2.281267009E+01  3.390244409E+02  4.015821302E+02  1.250000000E+02  0.00000E+00  9.000E+00
      -1     1     1     2     0   502  1.512431185E+02 -1.623340798E+02  1.050459988E+02  2.454821709E+02  4.672030912E-06  0.00000E+00  9.000E+00
#rwgt            1           1   3.0125631456559651E-002           1      206044           0
</event>
<event>
      5   9999  3.19816E-02  7.34138E+01 -1.00000E+00  1.30182E-01
       2    -1     0     0   502     0  0.000000000E+00  0.000000000E+00  3.490007718E+02  3.490007718E+02  0.000000000E+00  0.00000E+00  9.000E+00
      21    -1     0     0   501   502  0.000000000E+00  0.000000000E+00 -9.431105799E+02  9.431105799E+02  0.000000000E+00  0.00000E+00  9.000E+00
      25     1     1     2     0     0  1.221873751E+02 -4.527986730E+01 -8.513329374E+02  8.702716767E+02  1.250000000E+02  0.00000E+00  9.000E+00
      25     1     1     2     0     0 -1.905051379E+02  1.840483450E+01  1.023802817E+02  2.504748841E+02  1.250000000E+02  0.00000E+00  9.000E+00
       2     1     1     2   501     0  6.831776283E+01  2.687503280E+01  1.548428476E+02  1.713647909E+02  4.672030912E-06  0.00000E+00  9.000E+00
#rwgt            1           1   2.8934457248286683E-002           1      206083           0
</event>
<event>
      5   9999  3.19816E-02  6.81184E+01 -1.00000E+00  1.31823E-01
       4    -1     0     0   502     0  0.000000000E+00  0.000000000E+00  1.313921088E+02  1.313921088E+02  0.000000000E+00  0.00000E+00  9.000E+00
      21    -1     0     0   501   502  0.000000000E+00  0.000000000E+00 -1.041401282E+03  1.041401282E+03  0.000000000E+00  0.00000E+00  9.000E+00
      25     1     1     2     0     0  2.020623484E+02  2.591851313E+02 -3.572280089E+02  5.012414341E+02  1.250000000E+02  0.00000E+00  9.000E+00
      25     1     1     2     0     0 -2.027447494E+02 -1.910701857E+02 -3.916706762E+02  4.966328300E+02  1.250000000E+02  0.00000E+00  9.000E+00
       4     1     1     2   501     0  6.824009626E-01 -6.811494566E+01 -1.611104885E+02  1.749191271E+02  1.907348633E-06  0.00000E+00  9.000E+00
#rwgt            1           1   2.9471900623206388E-002           1      206166           0
</event>
<event>
      5   9999  3.19816E-02  4.27401E+01 -1.00000E+00  1.43078E-01
      21    -1     0     0   502   501  0.000000000E+00  0.000000000E+00  1.057489985E+03  1.057489985E+03  0.000000000E+00  0.00000E+00  9.000E+00
      21    -1     0     0   501   511  0.000000000E+00  0.000000000E+00 -1.082573516E+02  1.082573516E+02  0.000000000E+00  0.00000E+00  9.000E+00
      25     1     1     2     0     0 -8.243524126E+00  1.165485371E+02  8.796834064E+02  8.961692991E+02  1.250000000E+02  0.00000E+00  9.000E+00
      25     1     1     2     0     0  1.643196645E+01 -7.460020377E+01  1.297881695E+02  1.957170633E+02  1.250000000E+02  0.00000E+00  9.000E+00
      21     1     1     2   502   511 -8.188442325E+00 -4.194833329E+01 -6.023894278E+01  7.386097400E+01  2.697398305E-06  0.00000E+00  9.000E+00
#rwgt            1           1   3.2365938590677767E-002           1      206241           0
</event>
<event>
      5   9999  3.19816E-02  6.01940E+01 -1.00000E+00  1.34629E-01
      21    -1     0     0   502   501  0.000000000E+00  0.000000000E+00  7.370280929E+02  7.370280929E+02  0.000000000E+00  0.00000E+00  9.000E+00
      21    -1     0     0   512   502  0.000000000E+00  0.000000000E+00 -3.247880136E+03  3.247880136E+03  0.000000000E+00  0.00000E+00  9.000E+00
      25     1     1     2     0     0 -8.783388988E+02 -9.599700427E+02 -3.059574396E+02  1.342481530E+03  1.250000000E+02  0.00000E+00  9.000E+00
      25     1     1     2     0     0  8.369683496E+02  1.003694117E+03 -1.771857722E+03  2.205226221E+03  1.250000000E+02  0.00000E+00  9.000E+00
      21     1     1     2   512   501  4.137054928E+01 -4.372407428E+01 -4.330368808E+02  4.372004771E+02  0.000000000E+00  0.00000E+00  9.000E+00
#rwgt            1           1   4.0120673756640683E-002           1      206320           0
</event>
<event>
      5   9999  3.19816E-02  5.72151E+01 -1.00000E+00  1.35816E-01
      21    -1     0     0   502   501  0.000000000E+00  0.000000000E+00  4.380274015E+02  4.380274015E+02  0.000000000E+00  0.00000E+00  9.000E+00
      21    -1     0     0   501   511  0.000000000E+00  0.000000000E+00 -4.774438112E+02  4.774438112E+02  0.000000000E+00  0.00000E+00  9.000E+00
      25     1     1     2     0     0 -2.595410986E+02  8.186627125E+01 -1.091654543E+02  3.187565916E+02  1.250000000E+02  0.00000E+00  9.000E+00
      25     1     1     2     0     0  3.083191080E+02 -5.196185420E+01  2.423533753E+02  4.148745174E+02  1.250000000E+02  0.00000E+00  9.000E+00
      21     1     1     2   502   511 -4.877800940E+01 -2.990441705E+01 -1.726043307E+02  1.818401037E+02  3.814697266E-06  0.00000E+00  9.000E+00
#rwgt            1           1   3.0689964343533788E-002           1      206493           0
</event>
<event>
      5   9999  3.19816E-02  4.04481E+01 -1.00000E+00  1.44541E-01
       1    -1     0     0   502     0  0.000000000E+00  0.000000000E+00  4.718675331E+03  4.718675331E+03  0.000000000E+00  0.00000E+00  9.000E+00
      21    -1     0     0   501   502  0.000000000E+00  0.000000000E+00 -1.494996793E+02  1.494996793E+02  0.000000000E+00  0.00000E+00  9.000E+00
      25     1     1     2     0     0  4.047882679E+02 -9.502240170E+01  3.219670401E+02  5.405280506E+02  1.250000000E+02  0.00000E+00  9.000E+00
      25     1     1     2     0     0 -4.436901036E+02  8.394563016E+01  1.329296060E+03  1.409454076E+03  1.250000000E+02  0.00000E+00  9.000E+00
       1     1     1     2   501     0  3.890183575E+01  1.107677153E+01  2.917912552E+03  2.918192884E+03  0.000000000E+00  0.00000E+00  9.000E+00
#rwgt            1           1   3.1324807611331655E-002           1      206571           0
</event>
<event>
      5   9999  3.19816E-02  2.31034E+01 -1.00000E+00  1.61361E-01
      21    -1     0     0   502   511  0.000000000E+00  0.000000000E+00  2.124014446E+03  2.124014446E+03  0.000000000E+00  0.00000E+00  9.000E+00
      21    -1     0     0   501   502  0.000000000E+00  0.000000000E+00 -4.154169008E+02  4.154169008E+02  0.000000000E+00  0.00000E+00  9.000E+00
      25     1     1     2     0     0  4.478626504E+02  3.964206765E+02 -9.764918277E+01  6.187816006E+02  1.250000000E+02  0.00000E+00  9.000E+00
      25     1     1     2     0     0 -4.476178062E+02 -4.195227975E+02  1.692709472E+03  1.804785704E+03  1.250000000E+02  0.00000E+00  9.000E+00
      21     1     1     2   501   511 -2.448442052E-01  2.310212098E+01  1.135372560E+02  1.158640429E+02  1.907348633E-06  0.00000E+00  9.000E+00
#rwgt            1           1   3.2082645732844854E-002           1      206752           0
</event>
<event>
      5   9999  3.19816E-02  1.83218E+02 -1.00000E+00  1.13051E-01
      21    -1     0     0   502   501  0.000000000E+00  0.000000000E+00  7.152941431E+02  7.152941431E+02  0.000000000E+00  0.00000E+00  9.000E+00
      21    -1     0     0   512   502  0.000000000E+00  0.000000000E+00 -8.625520516E+02  8.625520516E+02  0.000000000E+00  0.00000E+00  9.000E+00
      25     1     1     2     0     0 -4.056206663E+01 -1.552074469E+02 -1.186402683E+01  2.037164400E+02  1.250000000E+02  0.00000E+00  9.000E+00
      25     1     1     2     0     0 -4.594587171E+01 -6.301805114E+00  6.008327906E+02  6.154476242E+02  1.250000000E+02  0.00000E+00  9.000E+00
      21     1     1     2   512   501  8.650793834E+01  1.615092520E+02 -7.362266723E+02  7.586821304E+02  0.000000000E+00  0.00000E+00  9.000E+00
#rwgt            1           1   2.7839131485751203E-002           1      206955           0
</event>
<event>
      5   9999  3.19816E-02  1.00650E+02 -1.00000E+00  1.23702E-01
       2    -1     0     0   502     0  0.000000000E+00  0.000000000E+00  1.370341110E+03  1.370341110E+03  0.000000000E+00  0.00000E+00  9.000E+00
      21    -1     0     0   501   502  0.000000000E+00  0.000000000E+00 -2.195228339E+02  2.195228339E+02  0.000000000E+00  0.00000E+00  9.000E+00
      25     1     1     2     0     0  6.961408994E+01 -2.511846935E+02  2.026690536E+02  3.530433643E+02  1.250000000E+02  0.00000E+00  9.000E+00
      25     1     1     2     0     0 -1.681024192E+02  2.304377373E+02  2.966023690E+01  3.128333482E+02  1.250000000E+02  0.00000E+00  9.000E+00
       2     1     1     2   501     0  9.848832930E+01  2.074695625E+01  9.184889854E+02  9.239872312E+02  1.868812365E-05  0.00000E+00  9.000E+00
#rwgt            1           1   1.8870119995432640E-002           1      206993           0
</event>
<event>
      5   9999  3.19816E-02  1.44752E+01 -1.00000E+00  1.78853E-01
      21    -1     0     0   502   511  0.000000000E+00  0.000000000E+00  4.160236985E+02  4.160236985E+02  0.000000000E+00  0.00000E+00  9.000E+00
      21    -1     0     0   501   502  0.000000000E+00  0.000000000E+00 -5.152849884E+02  5.152849884E+02  0.000000000E+00  0.00000E+00  9.000E+00
      25     1     1     2     0     0  2.388194859E+02 -3.567827857E+02 -1.480963770E+02  4.710480229E+02  1.250000000E+02  0.00000E+00  9.000E+00
      25     1     1     2     0     0 -2.298155479E+02  3.454486867E+02  2.713914580E+01  4.341791271E+02  1.250000000E+02  0.00000E+00  9.000E+00
      21     1     1     2   501   511 -9.003938027E+00  1.133409901E+01  2.169594136E+01  2.608153699E+01  4.768371582E-07  0.00000E+00  9.000E+00
#rwgt            1           1   2.6758488980631410E-002           1      207089           0
</event>
<event>
      5   9999  3.19816E-02  2.51251E+02 -1.00000E+00  1.08156E-01
      21    -1     0     0   502   501  0.000000000E+00  0.000000000E+00  1.678399940E+02  1.678399940E+02  0.000000000E+00  0.00000E+00  9.000E+00
       1    -1     0     0   501     0  0.000000000E+00  0.000000000E+00 -1.878523756E+03  1.878523756E+03  0.000000000E+00  0.00000E+00  9.000E+00
      25     1     1     2     0     0  2.043071742E+02  1.889041440E+02 -1.319660892E+02  3.323646277E+02  1.250000000E+02  0.00000E+00  9.000E+00
      25     1     1     2     0     0 -3.739684184E+02 -3.587959219E+00 -1.165429551E+03  1.230331780E+03  1.250000000E+02  0.00000E+00  9.000E+00
       1     1     1     2   502     0  1.696612442E+02 -1.853161848E+02 -4.132881222E+02  4.836673424E+02  7.629394531E-06  0.00000E+00  9.000E+00
#rwgt            2          12   4.4948589313332919E-004           1      207421           0
</event>
<event>
      5   9999  3.19816E-02  2.06968E+02 -1.00000E+00  1.11109E-01
      21    -1     0     0   511   501  0.000000000E+00  0.000000000E+00  8.484669843E+02  8.484669843E+02  0.000000000E+00  0.00000E+00  9.000E+00
      21    -1     0     0   501   502  0.000000000E+00  0.000000000E+00 -2.805076379E+03  2.805076379E+03  0.000000000E+00  0.00000E+00  9.000E+00
      25     1     1     2     0     0  4.885604905E+02 -7.313208367E+02 -1.553321687E+02  9.018173882E+02  1.250000000E+02  0.00000E+00  9.000E+00
      25     1     1     2     0     0 -3.498011889E+02  5.777580954E+02 -2.198781089E+03  2.303568659E+03  1.250000000E+02  0.00000E+00  9.000E+00
      21     1     1     2   511   502 -1.387593016E+02  1.535627413E+02  3.975038628E+02  4.481573164E+02  0.000000000E+00  0.00000E+00  9.000E+00
#rwgt            1           1   3.1026669121242769E-002           1      207440           0
</event>
<event>
      5   9999  3.19816E-02  2.57233E+01 -1.00000E+00  1.57829E-01
      21    -1     0     0   512   501  0.000000000E+00  0.000000000E+00  7.747445205E+02  7.747445205E+02  0.000000000E+00  0.00000E+00  9.000E+00
      21    -1     0     0   501   502  0.000000000E+00  0.000000000E+00 -2.196108610E+02  2.196108610E+02  0.000000000E+00  0.00000E+00  9.000E+00
      25     1     1     2     0     0  2.732512122E+02 -2.440129756E+02  2.070461893E+02  4.389779969E+02  1.250000000E+02  0.00000E+00  9.000E+00
      25     1     1     2     0     0 -2.988794008E+02  2.462235283E+02  3.242223739E+02  5.202884488E+02  1.250000000E+02  0.00000E+00  9.000E+00
      21     1     1     2   512   502  2.562818860E+01 -2.210552728E+00  2.386509632E+01  3.508893582E+01  3.371747881E-07  0.00000E+00  9.000E+00
#rwgt            1           1   2.6639233255400373E-002           1      207518           0
</event>
<event>
      5   9999  3.19816E-02  2.62753E+01 -1.00000E+00  1.57149E-01
      21    -1     0     0   502   511  0.000000000E+00  0.000000000E+00  3.007647078E+02  3.007647078E+02  0.000000000E+00  0.00000E+00  9.000E+00
      21    -1     0     0   501   502  0.000000000E+00  0.000000000E+00 -2.953778299E+02  2.953778299E+02  0.000000000E+00  0.00000E+00  9.000E+00
      25     1     1     2     0     0 -2.552611564E+01 -2.078115093E+02  7.136617849E+01  2.540774240E+02  1.250000000E+02  0.00000E+00  9.000E+00
      25     1     1     2     0     0 -2.502760819E-01  2.129072660E+02 -1.255339682E+02  2.769717381E+02  1.250000000E+02  0.00000E+00  9.000E+00
      21     1     1     2   501   511  2.577639172E+01 -5.095756693E+00  5.955466758E+01  6.509337552E+01  0.000000000E+00  0.00000E+00  9.000E+00
#rwgt            1           1   2.6169322499702097E-002           1      207683           0
</event>
<event>
      5   9999  3.19816E-02  3.36438E+02 -1.00000E+00  1.03999E-01
      21    -1     0     0   502   501  0.000000000E+00  0.000000000E+00  6.491453186E+02  6.491453186E+02  0.000000000E+00  0.00000E+00  9.000E+00
      21    -1     0     0   512   502  0.000000000E+00  0.000000000E+00 -1.231960690E+03  1.231960690E+03  0.000000000E+00  0.00000E+00  9.000E+00
      25     1     1     2     0     0  6.349727330E+01 -2.644265934E+02  1.925007091E+02  3.558579071E+02  1.250000000E+02  0.00000E+00  9.000E+00
      25     1     1     2     0     0 -1.099075223E+02  5.976485413E+02  6.140043443E+01  6.234247795E+02  1.250000000E+02  0.00000E+00  9.000E+00
      21     1     1     2   512   501  4.641024899E+01 -3.332219478E+02 -8.367165146E+02  9.018233217E+02  0.000000000E+00  0.00000E+00  9.000E+00
#rwgt            1           1   3.1074941965086294E-002           1      207807           0
</event>
<event>
      5   9999  3.19816E-02  3.12230E+01 -1.00000E+00  1.51844E-01
      -5    -1     0     0     0   501  0.000000000E+00  0.000000000E+00  1.555553880E+02  1.555553880E+02  0.000000000E+00  0.00000E+00  9.000E+00
      21    -1     0     0   501   502  0.000000000E+00  0.000000000E+00 -2.474002319E+02  2.474002319E+02  0.000000000E+00  0.00000E+00  9.000E+00
      25     1     1     2     0     0 -5.852063521E+01 -2.802835159E+01  4.701322118E+01  1.484772582E+02  1.250000000E+02  0.00000E+00  9.000E+00
      25     1     1     2     0     0  3.544685340E+01  6.993186250E+00 -1.675051743E+02  2.121046145E+02  1.250000000E+02  0.00000E+00  9.000E+00
      -5     1     1     2     0   502  2.307378181E+01  2.103516534E+01  2.864710927E+01  4.237374726E+01  6.743495762E-07  0.00000E+00  9.000E+00
#rwgt            1           1   2.7090499106415703E-002           1      207858           0
</event>
<event>
      5   9999  3.19816E-02  9.92123E+01 -1.00000E+00  1.23983E-01
      21    -1     0     0   511   501  0.000000000E+00  0.000000000E+00  8.564844058E+02  8.564844058E+02  0.000000000E+00  0.00000E+00  9.000E+00
      21    -1     0     0   501   502  0.000000000E+00  0.000000000E+00 -2.083532023E+02  2.083532023E+02  0.000000000E+00  0.00000E+00  9.000E+00
      25     1     1     2     0     0  2.059578133E+02 -1.224723596E+01 -9.877554959E+01  2.606726393E+02  1.250000000E+02  0.00000E+00  9.000E+00
      25     1     1     2     0     0 -1.220791741E+02  6.523268044E+01  5.876240064E+02  6.165108273E+02  1.250000000E+02  0.00000E+00  9.000E+00
      21     1     1     2   511   502 -8.387863926E+01 -5.298544448E+01  1.592827466E+02  1.876541415E+02  2.697398305E-06  0.00000E+00  9.000E+00
#rwgt            1           1   2.8073471368019489E-002           1      207973           0
</event>
<event>
      5   9999  3.19816E-02  1.86494E+01 -1.00000E+00  1.68914E-01
      21    -1     0     0   502   501  0.000000000E+00  0.000000000E+00  1.576372273E+03  1.576372273E+03  0.000000000E+00  0.00000E+00  9.000E+00
      21    -1     0     0   512   502  0.000000000E+00  0.000000000E+00 -1.922687040E+02  1.922687040E+02  0.000000000E+00  0.00000E+00  9.000E+00
      25     1     1     2     0     0 -1.176517745E+02  3.007820651E+02  1.896619691E+02  3.948524449E+02  1.250000000E+02  0.00000E+00  9.000E+00
      25     1     1     2     0     0  1.312235956E+02 -2.879911835E+02  1.260255139E+03  1.305383687E+03  1.250000000E+02  0.00000E+00  9.000E+00
      21     1     1     2   512   501 -1.357182108E+01 -1.279088164E+01 -6.581353900E+01  6.840484556E+01  1.907348633E-06  0.00000E+00  9.000E+00
#rwgt            1           1   2.5849860898910098E-002           1      208061           0
</event>
<event>
      5   9999  3.19816E-02  1.75491E+02 -1.00000E+00  1.13755E-01
      21    -1     0     0   502   501  0.000000000E+00  0.000000000E+00  4.721117095E+02  4.721117095E+02  0.000000000E+00  0.00000E+00  9.000E+00
      21    -1     0     0   511   502  0.000000000E+00  0.000000000E+00 -2.834889197E+02  2.834889197E+02  0.000000000E+00  0.00000E+00  9.000E+00
      25     1     1     2     0     0 -9.638514603E+01 -5.701202660E+00  5.951717327E+01  1.687894961E+02  1.250000000E+02  0.00000E+00  9.000E+00
      25     1     1     2     0     0  2.434562791E+02 -9.004383797E+01  2.435894671E+02  3.772793144E+02  1.250000000E+02  0.00000E+00  9.000E+00
      21     1     1     2   511   501 -1.470711330E+02  9.574504063E+01 -1.144838506E+02  2.095318187E+02  4.264961200E-06  0.00000E+00  9.000E+00
#rwgt            1           1   2.7658827786853104E-002           1      208234           0
</event>
<event>
      5   9999  3.19816E-02  1.21470E+02 -1.00000E+00  1.20144E-01
      21    -1     0     0   502   501  0.000000000E+00  0.000000000E+00  1.944890523E+02  1.944890523E+02  0.000000000E+00  0.00000E+00  9.000E+00
      21    -1     0     0   501   512  0.000000000E+00  0.000000000E+00 -2.554687958E+03  2.554687958E+03  0.000000000E+00  0.00000E+00  9.000E+00
      25     1     1     2     0     0  2.470661805E+02 -2.592634170E+02 -9.067173874E+02  9.828634888E+02  1.250000000E+02  0.00000E+00  9.000E+00
      25     1     1     2     0     0 -1.376801790E+02  3.120797664E+02 -6.078921236E+01  3.683340069E+02  1.250000000E+02  0.00000E+00  9.000E+00
      21     1     1     2   502   512 -1.093860015E+02 -5.281634941E+01 -1.392692306E+03  1.397979514E+03  1.525878906E-05  0.00000E+00  9.000E+00
#rwgt            1           1   3.1771660968245130E-002           1      208336           0
</event>
<event>
      5   9999  3.19816E-02  1.83750E+01 -1.00000E+00  1.69464E-01
       2    -1     0     0   502     0  0.000000000E+00  0.000000000E+00  1.184078729E+03  1.184078729E+03  0.000000000E+00  0.00000E+00  9.000E+00
      21    -1     0     0   501   502  0.000000000E+00  0.000000000E+00 -4.904543059E+02  4.904543059E+02  0.000000000E+00  0.00000E+00  9.000E+00
      25     1     1     2     0     0 -2.756892862E+02  1.096403169E+02  7.464291283E+02  8.129003784E+02  1.250000000E+02  0.00000E+00  9.000E+00
      25     1     1     2     0     0  2.664017828E+02 -1.254953310E+02 -4.009866660E+02  5.129661726E+02  1.250000000E+02  0.00000E+00  9.000E+00
       2     1     1     2   501     0  9.287503416E+00  1.585501409E+01  3.481819605E+02  3.486664837E+02  0.000000000E+00  0.00000E+00  9.000E+00
#rwgt            1           1   2.8677559667784739E-002           1      208427           0
</event>
<event>
      5   9999  3.19816E-02  6.86733E+01 -1.00000E+00  1.31643E-01
      21    -1     0     0   502   511  0.000000000E+00  0.000000000E+00  3.161977087E+02  3.161977087E+02  0.000000000E+00  0.00000E+00  9.000E+00
      21    -1     0     0   501   502  0.000000000E+00  0.000000000E+00 -4.474356097E+02  4.474356097E+02  0.000000000E+00  0.00000E+00  9.000E+00
      25     1     1     2     0     0 -4.248928206E+01  1.382852578E+02  3.603472348E+01  1.945550126E+02  1.250000000E+02  0.00000E+00  9.000E+00
      25     1     1     2     0     0  9.870215413E+01 -9.883729387E+01 -3.372007359E+02  3.857982144E+02  1.250000000E+02  0.00000E+00  9.000E+00
      21     1     1     2   501   511 -5.621287207E+01 -3.944796395E+01  1.699281114E+02  1.832800914E+02  2.697398305E-06  0.00000E+00  9.000E+00
#rwgt            1           1   2.6036145644378915E-002           1      208627           0
</event>
<event>
      5   9999  3.19816E-02  5.47800E+01 -1.00000E+00  1.36850E-01
      21    -1     0     0   502   501  0.000000000E+00  0.000000000E+00  9.559213393E+02  9.559213393E+02  0.000000000E+00  0.00000E+00  9.000E+00
       2    -1     0     0   501     0  0.000000000E+00  0.000000000E+00 -7.062180365E+02  7.062180365E+02  0.000000000E+00  0.00000E+00  9.000E+00
      25     1     1     2     0     0  2.808327446E+02  3.267012656E+02  3.232572392E+02  5.529204193E+02  1.250000000E+02  0.00000E+00  9.000E+00
      25     1     1     2     0     0 -2.403360049E+02 -3.635911861E+02  4.167613463E+02  6.158530390E+02  1.250000000E+02  0.00000E+00  9.000E+00
       2     1     1     2   502     0 -4.049673976E+01  3.688992051E+01 -4.903152827E+02  4.933659175E+02  9.344061824E-06  0.00000E+00  9.000E+00
#rwgt            1           1   2.8457765095091889E-002           1      208704           0
</event>
<event>
      5   9999  3.19816E-02  2.88512E+01 -1.00000E+00  1.54227E-01
      21    -1     0     0   502   501  0.000000000E+00  0.000000000E+00  2.462300652E+03  2.462300652E+03  0.000000000E+00  0.00000E+00  9.000E+00
      21    -1     0     0   501   511  0.000000000E+00  0.000000000E+00 -2.294803015E+01  2.294803015E+01  0.000000000E+00  0.00000E+00  9.000E+00
      25     1     1     2     0     0 -1.487516643E+02 -7.333777114E+01  1.389303674E+03  1.404740255E+03  1.250000000E+02  0.00000E+00  9.000E+00
      25     1     1     2     0     0  1.226289649E+02  8.558517086E+01  1.021471116E+03  1.039899479E+03  1.250000000E+02  0.00000E+00  9.000E+00
      21     1     1     2   502   511  2.612269940E+01 -1.224739972E+01  2.857783226E+01  4.060894877E+01  6.743495762E-07  0.00000E+00  9.000E+00
#rwgt            1           1   4.7688071863806331E-002           1      208814           0
</event>
<event>
      5   9999  3.19816E-02  2.11086E+01 -1.00000E+00  1.64459E-01
      21    -1     0     0   502   512  0.000000000E+00  0.000000000E+00  3.138769973E+02  3.138769973E+02  0.000000000E+00  0.00000E+00  9.000E+00
      21    -1     0     0   501   502  0.000000000E+00  0.000000000E+00 -1.259429013E+02  1.259429013E+02  0.000000000E+00  0.00000E+00  9.000E+00
      25     1     1     2     0     0  7.084013853E+01 -9.422665636E+01  7.786860017E+01  1.886412121E+02  1.250000000E+02  0.00000E+00  9.000E+00
      25     1     1     2     0     0 -8.875500970E+01  1.053905297E+02  5.779562268E+01  1.948074678E+02  1.250000000E+02  0.00000E+00  9.000E+00
      21     1     1     2   501   512  1.791487118E+01 -1.116387332E+01  5.226987313E+01  5.637121885E+01  0.000000000E+00  0.00000E+00  9.000E+00
#rwgt            1           1   2.9572329461124099E-002           1      208949           0
</event>
<event>
      5   9999  3.19816E-02  2.17267E+01 -1.00000E+00  1.63455E-01
      -3    -1     0     0     0   501  0.000000000E+00  0.000000000E+00  1.093588219E+03  1.093588219E+03  0.000000000E+00  0.00000E+00  9.000E+00
      21    -1     0     0   501   502  0.000000000E+00  0.000000000E+00 -1.370474223E+03  1.370474223E+03  0.000000000E+00  0.00000E+00  9.000E+00
      25     1     1     2     0     0 -2.506060918E+02  1.140310671E+02 -1.272976915E+03  1.308396623E+03  1.250000000E+02  0.00000E+00  9.000E+00
      25     1     1     2     0     0  2.653356394E+02 -9.805954935E+01  2.206199654E+02  3.798905709E+02  1.250000000E+02  0.00000E+00  9.000E+00
      -3     1     1     2     0   502 -1.472954759E+01 -1.597151773E+01  7.754709449E+02  7.757752479E+02  1.078959322E-05  0.00000E+00  9.000E+00
#rwgt            1           1   2.7322274630382323E-002           1      209076           0
</event>
<event>
      5   9999  3.19816E-02  6.68002E+01 -1.00000E+00  1.32258E-01
       5    -1     0     0   502     0  0.000000000E+00  0.000000000E+00  2.046386899E+03  2.046386899E+03  0.000000000E+00  0.00000E+00  9.000E+00
      21    -1     0     0   501   502  0.000000000E+00  0.000000000E+00 -1.922370681E+02  1.922370681E+02  0.000000000E+00  0.00000E+00  9.000E+00
      25     1     1     2     0     0 -3.509937969E+02 -2.769393176E+02  2.002304559E+02  5.055781508E+02  1.250000000E+02  0.00000E+00  9.000E+00
      25     1     1     2     0     0  2.952687721E+02  3.137766079E+02  1.379606669E+03  1.450716708E+03  1.250000000E+02  0.00000E+00  9.000E+00
       5     1     1     2   501     0  5.572502479E+01 -3.683729035E+01  2.743127061E+02  2.823291077E+02  5.394796609E-06  0.00000E+00  9.000E+00
#rwgt            1           1   2.8897206353876548E-002           1      209250           0
</event>
<event>
      5   9999  3.19816E-02  1.63611E+01 -1.00000E+00  1.73902E-01
      21    -1     0     0   502   511  0.000000000E+00  0.000000000E+00  4.719259531E+02  4.719259531E+02  0.000000000E+00  0.00000E+00  9.000E+00
      21    -1     0     0   501   502  0.000000000E+00  0.000000000E+00 -3.051972182E+02  3.051972182E+02  0.000000000E+00  0.00000E+00  9.000E+00
      25     1     1     2     0     0  2.739813183E+02  1.073643322E+01 -1.469886538E+01  3.016986749E+02  1.250000000E+02  0.00000E+00  9.000E+00
      25     1     1     2     0     0 -2.746492616E+02  5.611003662E+00  8.711030325E+00  3.019347319E+02  1.250000000E+02  0.00000E+00  9.000E+00
      21     1     1     2   501   511  6.679433388E-01 -1.634743688E+01  1.727165700E+02  1.734897645E+02  3.814697266E-06  0.00000E+00  9.000E+00
#rwgt            1           1   2.6128901344242735E-002           1      209343           0
</event>
<event>
      5   9999  3.19816E-02  3.91867E+01 -1.00000E+00  1.45396E-01
      21    -1     0     0   502   501  0.000000000E+00  0.000000000E+00  1.628936013E+03  1.628936013E+03  0.000000000E+00  0.00000E+00  9.000E+00
      21    -1     0     0   501   512  0.000000000E+00  0.000000000E+00 -1.387605548E+02  1.387605548E+02  0.000000000E+00  0.00000E+00  9.000E+00
      25     1     1     2     0     0 -9.518048102E+01 -1.417194060E+02  1.361852887E+03  1.378191568E+03  1.250000000E+02  0.00000E+00  9.000E+00
      25     1     1     2     0     0  1.288565633E+02  1.216814286E+02  2.081346296E+02  3.005917630E+02  1.250000000E+02  0.00000E+00  9.000E+00
      21     1     1     2   502   512 -3.367608230E+01  2.003797746E+01 -7.981205787E+01  8.891323660E+01  2.336015456E-06  0.00000E+00  9.000E+00
#rwgt            1           1   3.6380509930124295E-002           1      209541           0
</event>
<event>
      5   9999  3.19816E-02  1.15694E+02 -1.00000E+00  1.21046E-01
       1    -1     0     0   502     0  0.000000000E+00  0.000000000E+00  1.609284011E+03  1.609284011E+03  0.000000000E+00  0.00000E+00  9.000E+00
      21    -1     0     0   501   502  0.000000000E+00  0.000000000E+00 -5.343971953E+02  5.343971953E+02  0.000000000E+00  0.00000E+00  9.000E+00
      25     1     1     2     0     0 -2.234553447E+02  2.586876721E+02 -1.913261845E+02  4.111961960E+02  1.250000000E+02  0.00000E+00  9.000E+00
      25     1     1     2     0     0  1.736053041E+02 -1.542844581E+02 -1.554267996E+02  3.061453669E+02  1.250000000E+02  0.00000E+00  9.000E+00
       1     1     1     2   501     0  4.985004057E+01 -1.044032140E+02  1.421639800E+03  1.426339644E+03  1.525878906E-05  0.00000E+00  9.000E+00
#rwgt            1           1   2.6839567381464910E-002           1      209645           0
</event>
<event>
      5   9999  3.19816E-02  1.78268E+01 -1.00000E+00  1.70599E-01
      21    -1     0     0   502   501  0.000000000E+00  0.000000000E+00  6.825326133E+02  6.825326133E+02  0.000000000E+00  0.00000E+00  9.000E+00
       2    -1     0     0   501     0  0.000000000E+00  0.000000000E+00 -1.349636697E+03  1.349636697E+03  0.000000000E+00  0.00000E+00  9.000E+00
      25     1     1     2     0     0 -4.676942658E+02 -7.052772314E+01  5.099809634E+02  7.066948910E+02  1.250000000E+02  0.00000E+00  9.000E+00
      25     1     1     2     0     0  4.738362019E+02  5.379236662E+01 -7.469573245E+02  8.949774352E+02  1.250000000E+02  0.00000E+00  9.000E+00
       2     1     1     2   502     0 -6.141936108E+00  1.673535652E+01 -4.301277221E+02  4.304969836E+02  5.394796609E-06  0.00000E+00  9.000E+00
#rwgt            1           1   3.1355635071439195E-002           1      209707           0
</event>
<event>
      5   9999  3.19816E-02  2.23276E+02 -1.00000E+00  1.09935E-01
      21    -1     0     0   502   511  0.000000000E+00  0.000000000E+00  1.265070281E+02  1.265070281E+02  0.000000000E+00  0.00000E+00  9.000E+00
      21    -1     0     0   501   502  0.000000000E+00  0.000000000E+00 -1.968665471E+03  1.968665471E+03  0.000000000E+00  0.00000E+00  9.000E+00
      25     1     1     2     0     0  2.867783557E+02  8.136910341E+00 -5.726858755E+02  6.526117886E+02  1.250000000E+02  0.00000E+00  9.000E+00
      25     1     1     2     0     0 -1.385588091E+02 -1.751195407E+02 -1.170819580E+03  1.198461049E+03  1.250000000E+02  0.00000E+00  9.000E+00
      21     1     1     2   501   511 -1.482195466E+02  1.669826303E+02 -9.865298728E+01  2.440996614E+02  5.722045898E-06  0.00000E+00  9.000E+00
#rwgt            2          11   4.1656575445573451E-003           1      210005           0
</event>
<event>
      5   9999  3.19816E-02  1.77123E+02 -1.00000E+00  1.13603E-01
      21    -1     0     0   512   501  0.000000000E+00  0.000000000E+00  2.067128364E+02  2.067128364E+02  0.000000000E+00  0.00000E+00  9.000E+00
      21    -1     0     0   501   502  0.000000000E+00  0.000000000E+00 -8.141018300E+02  8.141018300E+02  0.000000000E+00  0.00000E+00  9.000E+00
      25     1     1     2     0     0 -5.412204086E+01  2.801699965E+02 -4.332221288E+02  5.336017571E+02  1.250000000E+02  0.00000E+00  9.000E+00
      25     1     1     2     0     0 -1.127830348E+02 -2.208809905E+02 -9.989134505E+01  2.951469223E+02  1.250000000E+02  0.00000E+00  9.000E+00
      21     1     1     2   512   502  1.669050757E+02 -5.928900601E+01 -7.427551971E+01  1.920659870E+02  2.697398305E-06  0.00000E+00  9.000E+00
#rwgt            2          11   3.7870122468653226E-003           1      210040           0
</event>
<event>
      5   9999  3.19816E-02  5.34874E+01 -1.00000E+00  1.37425E-01
      21    -1     0     0   502   501  0.000000000E+00  0.000000000E+00  1.740213345E+02  1.740213345E+02  0.000000000E+00  0.00000E+00  9.000E+00
      21    -1     0     0   511   502  0.000000000E+00  0.000000000E+00 -6.338245216E+02  6.338245216E+02  0.000000000E+00  0.00000E+00  9.000E+00
      25     1     1     2     0     0  2.435781201E+01 -1.572326593E+02  6.705850142E+01  2.131601623E+02  1.250000000E+02  0.00000E+00  9.000E+00
      25     1     1     2     0     0 -7.736827837E+01  1.501054320E+02 -3.343597418E+02  3.948910332E+02  1.250000000E+02  0.00000E+00  9.000E+00
      21     1     1     2   511   501  5.301046636E+01  7.127227371E+00 -1.925019467E+02  1.997946606E+02  2.697398305E-06  0.00000E+00  9.000E+00
#rwgt            1           1   2.8794805039926770E-002           1      210060           0
</event>
<event>
      5   9999  3.19816E-02  6.69582E+02 -1.00000E+00  9.53776E-02
      21    -1     0     0   512   501  0.000000000E+00  0.000000000E+00  5.405448204E+02  5.405448204E+02  0.000000000E+00  0.00000E+00  9.000E+00
      21    -1     0     0   501   502  0.000000000E+00  0.000000000E+00 -1.270550186E+03  1.270550186E+03  0.000000000E+00  0.00000E+00  9.000E+00
      25     1     1     2     0     0 -6.129696502E+02  3.137668717E+01 -5.011259978E+02  8.021649171E+02  1.250000000E+02  0.00000E+00  9.000E+00
      25     1     1     2     0     0 -2.561688611E+01  1.699877251E+02 -2.633957067E+02  3.384587860E+02  1.250000000E+02  0.00000E+00  9.000E+00
      21     1     1     2   512   502  6.385865364E+02 -2.013644123E+02  3.451633868E+01  6.704713033E+02  7.747686772E-06  0.00000E+00  9.000E+00
#rwgt            1           1   2.7702517554120554E-002           1      210167           0
</event>
<event>
      5   9999  3.19816E-02  3.02112E+02 -1.00000E+00  1.05493E-01
      21    -1     0     0   502   501  0.000000000E+00  0.000000000E+00  3.307977041E+02  3.307977041E+02  0.000000000E+00  0.00000E+00  9.000E+00
       2    -1     0     0   501     0  0.000000000E+00  0.000000000E+00 -7.123345496E+02  7.123345496E+02  0.000000000E+00  0.00000E+00  9.000E+00
      25     1     1     2     0     0 -1.088503858E+01 -1.582329548E+02  6.493929753E+00  2.020478240E+02  1.250000000E+02  0.00000E+00  9.000E+00
      25     1     1     2     0     0 -2.127623905E+02  3.613425893E+02 -1.742393237E+02  4.709783897E+02  1.250000000E+02  0.00000E+00  9.000E+00
       2     1     1     2   502     0  2.236474290E+02 -2.031096344E+02 -2.137914515E+02  3.701060400E+02  5.394796609E-06  0.00000E+00  9.000E+00
#rwgt            1           1   2.8294917638748980E-002           1      210197           0
</event>
<event>
      5   9999  3.19816E-02  9.19582E+01 -1.00000E+00  1.25488E-01
      21    -1     0     0   502   511  0.000000000E+00  0.000000000E+00  8.432281108E+01  8.432281108E+01  0.000000000E+00  0.00000E+00  9.000E+00
      21    -1     0     0   501   502  0.000000000E+00  0.000000000E+00 -1.588689891E+03  1.588689891E+03  0.000000000E+00  0.00000E+00  9.000E+00
      25     1     1     2     0     0 -5.653811752E+01  1.340812261E+02 -9.686008764E+02  9.874142958E+02  1.250000000E+02  0.00000E+00  9.000E+00
      25     1     1     2     0     0  2.976776489E+01 -2.220565660E+02 -5.353384578E+02  5.936392025E+02  1.250000000E+02  0.00000E+00  9.000E+00
      21     1     1     2   501   511  2.677035263E+01  8.797533998E+01 -4.277459439E-01  9.195920395E+01  2.684251973E-06  0.00000E+00  9.000E+00
#rwgt            1           1   3.2801043445262426E-002           1      210249           0
</event>
<event>
      5   9999  3.19816E-02  8.70075E+00 -1.00000E+00  2.03014E-01
      21    -1     0     0   512   501  0.000000000E+00  0.000000000E+00  1.104800722E+03  1.104800722E+03  0.000000000E+00  0.00000E+00  9.000E+00
      21    -1     0     0   501   502  0.000000000E+00  0.000000000E+00 -6.048191078E+01  6.048191078E+01  0.000000000E+00  0.00000E+00  9.000E+00
      25     1     1     2     0     0  2.195682553E+01 -4.074935249E+01  2.512002349E+01  1.356415405E+02  1.250000000E+02  0.00000E+00  9.000E+00
      25     1     1     2     0     0 -2.032491198E+01  4.929568731E+01  9.859980054E+02  9.953191616E+02  1.250000000E+02  0.00000E+00  9.000E+00
      21     1     1     2   512   502 -1.631913549E+00 -8.546334818E+00  3.320078232E+01  3.432193070E+01  4.768371582E-07  0.00000E+00  9.000E+00
#rwgt            1           1   2.6578384112565068E-002           1      210327           0
</event>
<event>
      5   9999  3.19816E-02  4.61089E+01 -1.00000E+00  1.41113E-01
      21    -1     0     0   511   501  0.000000000E+00  0.000000000E+00  9.448336430E+02  9.448336430E+02  0.000000000E+00  0.00000E+00  9.000E+00
      21    -1     0     0   501   502  0.000000000E+00  0.000000000E+00 -8.472364082E+01  8.472364082E+01  0.000000000E+00  0.00000E+00  9.000E+00
      25     1     1     2     0     0 -5.566484560E+01 -1.776912292E+02  1.303570799E+02  2.594045417E+02  1.250000000E+02  0.00000E+00  9.000E+00
      25     1     1     2     0     0  7.590176715E+01  1.362606004E+02  5.814460348E+02  6.148434930E+02  1.250000000E+02  0.00000E+00  9.000E+00
      21     1     1     2   511   502 -2.023692155E+01  4.143062879E+01  1.483068875E+02  1.553092492E+02  1.907348633E-06  0.00000E+00  9.000E+00
#rwgt            1           1   2.7220904458053866E-002           1      210621           0
</event>
<event>
      5   9999  3.19816E-02  6.20565E+01 -1.00000E+00  1.33926E-01
      21    -1     0     0   502   512  0.000000000E+00  0.000000000E+00  2.234615454E+02  2.234615454E+02  0.000000000E+00  0.00000E+00  9.000E+00
      21    -1     0     0   501   502  0.000000000E+00  0.000000000E+00 -7.549624432E+02  7.549624432E+02  0.000000000E+00  0.00000E+00  9.000E+00
      25     1     1     2     0     0 -1.933110370E+02 -2.282075132E+01 -1.878554189E+02  2.980010103E+02  1.250000000E+02  0.00000E+00  9.000E+00
      25     1     1     2     0     0  1.893629523E+02  8.475150459E+01 -4.760900915E+02  5.341609500E+02  1.250000000E+02  0.00000E+00  9.000E+00
      21     1     1     2   501   512  3.948084670E+00 -6.193075327E+01  1.324446125E+02  1.462620284E+02  1.907348633E-06  0.00000E+00  9.000E+00
#rwgt            1           1   3.2473346483500684E-002           1      210751           0
</event>
<event>
      5   9999  3.19816E-02  1.71555E+02 -1.00000E+00  1.14129E-01
      21    -1     0     0   502   501  0.000000000E+00  0.000000000E+00  1.245249345E+03  1.245249345E+03  0.000000000E+00  0.00000E+00  9.000E+00
      21    -1     0     0   501   511  0.000000000E+00  0.000000000E+00 -7.496358021E+02  7.496358021E+02  0.000000000E+00  0.00000E+00  9.000E+00
      25     1     1     2     0     0  3.395049500E+02  2.589610494E+02  1.830865740E+02  4.811134271E+02  1.250000000E+02  0.00000E+00  9.000E+00
      25     1     1     2     0     0 -3.149628026E+02 -8.917054663E+01  8.660628817E+02  9.342605999E+02  1.250000000E+02  0.00000E+00  9.000E+00
      21     1     1     2   502   511 -2.454214743E+01 -1.697905028E+02 -5.535359126E+02  5.795111202E+02  7.629394531E-06  0.00000E+00  9.000E+00
#rwgt            1           1   2.8429891471688770E-002           1      210801           0
</event>
<event>
      5   9999  3.19816E-02  2.76695E+01 -1.00000E+00  1.55520E-01
      21    -1     0     0   502   501  0.000000000E+00  0.000000000E+00  1.670333844E+03  1.670333844E+03  0.000000000E+00  0.00000E+00  9.000E+00
      21    -1     0     0   501   512  0.000000000E+00  0.000000000E+00 -1.031096488E+02  1.031096488E+02  0.000000000E+00  0.00000E+00  9.000E+00
      25     1     1     2     0     0 -1.543576482E+02  3.830300530E+01  1.535166472E+03  1.548436147E+03  1.250000000E+02  0.00000E+00  9.000E+00
      25     1     1     2     0     0  1.268599355E+02 -3.522412319E+01 -1.449388115E+00  1.815524244E+02  1.250000000E+02  0.00000E+00  9.000E+00
      21     1     1     2   502   512  2.749771267E+01 -3.078882113E+00  3.350711159E+01  4.345492198E+01  0.000000000E+00  0.00000E+00  9.000E+00
#rwgt            1           1   3.1364033090676320E-002           1      210887           0
</event>
<event>
      5   9999  3.19816E-02  9.84385E+01 -1.00000E+00  1.24136E-01
      21    -1     0     0   511   501  0.000000000E+00  0.000000000E+00  5.298923148E+02  5.298923148E+02  0.000000000E+00  0.00000E+00  9.000E+00
      21    -1     0     0   501   502  0.000000000E+00  0.000000000E+00 -2.099356259E+03  2.099356259E+03  0.000000000E+00  0.00000E+00  9.000E+00
      25     1     1     2     0     0  4.645280130E+02 -7.914087991E+02 -4.342219374E+02  1.022882131E+03  1.250000000E+02  0.00000E+00  9.000E+00
      25     1     1     2     0     0 -5.196530454E+02  8.729647796E+02 -1.098018676E+03  1.501125180E+03  1.250000000E+02  0.00000E+00  9.000E+00
      21     1     1     2   511   502  5.512503236E+01 -8.155598049E+01 -3.722333140E+01  1.052412635E+02  1.581489940E-06  0.00000E+00  9.000E+00
#rwgt            1           1   4.2733265694204603E-002           1      211049           0
</event>
<event>
      5   9999  3.19816E-02  1.39096E+02 -1.00000E+00  1.17708E-01
      21    -1     0     0   502   512  0.000000000E+00  0.000000000E+00  1.247355727E+03  1.247355727E+03  0.000000000E+00  0.00000E+00  9.000E+00
      21    -1     0     0   501   502  0.000000000E+00  0.000000000E+00 -7.529992016E+02  7.529992016E+02  0.000000000E+00  0.00000E+00  9.000E+00
      25     1     1     2     0     0 -2.103236190E+02  2.018160103E+02 -1.616689649E+02  3.559881752E+02  1.250000000E+02  0.00000E+00  9.000E+00
      25     1     1     2     0     0  2.929959439E+02 -3.136776163E+02 -3.874912188E+02  5.916204144E+02  1.250000000E+02  0.00000E+00  9.000E+00
      21     1     1     2   501   512 -8.267232496E+01  1.118616060E+02  1.043516709E+03  1.052746339E+03  1.525878906E-05  0.00000E+00  9.000E+00
#rwgt            1           1   2.9670209001525664E-002           1      211141           0
</event>
<event>
      5   9999  3.19816E-02  4.72791E+01 -1.00000E+00  1.40476E-01
       2    -1     0     0   502     0  0.000000000E+00  0.000000000E+00  2.708327257E+03  2.708327257E+03  0.000000000E+00  0.00000E+00  9.000E+00
      21    -1     0     0   501   502  0.000000000E+00  0.000000000E+00 -1.214324058E+02  1.214324058E+02  0.000000000E+00  0.00000E+00  9.000E+00
      25     1     1     2     0     0  2.840314909E+02 -1.610960418E+02  2.659041384E+02  4.392673825E+02  1.250000000E+02  0.00000E+00  9.000E+00
      25     1     1     2     0     0 -3.287130985E+02  1.456407031E+02  1.021070586E+03  1.089712649E+03  1.250000000E+02  0.00000E+00  9.000E+00
       2     1     1     2   501     0  4.468160765E+01  1.545533870E+01  1.299920127E+03  1.300779632E+03  1.525878906E-05  0.00000E+00  9.000E+00
#rwgt            1           1   2.7107876323752177E-002           1      211181           0
</event>
<event>
      5   9999  3.19816E-02  1.00951E+02 -1.00000E+00  1.23643E-01
      21    -1     0     0   502   501  0.000000000E+00  0.000000000E+00  2.048758036E+03  2.048758036E+03  0.000000000E+00  0.00000E+00  9.000E+00
      21    -1     0     0   501   511  0.000000000E+00  0.000000000E+00 -1.400695615E+02  1.400695615E+02  0.000000000E+00  0.00000E+00  9.000E+00
      25     1     1     2     0     0  2.193780782E+02 -3.670239296E+02  1.007687336E+03  1.101767704E+03  1.250000000E+02  0.00000E+00  9.000E+00
      25     1     1     2     0     0 -3.145186938E+02  3.332680751E+02  8.505777039E+02  9.742161203E+02  1.250000000E+02  0.00000E+00  9.000E+00
      21     1     1     2   502   511  9.514061562E+01  3.375585449E+01  5.042343483E+01  1.128437736E+02  2.780414531E-06  0.00000E+00  9.000E+00
#rwgt            2          11   5.1324176961098358E-003           1      211373           0
</event>
<event>
      5   9999  3.19816E-02  2.72099E+01 -1.00000E+00  1.56044E-01
      21    -1     0     0   512   501  0.000000000E+00  0.000000000E+00  6.410463878E+02  6.410463878E+02  0.000000000E+00  0.00000E+00  9.000E+00
      21    -1     0     0   501   502  0.000000000E+00  0.000000000E+00 -5.897383392E+02  5.897383392E+02  0.000000000E+00  0.00000E+00  9.000E+00
      25     1     1     2     0     0 -5.668705436E+02  8.440902394E+01  9.650807275E+01  5.944795241E+02  1.250000000E+02  0.00000E+00  9.000E+00
      25     1     1     2     0     0  5.900932300E+02 -7.022861569E+01 -4.669269032E+01  6.090544195E+02  1.250000000E+02  0.00000E+00  9.000E+00
      21     1     1     2   512   502 -2.322268645E+01 -1.418040825E+01  1.492666175E+00  2.725078341E+01  3.365155992E-07  0.00000E+00  9.000E+00
#rwgt            1           1   3.1755092762136498E-002           1      211393           0
</event>
<event>
      5   9999  3.19816E-02  2.08880E+01 -1.00000E+00  1.64827E-01
      21    -1     0     0   502   511  0.000000000E+00  0.000000000E+00  3.294506926E+03  3.294506926E+03  0.000000000E+00  0.00000E+00  9.000E+00
      21    -1     0     0   501   502  0.000000000E+00  0.000000000E+00 -8.008678606E+01  8.008678606E+01  0.000000000E+00  0.00000E+00  9.000E+00
      25     1     1     2     0     0  2.409876183E+02  3.464380498E+02  8.954657311E+02  9.977866657E+02  1.250000000E+02  0.00000E+00  9.000E+00
      25     1     1     2     0     0 -2.538435120E+02 -3.629011185E+02  1.815244724E+03  1.872664455E+03  1.250000000E+02  0.00000E+00  9.000E+00
      21     1     1     2   501   511  1.285589367E+01  1.646306866E+01  5.037096845E+02  5.041425919E+02  5.394796609E-06  0.00000E+00  9.000E+00
#rwgt            1           1   5.8425470016013496E-002           1      211527           0
</event>
<event>
      5   9999  3.19816E-02  1.57235E+01 -1.00000E+00  1.75478E-01
      21    -1     0     0   502   501  0.000000000E+00  0.000000000E+00  6.956189719E+02  6.956189719E+02  0.000000000E+00  0.00000E+00  9.000E+00
      21    -1     0     0   501   512  0.000000000E+00  0.000000000E+00 -9.671588460E+01  9.671588460E+01  0.000000000E+00  0.00000E+00  9.000E+00
      25     1     1     2     0     0  2.017459931E+02  5.754681964E+01  3.403795011E+02  4.189227697E+02  1.250000000E+02  0.00000E+00  9.000E+00
      25     1     1     2     0     0 -1.914406126E+02 -6.942236575E+01  2.646311717E+02  3.565440086E+02  1.250000000E+02  0.00000E+00  9.000E+00
      21     1     1     2   502   512 -1.030538046E+01  1.187554611E+01 -6.107585538E+00  1.686807823E+01  3.039252468E-07  0.00000E+00  9.000E+00
#rwgt            1           1   3.0640977067126658E-002           1      211654           0
</event>
<event>
      5   9999  3.19816E-02  6.34946E+02 -1.00000E+00  9.59909E-02
       1    -1     0     0   502     0  0.000000000E+00  0.000000000E+00  2.828661202E+03  2.828661202E+03  0.000000000E+00  0.00000E+00  9.000E+00
      21    -1     0     0   501   502  0.000000000E+00  0.000000000E+00 -2.333256738E+02  2.333256738E+02  0.000000000E+00  0.00000E+00  9.000E+00
      25     1     1     2     0     0 -4.899954256E+02  5.056804106E+02  1.213566881E+03  1.408608451E+03  1.250000000E+02  0.00000E+00  9.000E+00
      25     1     1     2     0     0  2.177044494E+02  6.791706797E+01  2.830183901E+02  3.843596812E+02  1.250000000E+02  0.00000E+00  9.000E+00
       1     1     1     2   501     0  2.722909761E+02 -5.735974786E+02  1.098750258E+03  1.269018744E+03  1.525878906E-05  0.00000E+00  9.000E+00
#rwgt            2          17   3.6761608092779661E-004           1      211939           0
</event>
<event>
      5   9999  3.19816E-02  4.47203E+01 -1.00000E+00  1.41898E-01
      21    -1     0     0   502   501  0.000000000E+00  0.000000000E+00  6.336658938E+02  6.336658938E+02  0.000000000E+00  0.00000E+00  9.000E+00
      21    -1     0     0   501   511  0.000000000E+00  0.000000000E+00 -1.359667438E+02  1.359667438E+02  0.000000000E+00  0.00000E+00  9.000E+00
      25     1     1     2     0     0 -8.621685165E+01 -4.510663853E+01  2.645062885E+02  3.083123919E+02  1.250000000E+02  0.00000E+00  9.000E+00
      25     1     1     2     0     0  4.182122717E+01  3.972791621E+01  3.284246011E+02  3.561109953E+02  1.250000000E+02  0.00000E+00  9.000E+00
      21     1     1     2   502   511  4.439562449E+01  5.378722316E+00 -9.523173967E+01  1.052092504E+02  2.697398305E-06  0.00000E+00  9.000E+00
#rwgt            1           1   4.9861931629801425E-002           1      211988           0
</event>
<event>
      5   9999  3.19816E-02  2.85926E+01 -1.00000E+00  1.54503E-01
      21    -1     0     0   502   512  0.000000000E+00  0.000000000E+00  3.344133951E+02  3.344133951E+02  0.000000000E+00  0.00000E+00  9.000E+00
      21    -1     0     0   501   502  0.000000000E+00  0.000000000E+00 -5.560675454E+02  5.560675454E+02  0.000000000E+00  0.00000E+00  9.000E+00
      25     1     1     2     0     0  5.304632710E+01  3.592277039E+02 -2.062340357E+02  4.359081710E+02  1.250000000E+02  0.00000E+00  9.000E+00
      25     1     1     2     0     0 -3.100957427E+01 -3.774463648E+02 -5.828137194E+01  4.030497119E+02  1.250000000E+02  0.00000E+00  9.000E+00
      21     1     1     2   501   512 -2.203675283E+01  1.821866085E+01  4.286125735E+01  5.152305756E+01  0.000000000E+00  0.00000E+00  9.000E+00
#rwgt            1           1   2.6620883021371524E-002           1      212028           0
</event>
<event>
      5   9999  3.19816E-02  2.02332E+01 -1.00000E+00  1.65955E-01
      21    -1     0     0   511   501  0.000000000E+00  0.000000000E+00  1.653971856E+02  1.653971856E+02  0.000000000E+00  0.00000E+00  9.000E+00
      21    -1     0     0   501   502  0.000000000E+00  0.000000000E+00 -7.158029161E+02  7.158029161E+02  0.000000000E+00  0.00000E+00  9.000E+00
      25     1     1     2     0     0 -1.230490292E+02 -1.126347032E+02  5.231052806E+01  2.149163355E+02  1.250000000E+02  0.00000E+00  9.000E+00
      25     1     1     2     0     0  1.403995365E+02  1.022258950E+02 -6.086746586E+02  6.451914471E+02  1.250000000E+02  0.00000E+00  9.000E+00
      21     1     1     2   511   502 -1.735050729E+01  1.040880817E+01  5.958399977E+00  2.109231900E+01  5.960464478E-07  0.00000E+00  9.000E+00
#rwgt            1           1   2.6402842152588674E-002           1      212172           0
</event>
<event>
      5   9999  3.19816E-02  4.11361E+01 -1.00000E+00  1.44090E-01
      21    -1     0     0   502   501  0.000000000E+00  0.000000000E+00  4.116653449E+02  4.116653449E+02  0.000000000E+00  0.00000E+00  9.000E+00
      21    -1     0     0   501   512  0.000000000E+00  0.000000000E+00 -2.830104450E+03  2.830104450E+03  0.000000000E+00  0.00000E+00  9.000E+00
      25     1     1     2     0     0  3.960980409E+02  2.224786981E+02 -2.138186701E+03  2.189488021E+03  1.250000000E+02  0.00000E+00  9.000E+00
      25     1     1     2     0     0 -3.722709966E+02 -1.889458266E+02  2.619920830E+02  5.084791754E+02  1.250000000E+02  0.00000E+00  9.000E+00
      21     1     1     2   502   512 -2.382704432E+01 -3.353287147E+01 -5.422444871E+02  5.438025977E+02  7.629394531E-06  0.00000E+00  9.000E+00
#rwgt            1           1   2.2419822501456761E-002           1      212493           0
</event>
<event>
      5   9999  3.19816E-02  6.24966E+02 -1.00000E+00  9.61754E-02
      21    -1     0     0   502   501  0.000000000E+00  0.000000000E+00  3.615831553E+02  3.615831553E+02  0.000000000E+00  0.00000E+00  9.000E+00
      21    -1     0     0   501   511  0.000000000E+00  0.000000000E+00 -1.616467319E+03  1.616467319E+03  0.000000000E+00  0.00000E+00  9.000E+00
      25     1     1     2     0     0 -4.661653797E+02 -3.860226395E+01 -7.187640745E+02  8.666297311E+02  1.250000000E+02  0.00000E+00  9.000E+00
      25     1     1     2     0     0 -1.411761054E+02  1.859735763E+02  3.206991473E+01  2.667777038E+02  1.250000000E+02  0.00000E+00  9.000E+00
      21     1     1     2   502   511  6.073414851E+02 -1.473713123E+02 -5.681900035E+02  8.446430390E+02  1.078959322E-05  0.00000E+00  9.000E+00
#rwgt            1           1   2.6276958031136652E-002           1      212627           0
</event>
<event>
      5   9999  3.19816E-02  3.07094E+01 -1.00000E+00  1.52338E-01
      21    -1     0     0   502   501  0.000000000E+00  0.000000000E+00  1.109329762E+03  1.109329762E+03  0.000000000E+00  0.00000E+00  9.000E+00
      21    -1     0     0   501   512  0.000000000E+00  0.000000000E+00 -9.748529760E+01  9.748529760E+01  0.000000000E+00  0.00000E+00  9.000E+00
      25     1     1     2     0     0 -9.640505777E+01 -1.055575523E+02  9.796237232E+02  9.978596951E+02  1.250000000E+02  0.00000E+00  9.000E+00
      25     1     1     2     0     0  9.811681587E+01  7.489589344E+01  2.544093466E+01  1.775064663E+02  1.250000000E+02  0.00000E+00  9.000E+00
      21     1     1     2   502   512 -1.711758099E+00  3.066165885E+01  6.779806827E+00  3.144889854E+01  3.039252468E-07  0.00000E+00  9.000E+00
#rwgt            1           1   3.0360497320635945E-002           1      212662           0
</event>
<event>
      5   9999  3.19816E-02  1.33451E+02 -1.00000E+00  1.18442E-01
      21    -1     0     0   511   501  0.000000000E+00  0.000000000E+00  9.435416863E+02  9.435416863E+02  0.000000000E+00  0.00000E+00  9.000E+00
      21    -1     0     0   501   502  0.000000000E+00  0.000000000E+00 -1.826761636E+02  1.826761636E+02  0.000000000E+00  0.00000E+00  9.000E+00
      25     1     1     2     0     0 -3.008578348E+02 -1.964403432E+01  1.185091029E+02  3.472329655E+02  1.250000000E+02  0.00000E+00  9.000E+00
      25     1     1     2     0     0  1.724781550E+02  5.608499417E+01  1.442249555E+02  2.632870645E+02  1.250000000E+02  0.00000E+00  9.000E+00
      21     1     1     2   511   502  1.283796798E+02 -3.644095985E+01  4.981314643E+02  5.156978199E+02  7.629394531E-06  0.00000E+00  9.000E+00
#rwgt            1           1   2.6865827225470637E-002           1      212765           0
</event>
<event>
      5   9999  3.19816E-02  9.86873E+01 -1.00000E+00  1.24087E-01
      21    -1     0     0   502   501  0.000000000E+00  0.000000000E+00  6.798926728E+02  6.798926728E+02  0.000000000E+00  0.00000E+00  9.000E+00
      21    -1     0     0   501   512  0.000000000E+00  0.000000000E+00 -4.214514076E+02  4.214514076E+02  0.000000000E+00  0.00000E+00  9.000E+00
      25     1     1     2     0     0  4.771454863E+01  8.609558666E+01  8.269681674E+00  1.593189123E+02  1.250000000E+02  0.00000E+00  9.000E+00
      25     1     1     2     0     0  2.131861822E+01 -1.566193763E+02  5.714450799E+02  6.059361285E+02  1.250000000E+02  0.00000E+00  9.000E+00
      21     1     1     2   502   512 -6.903316685E+01  7.052378965E+01 -3.212734963E+02  3.360890395E+02  5.394796609E-06  0.00000E+00  9.000E+00
#rwgt            1           1   2.7059264978729534E-002           1      212801           0
</event>
<event>
      5   9999  3.19816E-02  2.12337E+02 -1.00000E+00  1.10710E-01
      -1    -1     0     0     0   501  0.000000000E+00  0.000000000E+00  2.215861267E+02  2.215861267E+02  0.000000000E+00  0.00000E+00  9.000E+00
      21    -1     0     0   501   502  0.000000000E+00  0.000000000E+00 -9.221478318E+02  9.221478318E+02  0.000000000E+00  0.00000E+00  9.000E+00
      25     1     1     2     0     0  3.066030406E+02 -8.016803822E+01 -1.796235568E+02  3.851259029E+02  1.250000000E+02  0.00000E+00  9.000E+00
      25     1     1     2     0     0 -1.238404066E+02  1.882638340E+02 -8.102301837E+01  2.701285750E+02  1.250000000E+02  0.00000E+00  9.000E+00
      -1     1     1     2     0   502 -1.827626340E+02 -1.080957958E+02 -4.399151299E+02  4.884794806E+02  7.629394531E-06  0.00000E+00  9.000E+00
#rwgt            2           5   1.1215554815665670E-005           1      212887           0
</event>
<event>
      5   9999  3.19816E-02  3.02234E+01 -1.00000E+00  1.52816E-01
      21    -1     0     0   502   501  0.000000000E+00  0.000000000E+00  8.743599052E+02  8.743599052E+02  0.000000000E+00  0.00000E+00  9.000E+00
      21    -1     0     0   511   502  0.000000000E+00  0.000000000E+00 -1.204171841E+02  1.204171841E+02  0.000000000E+00  0.00000E+00  9.000E+00
      25     1     1     2     0     0 -4.521776867E+01 -2.161420100E+02  6.271073069E+02  6.764987727E+02  1.250000000E+02  0.00000E+00  9.000E+00
      25     1     1     2     0     0  7.273944357E+01  2.036516709E+02  1.388218730E+02  2.857648371E+02  1.250000000E+02  0.00000E+00  9.000E+00
      21     1     1     2   511   501 -2.752167490E+01  1.249033915E+01 -1.198645878E+01  3.251347959E+01  9.684608465E-07  0.00000E+00  9.000E+00
#rwgt            1           1   3.2690112086511069E-002           1      212936           0
</event>
<event>
      5   9999  3.19816E-02  6.89672E+01 -1.00000E+00  1.31548E-01
      21    -1     0     0   502   512  0.000000000E+00  0.000000000E+00  1.146034030E+02  1.146034030E+02  0.000000000E+00  0.00000E+00  9.000E+00
      21    -1     0     0   501   502  0.000000000E+00  0.000000000E+00 -1.416097600E+03  1.416097600E+03  0.000000000E+00  0.00000E+00  9.000E+00
      25     1     1     2     0     0 -1.854968819E+01  9.876553472E+01 -2.477982024E+02  2.951739671E+02  1.250000000E+02  0.00000E+00  9.000E+00
      25     1     1     2     0     0  2.194271642E+01 -2.988184765E+01 -1.127210520E+03  1.134725943E+03  1.250000000E+02  0.00000E+00  9.000E+00
      21     1     1     2   501   512 -3.393028227E+00 -6.888368707E+01  7.351452554E+01  1.008010935E+02  5.309833873E-06  0.00000E+00  9.000E+00
#rwgt            1           1   3.3512834924682988E-002           1      213038           0
</event>
<event>
      5   9999  3.19816E-02  1.56498E+01 -1.00000E+00  1.75666E-01
      21    -1     0     0   511   501  0.000000000E+00  0.000000000E+00  4.181181706E+02  4.181181706E+02  0.000000000E+00  0.00000E+00  9.000E+00
      21    -1     0     0   501   502  0.000000000E+00  0.000000000E+00 -3.656843816E+02  3.656843816E+02  0.000000000E+00  0.00000E+00  9.000E+00
      25     1     1     2     0     0  1.662745144E+02  5.095887819E+01 -2.958193914E+02  3.652097120E+02  1.250000000E+02  0.00000E+00  9.000E+00
      25     1     1     2     0     0 -1.729687814E+02 -3.681314759E+01  3.266570581E+02  3.919224933E+02  1.250000000E+02  0.00000E+00  9.000E+00
      21     1     1     2   511   502  6.694266979E+00 -1.414573060E+01  2.159612229E+01  2.667034688E+01  2.384185791E-07  0.00000E+00  9.000E+00
#rwgt            1           1   2.8303687809392689E-002           1      213108           0
</event>
<event>
      5   9999  3.19816E-02  2.34103E+02 -1.00000E+00  1.09214E-01
      21    -1     0     0   502   501  0.000000000E+00  0.000000000E+00  6.582970780E+02  6.582970780E+02  0.000000000E+00  0.00000E+00  9.000E+00
       2    -1     0     0   501     0  0.000000000E+00  0.000000000E+00 -9.077268387E+02  9.077268387E+02  0.000000000E+00  0.00000E+00  9.000E+00
      25     1     1     2     0     0 -2.343145359E+02 -8.076744860E+01 -3.604530626E+01  2.799123910E+02  1.250000000E+02  0.00000E+00  9.000E+00
      25     1     1     2     0     0  3.588168548E+02 -1.174838454E+02  4.393738654E+02  5.926435546E+02  1.250000000E+02  0.00000E+00  9.000E+00
       2     1     1     2   502     0 -1.245023188E+02  1.982512940E+02 -6.527583198E+02  6.934679711E+02  7.629394531E-06  0.00000E+00  9.000E+00
#rwgt            1           1   2.0944196809073765E-002           1      213333           0
</event>
<event>
      5   9999  3.19816E-02  1.90905E+02 -1.00000E+00  1.12389E-01
      21    -1     0     0   502   501  0.000000000E+00  0.000000000E+00  1.421702352E+03  1.421702352E+03  0.000000000E+00  0.00000E+00  9.000E+00
       2    -1     0     0   501     0  0.000000000E+00  0.000000000E+00 -9.344063830E+02  9.344063830E+02  0.000000000E+00  0.00000E+00  9.000E+00
      25     1     1     2     0     0  1.854794625E+02 -2.206795619E+02  8.336392580E+02  8.908880471E+02  1.250000000E+02  0.00000E+00  9.000E+00
      25     1     1     2     0     0 -2.547208012E+01  3.248057125E+02  4.932435665E+02  6.042034373E+02  1.250000000E+02  0.00000E+00  9.000E+00
       2     1     1     2   502     0 -1.600073824E+02 -1.041261506E+02 -8.395868555E+02  8.610172505E+02  1.078959322E-05  0.00000E+00  9.000E+00
#rwgt            1           1   3.3180808339388107E-002           1      213378           0
</event>
<event>
      5   9999  3.19816E-02  1.38862E+02 -1.00000E+00  1.17737E-01
      21    -1     0     0   502   501  0.000000000E+00  0.000000000E+00  1.008542889E+03  1.008542889E+03  0.000000000E+00  0.00000E+00  9.000E+00
      21    -1     0     0   501   511  0.000000000E+00  0.000000000E+00 -5.850643291E+02  5.850643291E+02  0.000000000E+00  0.00000E+00  9.000E+00
      25     1     1     2     0     0  2.445017293E+02  5.711728217E+02  1.165518824E+02  6.443825177E+02  1.250000000E+02  0.00000E+00  9.000E+00
      25     1     1     2     0     0 -3.700766131E+02 -6.304488469E+02  3.239649490E+02  8.093211576E+02  1.250000000E+02  0.00000E+00  9.000E+00
      21     1     1     2   502   511  1.255748838E+02  5.927602514E+01 -1.703827131E+01  1.399035428E+02  1.831327855E-06  0.00000E+00  9.000E+00
#rwgt            1           1   2.2308515892657990E-002           1      213453           0
</event>
<event>
      5   9999  3.19816E-02  2.18538E+02 -1.00000E+00  1.10264E-01
      21    -1     0     0   502   501  0.000000000E+00  0.000000000E+00  1.505479675E+03  1.505479675E+03  0.000000000E+00  0.00000E+00  9.000E+00
      21    -1     0     0   501   512  0.000000000E+00  0.000000000E+00 -2.164514977E+02  2.164514977E+02  0.000000000E+00  0.00000E+00  9.000E+00
      25     1     1     2     0     0  1.881478689E+02 -2.680215676E+02  3.549320637E+02  4.988355953E+02  1.250000000E+02  0.00000E+00  9.000E+00
      25     1     1     2     0     0 -3.272932736E+02  4.365367133E+02  7.589389003E+02  9.430262156E+02  1.250000000E+02  0.00000E+00  9.000E+00
      21     1     1     2   502   512  1.391454047E+02 -1.685151457E+02  1.751572132E+02  2.800693616E+02  4.672030912E-06  0.00000E+00  9.000E+00
#rwgt            1           1   2.8407765937674766E-002           1      213550           0
</event>
<event>
      5   9999  3.19816E-02  4.72042E+01 -1.00000E+00  1.40516E-01
      21    -1     0     0   502   501  0.000000000E+00  0.000000000E+00  9.791532266E+02  9.791532266E+02  0.000000000E+00  0.00000E+00  9.000E+00
      21    -1     0     0   501   511  0.000000000E+00  0.000000000E+00 -5.342406169E+02  5.342406169E+02  0.000000000E+00  0.00000E+00  9.000E+00
      25     1     1     2     0     0  9.007787186E+01  1.178255854E+02  6.092125278E+02  6.393448175E+02  1.250000000E+02  0.00000E+00  9.000E+00
      25     1     1     2     0     0 -1.354524192E+02 -1.308406041E+02  3.176112991E+02  3.898314493E+02  1.250000000E+02  0.00000E+00  9.000E+00
      21     1     1     2   502   511  4.537454736E+01  1.301501875E+01 -4.819112173E+02  4.842175767E+02  1.078959322E-05  0.00000E+00  9.000E+00
#rwgt            1           1   2.6917204715494285E-002           1      213629           0
</event>
<event>
      5   9999  3.19816E-02  1.15020E+02 -1.00000E+00  1.21155E-01
      21    -1     0     0   502   501  0.000000000E+00  0.000000000E+00  4.944137436E+02  4.944137436E+02  0.000000000E+00  0.00000E+00  9.000E+00
      21    -1     0     0   501   512  0.000000000E+00  0.000000000E+00 -3.704585436E+03  3.704585436E+03  0.000000000E+00  0.00000E+00  9.000E+00
      25     1     1     2     0     0 -1.219739295E+03 -8.272230332E-01 -2.206104563E+03  2.523942744E+03  1.250000000E+02  0.00000E+00  9.000E+00
      25     1     1     2     0     0  1.113044797E+03  4.379117586E+01 -6.345394539E+02  1.288041810E+03  1.250000000E+02  0.00000E+00  9.000E+00
      21     1     1     2   502   512  1.066944986E+02 -4.296395283E+01 -3.695276757E+02  3.870146255E+02  0.000000000E+00  0.00000E+00  9.000E+00
#rwgt            1           1   4.6477639105429625E-002           1      213767           0
</event>
<event>
      5   9999  3.19816E-02  5.73562E+01 -1.00000E+00  1.35758E-01
      21    -1     0     0   502   511  0.000000000E+00  0.000000000E+00  3.204578035E+02  3.204578035E+02  0.000000000E+00  0.00000E+00  9.000E+00
      21    -1     0     0   501   502  0.000000000E+00  0.000000000E+00 -2.661267652E+02  2.661267652E+02  0.000000000E+00  0.00000E+00  9.000E+00
      25     1     1     2     0     0  1.605904133E+00 -2.043530699E+02  2.725312612E+01  2.411026524E+02  1.250000000E+02  0.00000E+00  9.000E+00
      25     1     1     2     0     0 -5.663139772E+01  2.205374487E+02 -3.368676871E+01  2.619230419E+02  1.250000000E+02  0.00000E+00  9.000E+00
      21     1     1     2   501   511  5.502549359E+01 -1.618437874E+01  6.076468082E+01  8.355887442E+01  9.536743164E-07  0.00000E+00  9.000E+00
#rwgt            1           1   2.6839185113290902E-002           1      213830           0
</event>
<event>
      5   9999  3.19816E-02  8.72142E+01 -1.00000E+00  1.26560E-01
      21    -1     0     0   502   501  0.000000000E+00  0.000000000E+00  1.955094146E+02  1.955094146E+02  0.000000000E+00  0.00000E+00  9.000E+00
      21    -1     0     0   501   512  0.000000000E+00  0.000000000E+00 -1.174083905E+03  1.174083905E+03  0.000000000E+00  0.00000E+00  9.000E+00
      25     1     1     2     0     0  2.228861233E+02 -1.907840952E+02 -4.347218027E+02  5.391519644E+02  1.250000000E+02  0.00000E+00  9.000E+00
      25     1     1     2     0     0 -2.976639869E+02  1.458998466E+02 -8.628723006E+01  3.646383145E+02  1.250000000E+02  0.00000E+00  9.000E+00
      21     1     1     2   502   512  7.477786358E+01  4.488424865E+01 -4.575654582E+02  4.658030412E+02  5.394796609E-06  0.00000E+00  9.000E+00
#rwgt            1           1   2.8678882310116900E-002           1      213931           0
</event>
<event>
      5   9999  3.19816E-02  7.73640E+01 -1.00000E+00  1.29058E-01
      21    -1     0     0   502   511  0.000000000E+00  0.000000000E+00  2.135544978E+03  2.135544978E+03  0.000000000E+00  0.00000E+00  9.000E+00
      21    -1     0     0   501   502  0.000000000E+00  0.000000000E+00 -6.790297450E+01  6.790297450E+01  0.000000000E+00  0.00000E+00  9.000E+00
      25     1     1     2     0     0 -1.576787041E+02 -2.092702116E+02  7.906788966E+02  8.422913466E+02  1.250000000E+02  0.00000E+00  9.000E+00
      25     1     1     2     0     0  1.708372410E+02  2.855069066E+02  7.668716721E+02  8.452317541E+02  1.250000000E+02  0.00000E+00  9.000E+00
      21     1     1     2   501   511 -1.315853698E+01 -7.623669500E+01  5.100914347E+02  5.159248517E+02  5.394796609E-06  0.00000E+00  9.000E+00
#rwgt            1           1   2.8754488756343559E-002           1      214008           0
</event>
<event>
      5   9999  3.19816E-02  2.15831E+02 -1.00000E+00  1.10457E-01
      21    -1     0     0   502   501  0.000000000E+00  0.000000000E+00  1.893732072E+03  1.893732072E+03  0.000000000E+00  0.00000E+00  9.000E+00
      21    -1     0     0   512   502  0.000000000E+00  0.000000000E+00 -1.046535216E+02  1.046535216E+02  0.000000000E+00  0.00000E+00  9.000E+00
      25     1     1     2     0     0 -3.975166188E+01 -1.686117597E+02  1.441366534E+02  2.577023380E+02  1.250000000E+02  0.00000E+00  9.000E+00
      25     1     1     2     0     0  2.518865885E+02  1.288380529E+02  1.278682942E+03  1.315561159E+03  1.250000000E+02  0.00000E+00  9.000E+00
      21     1     1     2   512   501 -2.121349266E+02  3.977370674E+01  3.662589552E+02  4.251220967E+02  7.629394531E-06  0.00000E+00  9.000E+00
#rwgt            2          11   2.9569221032569796E-003           1      214132           0
</event>
<event>
      5   9999  3.19816E-02  1.02589E+02 -1.00000E+00  1.23331E-01
      21    -1     0     0   511   501  0.000000000E+00  0.000000000E+00  1.196389135E+03  1.196389135E+03  0.000000000E+00  0.00000E+00  9.000E+00
      21    -1     0     0   501   502  0.000000000E+00  0.000000000E+00 -1.078842340E+02  1.078842340E+02  0.000000000E+00  0.00000E+00  9.000E+00
      25     1     1     2     0     0  1.462901007E+02  2.055709686E+02  7.079084245E+02  7.618527116E+02  1.250000000E+02  0.00000E+00  9.000E+00
      25     1     1     2     0     0 -1.424544222E+02 -1.030533054E+02  8.910862624E+01  2.334064983E+02  1.250000000E+02  0.00000E+00  9.000E+00
      21     1     1     2   511   502 -3.835678449E+00 -1.025176632E+02  2.914878505E+02  3.090141594E+02  3.814697266E-06  0.00000E+00  9.000E+00
#rwgt            1           1   2.8468761022366451E-002           1      214152           0
</event>
<event>
      5   9999  3.19816E-02  1.76461E+01 -1.00000E+00  1.70985E-01
      21    -1     0     0   502   501  0.000000000E+00  0.000000000E+00  1.244985132E+02  1.244985132E+02  0.000000000E+00  0.00000E+00  9.000E+00
      21    -1     0     0   512   502  0.000000000E+00  0.000000000E+00 -1.004208729E+03  1.004208729E+03  0.000000000E+00  0.00000E+00  9.000E+00
      25     1     1     2     0     0 -2.970283532E+02  3.636843725E+01 -2.310708270E+02  3.982050137E+02  1.250000000E+02  0.00000E+00  9.000E+00
      25     1     1     2     0     0  2.898965361E+02 -2.022778883E+01 -5.926056463E+02  6.717556230E+02  1.250000000E+02  0.00000E+00  9.000E+00
      21     1     1     2   512   501  7.131817177E+00 -1.614064842E+01 -5.603374247E+01  5.874660538E+01  1.348699152E-06  0.00000E+00  9.000E+00
#rwgt            1           1   2.7678534313411444E-002           1      214192           0
</event>
<event>
      5   9999  3.19816E-02  2.96839E+02 -1.00000E+00  1.05742E-01
      21    -1     0     0   502   501  0.000000000E+00  0.000000000E+00  1.251889277E+03  1.251889277E+03  0.000000000E+00  0.00000E+00  9.000E+00
      21    -1     0     0   511   502  0.000000000E+00  0.000000000E+00 -7.341423662E+02  7.341423662E+02  0.000000000E+00  0.00000E+00  9.000E+00
      25     1     1     2     0     0  4.637444497E+01 -7.836478911E+02 -1.529033190E+02  8.094807171E+02  1.250000000E+02  0.00000E+00  9.000E+00
      25     1     1     2     0     0 -8.992170280E+01  4.900200274E+02  7.108462650E+02  8.770022533E+02  1.250000000E+02  0.00000E+00  9.000E+00
      21     1     1     2   511   501  4.354725784E+01  2.936278637E+02 -4.019603536E+01  2.995486726E+02  3.693564745E-06  0.00000E+00  9.000E+00
#rwgt            2          11   5.8552230688331940E-003           1      214363           0
</event>
<event>
      5   9999  3.19816E-02  2.97052E+01 -1.00000E+00  1.53338E-01
      21    -1     0     0   502   501  0.000000000E+00  0.000000000E+00  9.061705095E+02  9.061705095E+02  0.000000000E+00  0.00000E+00  9.000E+00
      21    -1     0     0   512   502  0.000000000E+00  0.000000000E+00 -1.519036563E+02  1.519036563E+02  0.000000000E+00  0.00000E+00  9.000E+00
      25     1     1     2     0     0  2.410925011E+02 -2.847972231E+01  6.568284151E+02  7.113264058E+02  1.250000000E+02  0.00000E+00  9.000E+00
      25     1     1     2     0     0 -2.631460210E+02  8.578888103E+00  1.137444794E+02  3.128613627E+02  1.250000000E+02  0.00000E+00  9.000E+00
      21     1     1     2   512   501  2.205351988E+01  1.990083421E+01 -1.630604130E+01  3.388639734E+01  5.840038640E-07  0.00000E+00  9.000E+00
#rwgt            1           1   2.7947603856490037E-002           1      214398           0
</event>
<event>
      5   9999  3.19816E-02  7.73297E+00 -1.00000E+00  2.09617E-01
      21    -1     0     0   502   501  0.000000000E+00  0.000000000E+00  2.689498200E+02  2.689498200E+02  0.000000000E+00  0.00000E+00  9.000E+00
      21    -1     0     0   511   502  0.000000000E+00  0.000000000E+00 -4.420547353E+02  4.420547353E+02  0.000000000E+00  0.00000E+00  9.000E+00
      25     1     1     2     0     0  1.521378222E+01 -2.163253333E+02  1.469012699E+02  2.902293784E+02  1.250000000E+02  0.00000E+00  9.000E+00
      25     1     1     2     0     0 -1.851179545E+01  2.233197534E+02 -2.790233407E+02  3.790691539E+02  1.250000000E+02  0.00000E+00  9.000E+00
      21     1     1     2   511   501  3.298013228E+00 -6.994420024E+00 -4.098284455E+01  4.170602295E+01  0.000000000E+00  0.00000E+00  9.000E+00
#rwgt            1           1   2.4595349627236571E-002           1      214573           0
</event>
<event>
      5   9999  3.19816E-02  7.58372E+01 -1.00000E+00  1.29483E-01
      21    -1     0     0   502   501  0.000000000E+00  0.000000000E+00  4.399938778E+02  4.399938778E+02  0.000000000E+00  0.00000E+00  9.000E+00
      21    -1     0     0   512   502  0.000000000E+00  0.000000000E+00 -6.065912758E+02  6.065912758E+02  0.000000000E+00  0.00000E+00  9.000E+00
      25     1     1     2     0     0  2.612171322E+02  4.993455353E+01  2.366604020E+02  3.773075611E+02  1.250000000E+02  0.00000E+00  9.000E+00
      25     1     1     2     0     0 -2.891276017E+02  2.057993031E+01 -6.456551625E+01  3.221987112E+02  1.250000000E+02  0.00000E+00  9.000E+00
      21     1     1     2   512   501  2.791046955E+01 -7.051448385E+01 -3.386922838E+02  3.470788813E+02  3.814697266E-06  0.00000E+00  9.000E+00
#rwgt            1           1   2.5948358727758251E-002           1      214886           0
</event>
<event>
      5   9999  3.19816E-02  2.40218E+01 -1.00000E+00  1.60060E-01
      21    -1     0     0   502   501  0.000000000E+00  0.000000000E+00  3.094812469E+02  3.094812469E+02  0.000000000E+00  0.00000E+00  9.000E+00
       1    -1     0     0   501     0  0.000000000E+00  0.000000000E+00 -1.026109609E+03  1.026109609E+03  0.000000000E+00  0.00000E+00  9.000E+00
      25     1     1     2     0     0  3.134989975E+01  1.207366514E+02  2.586243082E+02  3.131639954E+02  1.250000000E+02  0.00000E+00  9.000E+00
      25     1     1     2     0     0 -5.476076587E+01 -1.153534388E+02 -3.182396146E+02  3.649748069E+02  1.250000000E+02  0.00000E+00  9.000E+00
       1     1     1     2   502     0  2.341086612E+01 -5.383212678E+00 -6.570130552E+02  6.574520533E+02  0.000000000E+00  0.00000E+00  9.000E+00
#rwgt            1           1   2.9671223968771501E-002           1      214958           0
</event>
<event>
      5   9999  3.19816E-02  8.15688E+01 -1.00000E+00  1.27943E-01
      21    -1     0     0   502   511  0.000000000E+00  0.000000000E+00  9.200895744E+01  9.200895744E+01  0.000000000E+00  0.00000E+00  9.000E+00
      21    -1     0     0   501   502  0.000000000E+00  0.000000000E+00 -7.945106268E+02  7.945106268E+02  0.000000000E+00  0.00000E+00  9.000E+00
      25     1     1     2     0     0 -2.033978939E+01  1.063626684E+02 -4.723481080E+02  5.004642439E+02  1.250000000E+02  0.00000E+00  9.000E+00
      25     1     1     2     0     0  5.202601426E+01 -1.815255392E+02 -1.495653577E+02  2.713909058E+02  1.250000000E+02  0.00000E+00  9.000E+00
      21     1     1     2   501   511 -3.168622487E+01  7.516287077E+01 -8.058820365E+01  1.146644346E+02  1.651812370E-06  0.00000E+00  9.000E+00
#rwgt            1           1   3.3756284088579780E-002           1      215071           0
</event>
<event>
      5   9999  3.19816E-02  3.72514E+02 -1.00000E+00  1.02625E-01
      -3    -1     0     0     0   501  0.000000000E+00  0.000000000E+00  4.419648067E+02  4.419648067E+02  0.000000000E+00  0.00000E+00  9.000E+00
      21    -1     0     0   501   502  0.000000000E+00  0.000000000E+00 -2.406105314E+03  2.406105314E+03  0.000000000E+00  0.00000E+00  9.000E+00
      25     1     1     2     0     0 -2.201626688E+02 -1.835423879E+02 -1.444514325E+03  1.477973628E+03  1.250000000E+02  0.00000E+00  9.000E+00
      25     1     1     2     0     0  2.136640016E+02  5.559992442E+02 -7.234987737E+02  9.454432509E+02  1.250000000E+02  0.00000E+00  9.000E+00
      -3     1     1     2     0   502  6.498667125E+00 -3.724568563E+02  2.038725914E+02  4.246532421E+02  6.031565972E-06  0.00000E+00  9.000E+00
#rwgt            2           3   1.0937638540625120E-004           1      215221           0
</event>
<event>
      5   9999  3.19816E-02  1.93312E+01 -1.00000E+00  1.67597E-01
      21    -1     0     0   511   501  0.000000000E+00  0.000000000E+00  4.613585772E+02  4.613585772E+02  0.000000000E+00  0.00000E+00  9.000E+00
      21    -1     0     0   501   502  0.000000000E+00  0.000000000E+00 -5.517594229E+02  5.517594229E+02  0.000000000E+00  0.00000E+00  9.000E+00
      25     1     1     2     0     0  2.126441384E+02 -5.217905278E+01  3.759856668E+02  4.526923953E+02  1.250000000E+02  0.00000E+00  9.000E+00
      25     1     1     2     0     0 -2.028546611E+02  3.550988964E+01 -4.798088413E+02  5.368915067E+02  1.250000000E+02  0.00000E+00  9.000E+00
      21     1     1     2   511   502 -9.789477292E+00  1.666916313E+01  1.342232876E+01  2.353409813E+01  6.529361695E-07  0.00000E+00  9.000E+00
#rwgt            1           1   3.1715909655614487E-002           1      215255           0
</event>
<event>
      5   9999  3.19816E-02  5.46012E+01 -1.00000E+00  1.36929E-01
      21    -1     0     0   502   501  0.000000000E+00  0.000000000E+00  2.225576469E+02  2.225576469E+02  0.000000000E+00  0.00000E+00  9.000E+00
      21    -1     0     0   512   502  0.000000000E+00  0.000000000E+00 -4.172040550E+02  4.172040550E+02  0.000000000E+00  0.00000E+00  9.000E+00
      25     1     1     2     0     0 -1.389938989E+02 -1.040151425E+02  1.236652633E+02  2.470962387E+02  1.250000000E+02  0.00000E+00  9.000E+00
      25     1     1     2     0     0  1.010196006E+02  6.478196913E+01 -2.182402401E+02  2.786673027E+02  1.250000000E+02  0.00000E+00  9.000E+00
      21     1     1     2   512   501  3.797429833E+01  3.923317335E+01 -1.000714314E+02  1.139981605E+02  1.907348633E-06  0.00000E+00  9.000E+00
#rwgt            1           1   2.3274123626179498E-002           1      215393           0
</event>
<event>
      5   9999  3.19816E-02  1.22974E+02 -1.00000E+00  1.19919E-01
       2    -1     0     0   502     0  0.000000000E+00  0.000000000E+00  1.949435511E+03  1.949435511E+03  0.000000000E+00  0.00000E+00  9.000E+00
      21    -1     0     0   501   502  0.000000000E+00  0.000000000E+00 -1.813458705E+03  1.813458705E+03  0.000000000E+00  0.00000E+00  9.000E+00
      25     1     1     2     0     0  1.110204320E+02  7.874041635E+02 -3.251637982E+02  8.681516853E+02  1.250000000E+02  0.00000E+00  9.000E+00
      25     1     1     2     0     0  1.193511636E+01 -7.852494581E+02 -1.084169316E+03  1.344547234E+03  1.250000000E+02  0.00000E+00  9.000E+00
       2     1     1     2   501     0 -1.229555484E+02 -2.154705350E+00  1.545309920E+03  1.550195297E+03  2.157918644E-05  0.00000E+00  9.000E+00
#rwgt            1           1   3.4318691521192768E-002           1      215471           0
</event>
<event>
      5   9999  3.19816E-02  5.11593E+01 -1.00000E+00  1.38510E-01
      21    -1     0     0   502   501  0.000000000E+00  0.000000000E+00  7.541549797E+02  7.541549797E+02  0.000000000E+00  0.00000E+00  9.000E+00
      21    -1     0     0   501   511  0.000000000E+00  0.000000000E+00 -2.658313503E+02  2.658313503E+02  0.000000000E+00  0.00000E+00  9.000E+00
      25     1     1     2     0     0 -6.842175038E+01  1.565192537E+02  6.818028219E+02  7.139046860E+02  1.250000000E+02  0.00000E+00  9.000E+00
      25     1     1     2     0     0  7.268873703E+01 -1.055382295E+02 -1.162697103E+02  2.134610408E+02  1.250000000E+02  0.00000E+00  9.000E+00
      21     1     1     2   502   511 -4.266986655E+00 -5.098102418E+01 -7.720948224E+01  9.262060327E+01  1.651812370E-06  0.00000E+00  9.000E+00
#rwgt            1           1   2.8525241640394040E-002           1      215550           0
</event>
<event>
      5   9999  3.19816E-02  1.94350E+01 -1.00000E+00  1.67403E-01
      21    -1     0     0   512   501  0.000000000E+00  0.000000000E+00  9.790724441E+02  9.790724441E+02  0.000000000E+00  0.00000E+00  9.000E+00
      21    -1     0     0   501   502  0.000000000E+00  0.000000000E+00 -1.192541063E+02  1.192541063E+02  0.000000000E+00  0.00000E+00  9.000E+00
      25     1     1     2     0     0 -5.625117273E+01 -1.403837349E+02 -8.003071087E-01  1.962076144E+02  1.250000000E+02  0.00000E+00  9.000E+00
      25     1     1     2     0     0  7.553137495E+01  1.379360037E+02  4.714591994E+02  5.124744935E+02  1.250000000E+02  0.00000E+00  9.000E+00
      21     1     1     2   512   502 -1.928020221E+01  2.447731201E+00  3.891594454E+02  3.896444425E+02  0.000000000E+00  0.00000E+00  9.000E+00
#rwgt            1           1   2.8169389678057988E-002           1      215663           0
</event>
<event>
      5   9999  3.19816E-02  1.18733E+01 -1.00000E+00  1.87514E-01
      21    -1     0     0   502   501  0.000000000E+00  0.000000000E+00  2.527022827E+02  2.527022827E+02  0.000000000E+00  0.00000E+00  9.000E+00
      21    -1     0     0   511   502  0.000000000E+00  0.000000000E+00 -2.139835682E+02  2.139835682E+02  0.000000000E+00  0.00000E+00  9.000E+00
      25     1     1     2     0     0 -1.649462760E+02  4.451014419E+01 -4.912313357E+01  2.173166104E+02  1.250000000E+02  0.00000E+00  9.000E+00
      25     1     1     2     0     0  1.739799465E+02 -3.680509580E+01  9.299633972E+01  2.364253710E+02  1.250000000E+02  0.00000E+00  9.000E+00
      21     1     1     2   511   501 -9.033670512E+00 -7.705048392E+00 -5.154491618E+00  1.294386949E+01  1.032382731E-07  0.00000E+00  9.000E+00
#rwgt            1           1   2.4713437346592381E-002           1      215799           0
</event>
<event>
      5   9999  3.19816E-02  1.91862E+02 -1.00000E+00  1.12309E-01
      21    -1     0     0   502   501  0.000000000E+00  0.000000000E+00  4.337413338E+02  4.337413338E+02  0.000000000E+00  0.00000E+00  9.000E+00
      21    -1     0     0   501   512  0.000000000E+00  0.000000000E+00 -5.772086214E+02  5.772086214E+02  0.000000000E+00  0.00000E+00  9.000E+00
      25     1     1     2     0     0  7.959648019E+01  2.462346220E+00  2.768774378E+02  3.140505984E+02  1.250000000E+02  0.00000E+00  9.000E+00
      25     1     1     2     0     0 -4.619828709E+01  1.864709104E+02  6.105073242E+00  2.292770248E+02  1.250000000E+02  0.00000E+00  9.000E+00
      21     1     1     2   502   512 -3.339819311E+01 -1.889332566E+02 -4.264497986E+02  4.676223321E+02  0.000000000E+00  0.00000E+00  9.000E+00
#rwgt            1           1   2.7802686631438759E-002           1      215935           0
</event>
<event>
      5   9999  3.19816E-02  4.31247E+01 -1.00000E+00  1.42843E-01
      21    -1     0     0   511   501  0.000000000E+00  0.000000000E+00  6.212162484E+02  6.212162484E+02  0.000000000E+00  0.00000E+00  9.000E+00
      21    -1     0     0   501   502  0.000000000E+00  0.000000000E+00 -4.304062708E+02  4.304062708E+02  0.000000000E+00  0.00000E+00  9.000E+00
      25     1     1     2     0     0  1.979264500E+02 -8.116700783E+01 -2.177622039E+02  3.298610923E+02  1.250000000E+02  0.00000E+00  9.000E+00
      25     1     1     2     0     0 -1.918595757E+02  1.238627946E+02 -4.666216378E+01  2.644890285E+02  1.250000000E+02  0.00000E+00  9.000E+00
      21     1     1     2   511   502 -6.066874260E+00 -4.269578680E+01  4.552343452E+02  4.572723983E+02  5.394796609E-06  0.00000E+00  9.000E+00
#rwgt            1           1   2.9842125482932157E-002           1      215996           0
</event>
<event>
      5   9999  3.19816E-02  2.97494E+01 -1.00000E+00  1.53293E-01
      -1    -1     0     0     0   501  0.000000000E+00  0.000000000E+00  5.479211690E+02  5.479211690E+02  0.000000000E+00  0.00000E+00  9.000E+00
      21    -1     0     0   501   502  0.000000000E+00  0.000000000E+00 -4.834904842E+02  4.834904842E+02  0.000000000E+00  0.00000E+00  9.000E+00
      25     1     1     2     0     0 -1.133240585E+02  2.657060615E+02 -3.033678643E+02  4.371488470E+02  1.250000000E+02  0.00000E+00  9.000E+00
      25     1     1     2     0     0  1.065094806E+02 -2.946644441E+02  1.411614041E+02  3.656814818E+02  1.250000000E+02  0.00000E+00  9.000E+00
      -1     1     1     2     0   502  6.814577817E+00  2.895838262E+01  2.266371450E+02  2.285813244E+02  3.814697266E-06  0.00000E+00  9.000E+00
#rwgt            1           1   2.8752833114445361E-002           1      216085           0
</event>
<event>
      5   9999  3.19816E-02  7.59706E+01 -1.00000E+00  1.29445E-01
      21    -1     0     0   511   501  0.000000000E+00  0.000000000E+00  8.595252488E+01  8.595252488E+01  0.000000000E+00  0.00000E+00  9.000E+00
      21    -1     0     0   501   502  0.000000000E+00  0.000000000E+00 -2.152484344E+03  2.152484344E+03  0.000000000E+00  0.00000E+00  9.000E+00
      25     1     1     2     0     0 -6.652714329E+01 -1.240284628E+02 -1.849824796E+03  1.859377771E+03  1.250000000E+02  0.00000E+00  9.000E+00
      25     1     1     2     0     0  1.411681419E+02  1.381795498E+02 -1.778326353E+02  2.937200682E+02  1.250000000E+02  0.00000E+00  9.000E+00
      21     1     1     2   511   502 -7.464099862E+01 -1.415108706E+01 -3.887438811E+01  8.533902970E+01  1.846782373E-06  0.00000E+00  9.000E+00
#rwgt            1           1   2.6606784691000519E-002           1      216238           0
</event>
<event>
      5   9999  3.19816E-02  1.33393E+01 -1.00000E+00  1.82323E-01
      21    -1     0     0   502   501  0.000000000E+00  0.000000000E+00  2.435442289E+02  2.435442289E+02  0.000000000E+00  0.00000E+00  9.000E+00
      21    -1     0     0   512   502  0.000000000E+00  0.000000000E+00 -1.908246747E+03  1.908246747E+03  0.000000000E+00  0.00000E+00  9.000E+00
      25     1     1     2     0     0  1.177566284E+02  4.276775589E+01 -4.933382906E+01  1.837240626E+02  1.250000000E+02  0.00000E+00  9.000E+00
      25     1     1     2     0     0 -1.285660595E+02 -5.058393852E+01  1.271058809E+02  2.255412855E+02  1.250000000E+02  0.00000E+00  9.000E+00
      21     1     1     2   512   501  1.080943106E+01  7.816182630E+00 -1.742474570E+03  1.742525628E+03  2.157918644E-05  0.00000E+00  9.000E+00
#rwgt            1           1   2.6792785708054670E-002           1      216338           0
</event>
<event>
      5   9999  3.19816E-02  8.95862E+01 -1.00000E+00  1.26015E-01
       2    -1     0     0   502     0  0.000000000E+00  0.000000000E+00  1.636722119E+03  1.636722119E+03  0.000000000E+00  0.00000E+00  9.000E+00
      21    -1     0     0   501   502  0.000000000E+00  0.000000000E+00 -3.043226637E+02  3.043226637E+02  0.000000000E+00  0.00000E+00  9.000E+00
      25     1     1     2     0     0 -1.393482623E+02 -4.387402293E+02  4.468300835E+01  4.790955002E+02  1.250000000E+02  0.00000E+00  9.000E+00
      25     1     1     2     0     0  1.344687194E+02  5.281934324E+02  1.240433881E+03  1.360651077E+03  1.250000000E+02  0.00000E+00  9.000E+00
       2     1     1     2   501     0  4.879542943E+00 -8.945320312E+01  4.728256547E+01  1.012982057E+02  1.907348633E-06  0.00000E+00  9.000E+00
#rwgt            1           1   2.9962354182631108E-002           1      216546           0
</event>
<event>
      5   9999  3.19816E-02  7.89417E+00 -1.00000E+00  2.08430E-01
      21    -1     0     0   511   501  0.000000000E+00  0.000000000E+00  1.664545125E+02  1.664545125E+02  0.000000000E+00  0.00000E+00  9.000E+00
      21    -1     0     0   501   502  0.000000000E+00  0.000000000E+00 -6.355477140E+02  6.355477140E+02  0.000000000E+00  0.00000E+00  9.000E+00
      25     1     1     2     0     0  1.663325207E+02 -1.304062595E+02 -2.126751871E+02  3.248507891E+02  1.250000000E+02  0.00000E+00  9.000E+00
      25     1     1     2     0     0 -1.639651763E+02  1.379370977E+02 -3.245878746E+02  4.085260216E+02  1.250000000E+02  0.00000E+00  9.000E+00
      21     1     1     2   511   502 -2.367344336E+00 -7.530838179E+00  6.816986028E+01  6.862541580E+01  1.348699152E-06  0.00000E+00  9.000E+00
#rwgt            1           1   3.0734720947632320E-002           1      216625           0
</event>
<event>
      5   9999  3.19816E-02  1.30252E+02 -1.00000E+00  1.18876E-01
      21    -1     0     0   502   501  0.000000000E+00  0.000000000E+00  2.878575612E+02  2.878575612E+02  0.000000000E+00  0.00000E+00  9.000E+00
      21    -1     0     0   512   502  0.000000000E+00  0.000000000E+00 -5.712551627E+02  5.712551627E+02  0.000000000E+00  0.00000E+00  9.000E+00
      25     1     1     2     0     0  2.382352371E+02 -3.455879829E+01 -2.392934941E+02  3.617135815E+02  1.250000000E+02  0.00000E+00  9.000E+00
      25     1     1     2     0     0 -1.093738991E+02  5.354423267E+01  1.720312832E+02  2.450497849E+02  1.250000000E+02  0.00000E+00  9.000E+00
      21     1     1     2   512   501 -1.288613380E+02 -1.898543438E+01 -2.161353906E+02  2.523493575E+02  2.697398305E-06  0.00000E+00  9.000E+00
#rwgt            2          11   2.5297920366990595E-003           1      216984           0
</event>
<event>
      5   9999  3.19816E-02  3.14470E+01 -1.00000E+00  1.51632E-01
      21    -1     0     0   502   511  0.000000000E+00  0.000000000E+00  2.011960732E+02  2.011960732E+02  0.000000000E+00  0.00000E+00  9.000E+00
      21    -1     0     0   501   502  0.000000000E+00  0.000000000E+00 -9.086724229E+02  9.086724229E+02  0.000000000E+00  0.00000E+00  9.000E+00
      25     1     1     2     0     0 -8.599486068E+01  1.203406718E+02  1.179731731E+02  2.267590415E+02  1.250000000E+02  0.00000E+00  9.000E+00
      25     1     1     2     0     0  6.167518085E+01 -1.402772491E+02 -8.282568437E+02  8.515373942E+02  1.250000000E+02  0.00000E+00  9.000E+00
      21     1     1     2   501   511  2.431967983E+01  1.993657733E+01  2.807320938E+00  3.157206033E+01  6.938246922E-07  0.00000E+00  9.000E+00
#rwgt            1           1   2.0403296750707244E-002           1      217004           0
</event>
<event>
      5   9999  3.19816E-02  5.65479E+01 -1.00000E+00  1.36093E-01
      21    -1     0     0   502   501  0.000000000E+00  0.000000000E+00  5.205676829E+02  5.205676829E+02  0.000000000E+00  0.00000E+00  9.000E+00
      21    -1     0     0   512   502  0.000000000E+00  0.000000000E+00 -3.245836928E+02  3.245836928E+02  0.000000000E+00  0.00000E+00  9.000E+00
      25     1     1     2     0     0 -2.659780079E+02  5.253313989E+01 -3.519818251E+01  3.006126137E+02  1.250000000E+02  0.00000E+00  9.000E+00
      25     1     1     2     0     0  3.060711912E+02 -9.241042553E+01  2.996984597E+02  4.557010287E+02  1.250000000E+02  0.00000E+00  9.000E+00
      21     1     1     2   512   501 -4.009318330E+01  3.987728564E+01 -6.851628701E+01  8.883773322E+01  1.348699152E-06  0.00000E+00  9.000E+00
#rwgt            1           1   2.8924789172003286E-002           1      217112           0
</event>
<event>
      5   9999  3.19816E-02  2.13884E+01 -1.00000E+00  1.64000E-01
      21    -1     0     0   502   501  0.000000000E+00  0.000000000E+00  1.028210949E+02  1.028210949E+02  0.000000000E+00  0.00000E+00  9.000E+00
      21    -1     0     0   501   511  0.000000000E+00  0.000000000E+00 -8.854202422E+02  8.854202422E+02  0.000000000E+00  0.00000E+00  9.000E+00
      25     1     1     2     0     0  1.314201676E+02  1.279911956E+02 -5.994232338E+02  6.392074935E+02  1.250000000E+02  0.00000E+00  9.000E+00
      25     1     1     2     0     0 -1.137382787E+02 -1.400250205E+02 -6.494007059E+01  2.288790405E+02  1.250000000E+02  0.00000E+00  9.000E+00
      21     1     1     2   502   511 -1.768188889E+01  1.203382492E+01 -1.182358429E+02  1.201548030E+02  0.000000000E+00  0.00000E+00  9.000E+00
#rwgt            1           1   2.1626120421182008E-002           1      217178           0
</event>
<event>
      5   9999  3.19816E-02  9.08158E+01 -1.00000E+00  1.25739E-01
      21    -1     0     0   512   501  0.000000000E+00  0.000000000E+00  1.441616180E+03  1.441616180E+03  0.000000000E+00  0.00000E+00  9.000E+00
      21    -1     0     0   501   502  0.000000000E+00  0.000000000E+00 -1.609010055E+02  1.609010055E+02  0.000000000E+00  0.00000E+00  9.000E+00
      25     1     1     2     0     0 -3.292474213E+01  8.068360304E+01  1.633084831E+02  2.233574335E+02  1.250000000E+02  0.00000E+00  9.000E+00
      25     1     1     2     0     0  5.217716424E+01 -1.694351979E+02 -3.796826982E+01  2.202210986E+02  1.250000000E+02  0.00000E+00  9.000E+00
      21     1     1     2   512   502 -1.925242211E+01  8.875159489E+01  1.155374961E+03  1.158938654E+03  0.000000000E+00  0.00000E+00  9.000E+00
#rwgt            1           1   2.6670832457457903E-002           1      217388           0
</event>
<event>
      5   9999  3.19816E-02  4.46978E+01 -1.00000E+00  1.41911E-01
      21    -1     0     0   511   501  0.000000000E+00  0.000000000E+00  1.874889580E+02  1.874889580E+02  0.000000000E+00  0.00000E+00  9.000E+00
      21    -1     0     0   501   502  0.000000000E+00  0.000000000E+00 -4.552628999E+02  4.552628999E+02  0.000000000E+00  0.00000E+00  9.000E+00
      25     1     1     2     0     0 -1.658803097E+02  2.169637414E+01 -2.505678270E+01  2.103327178E+02  1.250000000E+02  0.00000E+00  9.000E+00
      25     1     1     2     0     0  1.647367937E+02 -6.637957758E+01 -2.932736810E+02  3.649368596E+02  1.250000000E+02  0.00000E+00  9.000E+00
      21     1     1     2   511   502  1.143516020E+00  4.468320344E+01  5.055652172E+01  6.748228054E+01  1.507891493E-06  0.00000E+00  9.000E+00
#rwgt            1           1   2.5715107451278838E-002           1      217482           0
</event>
<event>
      5   9999  3.19816E-02  2.16809E+02 -1.00000E+00  1.10387E-01
      21    -1     0     0   512   501  0.000000000E+00  0.000000000E+00  1.531422638E+02  1.531422638E+02  0.000000000E+00  0.00000E+00  9.000E+00
      21    -1     0     0   501   502  0.000000000E+00  0.000000000E+00 -1.516888337E+03  1.516888337E+03  0.000000000E+00  0.00000E+00  9.000E+00
      25     1     1     2     0     0 -3.297243909E+02 -1.935692702E+02 -1.085517638E+03  1.157653134E+03  1.250000000E+02  0.00000E+00  9.000E+00
      25     1     1     2     0     0  1.629168292E+02  5.507219896E+01 -1.217225635E+02  2.449820867E+02  1.250000000E+02  0.00000E+00  9.000E+00
      21     1     1     2   512   502  1.668075617E+02  1.384970712E+02 -1.565058716E+02  2.673953800E+02  4.672030912E-06  0.00000E+00  9.000E+00
#rwgt            1           1   2.7047559834578436E-002           1      217571           0
</event>
<event>
      5   9999  3.19816E-02  1.40285E+01 -1.00000E+00  1.80168E-01
      21    -1     0     0   511   501  0.000000000E+00  0.000000000E+00  8.217953874E+02  8.217953874E+02  0.000000000E+00  0.00000E+00  9.000E+00
      21    -1     0     0   501   502  0.000000000E+00  0.000000000E+00 -1.305958722E+02  1.305958722E+02  0.000000000E+00  0.00000E+00  9.000E+00
      25     1     1     2     0     0 -1.622955105E+02 -1.558820298E+02  5.814345299E+02  6.358696034E+02  1.250000000E+02  0.00000E+00  9.000E+00
      25     1     1     2     0     0  1.501925016E+02  1.487886861E+02  4.429483323E+01  2.495654080E+02  1.250000000E+02  0.00000E+00  9.000E+00
      21     1     1     2   511   502  1.210300895E+01  7.093343672E+00  6.547015216E+01  6.695624820E+01  0.000000000E+00  0.00000E+00  9.000E+00
#rwgt            1           1   2.7747418376646051E-002           1      217610           0
</event>
<event>
      5   9999  3.19816E-02  1.95078E+01 -1.00000E+00  1.67267E-01
      21    -1     0     0   502   501  0.000000000E+00  0.000000000E+00  1.798199018E+02  1.798199018E+02  0.000000000E+00  0.00000E+00  9.000E+00
      21    -1     0     0   501   512  0.000000000E+00  0.000000000E+00 -5.317263250E+02  5.317263250E+02  0.000000000E+00  0.00000E+00  9.000E+00
      25     1     1     2     0     0 -2.210185785E+02 -7.459251333E+01 -1.895817747E+01  2.653255878E+02  1.250000000E+02  0.00000E+00  9.000E+00
      25     1     1     2     0     0  2.283643077E+02  9.266445577E+01 -2.995620695E+02  4.075529314E+02  1.250000000E+02  0.00000E+00  9.000E+00
      21     1     1     2   502   512 -7.345729211E+00 -1.807194244E+01 -3.338617630E+01  3.866770757E+01  6.743495762E-07  0.00000E+00  9.000E+00
#rwgt            1           1   2.8899429905531647E-002           1      217878           0
</event>
<event>
      5   9999  3.19816E-02  4.18114E+01 -1.00000E+00  1.43657E-01
      21    -1     0     0   502   511  0.000000000E+00  0.000000000E+00  4.613496229E+02  4.613496229E+02  0.000000000E+00  0.00000E+00  9.000E+00
      21    -1     0     0   501   502  0.000000000E+00  0.000000000E+00 -6.328556410E+02  6.328556410E+02  0.000000000E+00  0.00000E+00  9.000E+00
      25     1     1     2     0     0  2.413811159E+02 -1.770226168E+02  3.275644695E+02  4.610046981E+02  1.250000000E+02  0.00000E+00  9.000E+00
      25     1     1     2     0     0 -2.023637244E+02  1.920504708E+02 -5.056428598E+02  5.908757585E+02  1.250000000E+02  0.00000E+00  9.000E+00
      21     1     1     2   501   511 -3.901739148E+01 -1.502785401E+01  6.572372210E+00  4.232480727E+01  5.900558792E-07  0.00000E+00  9.000E+00
#rwgt            1           1   2.6602670982804246E-002           1      217987           0
</event>
<event>
      5   9999  3.19816E-02  1.68452E+02 -1.00000E+00  1.14431E-01
      21    -1     0     0   502   512  0.000000000E+00  0.000000000E+00  1.215636735E+03  1.215636735E+03  0.000000000E+00  0.00000E+00  9.000E+00
      21    -1     0     0   501   502  0.000000000E+00  0.000000000E+00 -4.002904294E+02  4.002904294E+02  0.000000000E+00  0.00000E+00  9.000E+00
      25     1     1     2     0     0  3.580708446E+02 -6.628997361E+01 -2.270601111E+02  4.469791767E+02  1.250000000E+02  0.00000E+00  9.000E+00
      25     1     1     2     0     0 -3.056857139E+02 -9.380951088E+01  5.483102591E+02  6.469259001E+02  1.250000000E+02  0.00000E+00  9.000E+00
      21     1     1     2   501   512 -5.238513070E+01  1.600994845E+02  4.940961577E+02  5.220220876E+02  1.078959322E-05  0.00000E+00  9.000E+00
#rwgt            1           1   3.4434889451235316E-002           1      218160           0
</event>
<event>
      5   9999  3.19816E-02  8.72280E+01 -1.00000E+00  1.26557E-01
      21    -1     0     0   502   501  0.000000000E+00  0.000000000E+00  6.480621450E+01  6.480621450E+01  0.000000000E+00  0.00000E+00  9.000E+00
       2    -1     0     0   501     0  0.000000000E+00  0.000000000E+00 -3.106915571E+03  3.106915571E+03  0.000000000E+00  0.00000E+00  9.000E+00
      25     1     1     2     0     0  1.920602084E+02  2.769163357E+01 -1.902940130E+02  2.991500654E+02  1.250000000E+02  0.00000E+00  9.000E+00
      25     1     1     2     0     0 -1.090393187E+02 -9.287872441E-01 -7.155062495E+02  7.344825585E+02  1.250000000E+02  0.00000E+00  9.000E+00
       2     1     1     2   502     0 -8.302088972E+01 -2.676284633E+01 -2.136309094E+03  2.138089161E+03  3.051757812E-05  0.00000E+00  9.000E+00
#rwgt            1           1   3.3574798128130863E-002           1      218200           0
</event>
<event>
      5   9999  3.19816E-02  2.58217E+01 -1.00000E+00  1.57706E-01
      21    -1     0     0   502   501  0.000000000E+00  0.000000000E+00  4.790811353E+02  4.790811353E+02  0.000000000E+00  0.00000E+00  9.000E+00
      21    -1     0     0   501   511  0.000000000E+00  0.000000000E+00 -1.360106950E+03  1.360106950E+03  0.000000000E+00  0.00000E+00  9.000E+00
      25     1     1     2     0     0  2.579084903E+02  9.215700427E+01  5.237431923E+01  3.055777677E+02  1.250000000E+02  0.00000E+00  9.000E+00
      25     1     1     2     0     0 -2.784834607E+02 -7.655475872E+01  2.174171084E+02  3.825034222E+02  1.250000000E+02  0.00000E+00  9.000E+00
      21     1     1     2   502   511  2.057497039E+01 -1.560224554E+01 -1.150817243E+03  1.151106896E+03  1.525878906E-05  0.00000E+00  9.000E+00
#rwgt            1           1   2.7973380287856713E-002           1      218280           0
</event>
<event>
      5   9999  3.19816E-02  7.15773E+01 -1.00000E+00  1.30732E-01
      21    -1     0     0   502   501  0.000000000E+00  0.000000000E+00  9.714846206E+01  9.714846206E+01  0.000000000E+00  0.00000E+00  9.000E+00
      21    -1     0     0   512   502  0.000000000E+00  0.000000000E+00 -1.238489759E+03  1.238489759E+03  0.000000000E+00  0.00000E+00  9.000E+00
      25     1     1     2     0     0  2.202792386E+02 -8.826791103E+01 -8.774199914E+02  9.174993233E+02  1.250000000E+02  0.00000E+00  9.000E+00
      25     1     1     2     0     0 -1.489601394E+02  9.434241339E+01 -9.775973451E+01  2.372163143E+02  1.250000000E+02  0.00000E+00  9.000E+00
      21     1     1     2   512   501 -7.131909918E+01 -6.074502361E+00 -1.661615713E+02  1.809225837E+02  3.814697266E-06  0.00000E+00  9.000E+00
#rwgt            1           1   2.3487027765805687E-002           1      218404           0
</event>
<event>
      5   9999  3.19816E-02  1.18623E+02 -1.00000E+00  1.20581E-01
      21    -1     0     0   502   501  0.000000000E+00  0.000000000E+00  9.798794171E+02  9.798794171E+02  0.000000000E+00  0.00000E+00  9.000E+00
      21    -1     0     0   511   502  0.000000000E+00  0.000000000E+00 -3.735304369E+02  3.735304369E+02  0.000000000E+00  0.00000E+00  9.000E+00
      25     1     1     2     0     0 -3.427872220E+02  2.206952517E+02 -9.078296523E+01  4.359770871E+02  1.250000000E+02  0.00000E+00  9.000E+00
      25     1     1     2     0     0  4.194459419E+02 -1.301697580E+02  6.388643227E+02  7.852717281E+02  1.250000000E+02  0.00000E+00  9.000E+00
      21     1     1     2   511   501 -7.665871990E+01 -9.052549365E+01  5.826762278E+01  1.321610389E+02  1.907348633E-06  0.00000E+00  9.000E+00
#rwgt            1           1   2.4347187013622144E-002           1      218498           0
</event>
<event>
      5   9999  3.19816E-02  1.11441E+02 -1.00000E+00  1.21748E-01
      21    -1     0     0   502   501  0.000000000E+00  0.000000000E+00  1.913411298E+02  1.913411298E+02  0.000000000E+00  0.00000E+00  9.000E+00
       2    -1     0     0   501     0  0.000000000E+00  0.000000000E+00 -1.012790263E+03  1.012790263E+03  0.000000000E+00  0.00000E+00  9.000E+00
      25     1     1     2     0     0  5.124105946E+01 -3.503844466E+01 -3.154664302E+02  3.449600084E+02  1.250000000E+02  0.00000E+00  9.000E+00
      25     1     1     2     0     0 -1.337433384E+02  1.099555505E+02  1.051004744E+02  2.380096917E+02  1.250000000E+02  0.00000E+00  9.000E+00
       2     1     1     2   502     0  8.250227891E+01 -7.491710580E+01 -6.110831778E+02  6.211616931E+02  0.000000000E+00  0.00000E+00  9.000E+00
#rwgt            1           1   3.1288190427130866E-002           1      218574           0
</event>
<event>
      5   9999  3.19816E-02  2.77673E+01 -1.00000E+00  1.55410E-01
      21    -1     0     0   502   511  0.000000000E+00  0.000000000E+00  4.786653305E+02  4.786653305E+02  0.000000000E+00  0.00000E+00  9.000E+00
      21    -1     0     0   501   502  0.000000000E+00  0.000000000E+00 -3.621533824E+02  3.621533824E+02  0.000000000E+00  0.00000E+00  9.000E+00
      25     1     1     2     0     0 -2.089844562E+02  3.728067551E+01 -1.140970895E+02  2.714912477E+02  1.250000000E+02  0.00000E+00  9.000E+00
      25     1     1     2     0     0  2.355795299E+02 -4.526355592E+01 -6.026240953E+01  2.771336544E+02  1.250000000E+02  0.00000E+00  9.000E+00
      21     1     1     2   501   511 -2.659507369E+01  7.982880414E+00  2.908714472E+02  2.921938108E+02  3.814697266E-06  0.00000E+00  9.000E+00
#rwgt            1           1   2.6282133227825983E-002           1      218693           0
</event>
<event>
      5   9999  3.19816E-02  5.83210E+01 -1.00000E+00  1.35365E-01
      21    -1     0     0   502   501  0.000000000E+00  0.000000000E+00  4.318321987E+02  4.318321987E+02  0.000000000E+00  0.00000E+00  9.000E+00
      21    -1     0     0   501   512  0.000000000E+00  0.000000000E+00 -2.126614632E+02  2.126614632E+02  0.000000000E+00  0.00000E+00  9.000E+00
      25     1     1     2     0     0  1.411425904E-01  1.815697578E+02 -4.661776368E+01  2.253126999E+02  1.250000000E+02  0.00000E+00  9.000E+00
      25     1     1     2     0     0 -5.223864485E+01 -2.077841226E+02  2.619141316E+02  3.607313820E+02  1.250000000E+02  0.00000E+00  9.000E+00
      21     1     1     2   502   512  5.209750226E+01  2.621436486E+01  3.874367563E+00  5.844957990E+01  1.486535539E-06  0.00000E+00  9.000E+00
#rwgt            1           1   2.7076685725735693E-002           1      218814           0
</event>
<event>
      5   9999  3.19816E-02  1.63672E+02 -1.00000E+00  1.14912E-01
      21    -1     0     0   502   501  0.000000000E+00  0.000000000E+00  7.353324544E+02  7.353324544E+02  0.000000000E+00  0.00000E+00  9.000E+00
       1    -1     0     0   501     0  0.000000000E+00  0.000000000E+00 -4.594634921E+02  4.594634921E+02  0.000000000E+00  0.00000E+00  9.000E+00
      25     1     1     2     0     0  1.998267258E+02 -1.618681626E+02  2.153935005E+00  2.859399619E+02  1.250000000E+02  0.00000E+00  9.000E+00
      25     1     1     2     0     0 -4.420010462E+01  2.125538474E+02  5.405753122E+02  5.958015236E+02  1.250000000E+02  0.00000E+00  9.000E+00
       1     1     1     2   502     0 -1.556266211E+02 -5.068568486E+01 -2.668602850E+02  3.130544610E+02  5.394796609E-06  0.00000E+00  9.000E+00
#rwgt            1           1   2.8115052586503004E-002           1      218907           0
</event>
<event>
      5   9999  3.19816E-02  3.49202E+02 -1.00000E+00  1.03492E-01
      21    -1     0     0   511   501  0.000000000E+00  0.000000000E+00  1.453937545E+03  1.453937545E+03  0.000000000E+00  0.00000E+00  9.000E+00
      21    -1     0     0   501   502  0.000000000E+00  0.000000000E+00 -2.019919012E+02  2.019919012E+02  0.000000000E+00  0.00000E+00  9.000E+00
      25     1     1     2     0     0  2.443325159E+02  7.490871705E+01  4.388700036E+01  2.878554550E+02  1.250000000E+02  0.00000E+00  9.000E+00
      25     1     1     2     0     0 -3.295832349E+01  2.030532947E+02  2.441339569E+02  3.428458552E+02  1.250000000E+02  0.00000E+00  9.000E+00
      21     1     1     2   511   502 -2.113741924E+02 -2.779620117E+02  9.639246864E+02  1.025228136E+03  1.078959322E-05  0.00000E+00  9.000E+00
#rwgt            2          11   2.2532881787424956E-003           1      218952           0
</event>
<event>
      5   9999  3.19816E-02  5.61107E+01 -1.00000E+00  1.36277E-01
      21    -1     0     0   502   501  0.000000000E+00  0.000000000E+00  6.759495981E+01  6.759495981E+01  0.000000000E+00  0.00000E+00  9.000E+00
      21    -1     0     0   501   512  0.000000000E+00  0.000000000E+00 -6.849862052E+02  6.849862052E+02  0.000000000E+00  0.00000E+00  9.000E+00
      25     1     1     2     0     0 -1.625259918E+01 -1.312805176E+02 -1.946052208E+02  2.664487066E+02  1.250000000E+02  0.00000E+00  9.000E+00
      25     1     1     2     0     0  6.776762819E+01  1.090406186E+02 -2.768117342E+02  3.297454232E+02  1.250000000E+02  0.00000E+00  9.000E+00
      21     1     1     2   502   512 -5.151502901E+01  2.223989900E+01 -1.459742903E+02  1.563870351E+02  1.907348633E-06  0.00000E+00  9.000E+00
#rwgt            1           1   2.5015021278858657E-002           1      218972           0
</event>
<event>
      5   9999  3.19816E-02  8.25768E+01 -1.00000E+00  1.27687E-01
      21    -1     0     0   511   501  0.000000000E+00  0.000000000E+00  2.039115356E+03  2.039115356E+03  0.000000000E+00  0.00000E+00  9.000E+00
      21    -1     0     0   501   502  0.000000000E+00  0.000000000E+00 -4.625326390E+02  4.625326390E+02  0.000000000E+00  0.00000E+00  9.000E+00
      25     1     1     2     0     0 -3.300215362E+02 -1.598712147E+02 -4.270338528E+01  3.897712134E+02  1.250000000E+02  0.00000E+00  9.000E+00
      25     1     1     2     0     0  2.767652578E+02  9.676259080E+01 -1.418062019E+02  3.488495460E+02  1.250000000E+02  0.00000E+00  9.000E+00
      21     1     1     2   511   502  5.325627849E+01  6.310862390E+01  1.761092304E+03  1.763027235E+03  3.051757812E-05  0.00000E+00  9.000E+00
#rwgt            1           1   2.8306258733138884E-002           1      219036           0
</event>
<event>
      5   9999  3.19816E-02  3.54730E+02 -1.00000E+00  1.03280E-01
      21    -1     0     0   512   501  0.000000000E+00  0.000000000E+00  4.727339378E+02  4.727339378E+02  0.000000000E+00  0.00000E+00  9.000E+00
      21    -1     0     0   501   502  0.000000000E+00  0.000000000E+00 -9.544724326E+02  9.544724326E+02  0.000000000E+00  0.00000E+00  9.000E+00
      25     1     1     2     0     0  3.839240278E+02 -4.124051722E+02 -3.973251170E+02  7.006910401E+02  1.250000000E+02  0.00000E+00  9.000E+00
      25     1     1     2     0     0 -1.678964239E+02  1.310421013E+02 -2.352298960E+02  3.410562204E+02  1.250000000E+02  0.00000E+00  9.000E+00
      21     1     1     2   512   502 -2.160276038E+02  2.813630709E+02  1.508165181E+02  3.854591099E+02  7.136645101E-06  0.00000E+00  9.000E+00
#rwgt            1           1   2.9244496870803088E-002           1      219123           0
</event>
<event>
      5   9999  3.19816E-02  9.40985E+00 -1.00000E+00  1.98861E-01
      21    -1     0     0   502   501  0.000000000E+00  0.000000000E+00  1.073122218E+03  1.073122218E+03  0.000000000E+00  0.00000E+00  9.000E+00
      21    -1     0     0   501   511  0.000000000E+00  0.000000000E+00 -9.068958317E+02  9.068958317E+02  0.000000000E+00  0.00000E+00  9.000E+00
      25     1     1     2     0     0  6.447760685E+02  1.312216916E+01  7.489866614E+02  9.962501637E+02  1.250000000E+02  0.00000E+00  9.000E+00
      25     1     1     2     0     0 -6.373045866E+02 -7.401833831E+00 -3.257795133E+02  7.266149011E+02  1.250000000E+02  0.00000E+00  9.000E+00
      21     1     1     2   502   511 -7.471481879E+00 -5.720335324E+00 -2.569807623E+02  2.571529845E+02  5.394796609E-06  0.00000E+00  9.000E+00
#rwgt            1           1   2.8270311227467506E-002           1      219153           0
</event>
<event>
      5   9999  3.19816E-02  2.05097E+02 -1.00000E+00  1.11252E-01
      21    -1     0     0   502   512  0.000000000E+00  0.000000000E+00  2.098309540E+02  2.098309540E+02  0.000000000E+00  0.00000E+00  9.000E+00
      21    -1     0     0   501   502  0.000000000E+00  0.000000000E+00 -7.335303256E+02  7.335303256E+02  0.000000000E+00  0.00000E+00  9.000E+00
      25     1     1     2     0     0  4.233258201E+01  4.963365630E+01  7.788401915E+01  1.610790731E+02  1.250000000E+02  0.00000E+00  9.000E+00
      25     1     1     2     0     0  1.334008213E+02 -1.553813244E+02 -4.973983372E+02  5.522402022E+02  1.250000000E+02  0.00000E+00  9.000E+00
      21     1     1     2   501   512 -1.757334033E+02  1.057476681E+02 -1.041850535E+02  2.300420043E+02  2.336015456E-06  0.00000E+00  9.000E+00
#rwgt            1           1   2.8654429423488111E-002           1      219562           0
</event>
<event>
      5   9999  3.19816E-02  4.71384E+01 -1.00000E+00  1.40552E-01
      21    -1     0     0   511   501  0.000000000E+00  0.000000000E+00  1.549053125E+03  1.549053125E+03  0.000000000E+00  0.00000E+00  9.000E+00
      21    -1     0     0   501   502  0.000000000E+00  0.000000000E+00 -1.044074782E+02  1.044074782E+02  0.000000000E+00  0.00000E+00  9.000E+00
      25     1     1     2     0     0 -9.059809286E+01 -9.436053577E+01  2.223795558E+02  2.866872721E+02  1.250000000E+02  0.00000E+00  9.000E+00
      25     1     1     2     0     0  4.537938421E+01  1.076759645E+02  3.017380184E+01  1.737494177E+02  1.250000000E+02  0.00000E+00  9.000E+00
      21     1     1     2   511   502  4.521870864E+01 -1.331542874E+01  1.192092289E+03  1.193023914E+03  2.157918644E-05  0.00000E+00  9.000E+00
#rwgt            1           1   2.6066444161730439E-002           1      219639           0
</event>
<event>
      5   9999  3.19816E-02  5.80581E+00 -1.00000E+00  2.27714E-01
      21    -1     0     0   502   501  0.000000000E+00  0.000000000E+00  5.432707669E+02  5.432707669E+02  0.000000000E+00  0.00000E+00  9.000E+00
      21    -1     0     0   501   512  0.000000000E+00  0.000000000E+00 -1.631102062E+02  1.631102062E+02  0.000000000E+00  0.00000E+00  9.000E+00
      25     1     1     2     0     0  1.393426103E+01  2.028020214E+02 -1.227354748E+01  2.389528478E+02  1.250000000E+02  0.00000E+00  9.000E+00
      25     1     1     2     0     0 -1.591445635E+01 -2.082597036E+02  3.922261429E+02  4.616185885E+02  1.250000000E+02  0.00000E+00  9.000E+00
      21     1     1     2   502   512  1.980195321E+00  5.457682225E+00  2.079653543E-01  5.809536846E+00  5.500325210E-08  0.00000E+00  9.000E+00
#rwgt            1           1   2.7992481376823211E-002           1      219735           0
</event>
<event>
      5   9999  3.19816E-02  1.30355E+01 -1.00000E+00  1.83326E-01
      21    -1     0     0   502   501  0.000000000E+00  0.000000000E+00  1.535297083E+01  1.535297083E+01  0.000000000E+00  0.00000E+00  9.000E+00
      21    -1     0     0   501   511  0.000000000E+00  0.000000000E+00 -2.181893404E+03  2.181893404E+03  0.000000000E+00  0.00000E+00  9.000E+00
      25     1     1     2     0     0  8.236915986E+01  2.968343143E+01 -5.301237074E+02  5.516538133E+02  1.250000000E+02  0.00000E+00  9.000E+00
      25     1     1     2     0     0 -8.990579410E+01 -4.031938277E+01 -1.446926373E+03  1.455654366E+03  1.250000000E+02  0.00000E+00  9.000E+00
      21     1     1     2   502   511  7.536634241E+00  1.063595134E+01 -1.894903519E+02  1.899381946E+02  0.000000000E+00  0.00000E+00  9.000E+00
#rwgt            1           1   6.4647759973118668E-002           1      220131           0
</event>
<event>
      5   9999  3.19816E-02  3.51925E+01 -1.00000E+00  1.48376E-01
      21    -1     0     0   512   501  0.000000000E+00  0.000000000E+00  1.541343777E+03  1.541343777E+03  0.000000000E+00  0.00000E+00  9.000E+00
      21    -1     0     0   501   502  0.000000000E+00  0.000000000E+00 -2.202107245E+02  2.202107245E+02  0.000000000E+00  0.00000E+00  9.000E+00
      25     1     1     2     0     0 -4.981074438E+01  1.098553441E+02  6.817442424E+00  1.738412621E+02  1.250000000E+02  0.00000E+00  9.000E+00
      25     1     1     2     0     0  1.540732238E+01 -1.172657067E+02 -8.223063555E+01  1.907236456E+02  1.250000000E+02  0.00000E+00  9.000E+00
      21     1     1     2   512   502  3.440342200E+01  7.410362630E+00  1.396546246E+03  1.396989594E+03  3.051757812E-05  0.00000E+00  9.000E+00
#rwgt            1           1   3.5781002456980814E-002           1      220226           0
</event>
<event>
      5   9999  3.19816E-02  2.95591E+01 -1.00000E+00  1.53488E-01
      21    -1     0     0   502   501  0.000000000E+00  0.000000000E+00  9.589317976E+02  9.589317976E+02  0.000000000E+00  0.00000E+00  9.000E+00
       2    -1     0     0   501     0  0.000000000E+00  0.000000000E+00 -7.427056983E+02  7.427056983E+02  0.000000000E+00  0.00000E+00  9.000E+00
      25     1     1     2     0     0  1.475602626E+02 -7.082538625E+02  3.138070744E+02  7.984343709E+02  1.250000000E+02  0.00000E+00  9.000E+00
      25     1     1     2     0     0 -1.732946443E+02  7.227962476E+02  4.743146574E+01  7.552087084E+02  1.250000000E+02  0.00000E+00  9.000E+00
       2     1     1     2   502     0  2.573438166E+01 -1.454238513E+01 -1.450124408E+02  1.479944166E+02  2.697398305E-06  0.00000E+00  9.000E+00
#rwgt            1           1   2.7083880494439154E-002           1      220325           0
</event>
<event>
      5   9999  3.19816E-02  2.36367E+01 -1.00000E+00  1.60597E-01
      21    -1     0     0   502   501  0.000000000E+00  0.000000000E+00  5.382587025E+02  5.382587025E+02  0.000000000E+00  0.00000E+00  9.000E+00
      21    -1     0     0   501   511  0.000000000E+00  0.000000000E+00 -1.124788761E+03  1.124788761E+03  0.000000000E+00  0.00000E+00  9.000E+00
      25     1     1     2     0     0 -5.504513722E+02  7.426932636E+01 -7.438822870E+02  9.367489006E+02  1.250000000E+02  0.00000E+00  9.000E+00
      25     1     1     2     0     0  5.482099061E+02 -5.073917283E+01  2.595742405E+02  6.213793939E+02  1.250000000E+02  0.00000E+00  9.000E+00
      21     1     1     2   502   511  2.241466028E+00 -2.353015354E+01 -1.022220121E+02  1.049191691E+02  0.000000000E+00  0.00000E+00  9.000E+00
#rwgt            1           1   3.2562575490501400E-002           1      220471           0
</event>
<event>
      5   9999  3.19816E-02  2.42408E+01 -1.00000E+00  1.59761E-01
      21    -1     0     0   502   501  0.000000000E+00  0.000000000E+00  6.153226151E+02  6.153226151E+02  0.000000000E+00  0.00000E+00  9.000E+00
      21    -1     0     0   501   512  0.000000000E+00  0.000000000E+00 -2.721262826E+03  2.721262826E+03  0.000000000E+00  0.00000E+00  9.000E+00
      25     1     1     2     0     0  9.122209473E+02  3.031998631E+02 -5.817949126E+01  9.711266997E+02  1.250000000E+02  0.00000E+00  9.000E+00
      25     1     1     2     0     0 -9.181540517E+02 -2.796963208E+02 -1.317675166E+03  1.634970867E+03  1.250000000E+02  0.00000E+00  9.000E+00
      21     1     1     2   502   512  5.933104370E+00 -2.350354235E+01 -7.300855540E+02  7.304878742E+02  1.078959322E-05  0.00000E+00  9.000E+00
#rwgt            1           1   3.1524696638722469E-002           1      220694           0
</event>
<event>
      5   9999  3.19816E-02  1.39736E+01 -1.00000E+00  1.80334E-01
      21    -1     0     0   511   501  0.000000000E+00  0.000000000E+00  2.432371444E+02  2.432371444E+02  0.000000000E+00  0.00000E+00  9.000E+00
      21    -1     0     0   501   502  0.000000000E+00  0.000000000E+00 -1.712592720E+03  1.712592720E+03  0.000000000E+00  0.00000E+00  9.000E+00
      25     1     1     2     0     0 -5.909147891E+02 -6.626793849E+01 -4.990163837E+02  7.862659085E+02  1.250000000E+02  0.00000E+00  9.000E+00
      25     1     1     2     0     0  6.043236277E+02  7.020041431E+01 -9.739459447E+02  1.155132394E+03  1.250000000E+02  0.00000E+00  9.000E+00
      21     1     1     2   511   502 -1.340883856E+01 -3.932475816E+00  3.606752513E+00  1.443156198E+01  4.339283639E-07  0.00000E+00  9.000E+00
#rwgt            2          11   5.5913425693623906E-003           1      220917           0
</event>
<event>
      5   9999  3.19816E-02  4.52689E+01 -1.00000E+00  1.41584E-01
      21    -1     0     0   502   501  0.000000000E+00  0.000000000E+00  5.598447981E+02  5.598447981E+02  0.000000000E+00  0.00000E+00  9.000E+00
      21    -1     0     0   512   502  0.000000000E+00  0.000000000E+00 -6.634536265E+01  6.634536265E+01  0.000000000E+00  0.00000E+00  9.000E+00
      25     1     1     2     0     0 -2.412297326E+01  7.494489453E+01  2.788557033E+02  3.155695777E+02  1.250000000E+02  0.00000E+00  9.000E+00
      25     1     1     2     0     0  2.283843880E+01 -1.201955862E+02  1.929273878E+02  2.604122697E+02  1.250000000E+02  0.00000E+00  9.000E+00
      21     1     1     2   512   501  1.284534452E+00  4.525069167E+01  2.171634425E+01  5.020831338E+01  4.129530925E-07  0.00000E+00  9.000E+00
#rwgt            1           1   2.6733188893361553E-002           1      220952           0
</event>
<event>
      5   9999  3.19816E-02  2.42195E+01 -1.00000E+00  1.59790E-01
      21    -1     0     0   502   511  0.000000000E+00  0.000000000E+00  4.385597427E+01  4.385597427E+01  0.000000000E+00  0.00000E+00  9.000E+00
      21    -1     0     0   501   502  0.000000000E+00  0.000000000E+00 -8.566495978E+02  8.566495978E+02  0.000000000E+00  0.00000E+00  9.000E+00
      25     1     1     2     0     0 -2.530770726E+01 -5.696557053E+01 -1.407467353E+02  1.982932167E+02  1.250000000E+02  0.00000E+00  9.000E+00
      25     1     1     2     0     0  3.835833821E+00  6.817015755E+01 -6.599401913E+02  6.751354976E+02  1.250000000E+02  0.00000E+00  9.000E+00
      21     1     1     2   501   511  2.147187344E+01 -1.120458702E+01 -1.210669691E+01  2.707685782E+01  5.331201500E-07  0.00000E+00  9.000E+00
#rwgt            1           1   2.7225923418057976E-002           1      221059           0
</event>
<event>
      5   9999  3.19816E-02  1.41766E+02 -1.00000E+00  1.17374E-01
      21    -1     0     0   502   501  0.000000000E+00  0.000000000E+00  2.752281700E+02  2.752281700E+02  0.000000000E+00  0.00000E+00  9.000E+00
       1    -1     0     0   501     0  0.000000000E+00  0.000000000E+00 -3.258052363E+02  3.258052363E+02  0.000000000E+00  0.00000E+00  9.000E+00
      25     1     1     2     0     0  1.148845910E+02  6.744850274E+01  1.568240005E+02  2.407624076E+02  1.250000000E+02  0.00000E+00  9.000E+00
      25     1     1     2     0     0  2.671422969E+01 -7.433718489E+01 -1.386922313E+02  2.027318479E+02  1.250000000E+02  0.00000E+00  9.000E+00
       1     1     1     2   502     0 -1.415988207E+02  6.888682157E+00 -6.870883541E+01  1.575391508E+02  0.000000000E+00  0.00000E+00  9.000E+00
#rwgt            1           1   2.8487846062403628E-002           1      221173           0
</event>
<event>
      5   9999  3.19816E-02  1.92592E+01 -1.00000E+00  1.67733E-01
      21    -1     0     0   502   501  0.000000000E+00  0.000000000E+00  1.761358716E+03  1.761358716E+03  0.000000000E+00  0.00000E+00  9.000E+00
      21    -1     0     0   501   511  0.000000000E+00  0.000000000E+00 -3.752362004E+01  3.752362004E+01  0.000000000E+00  0.00000E+00  9.000E+00
      25     1     1     2     0     0  6.999640525E+01 -3.787801759E+01  1.132990697E+03  1.142640434E+03  1.250000000E+02  0.00000E+00  9.000E+00
      25     1     1     2     0     0 -8.820137213E+01  3.159346492E+01  6.096371789E+02  6.293330747E+02  1.250000000E+02  0.00000E+00  9.000E+00
      21     1     1     2   502   511  1.820496688E+01  6.284552673E+00 -1.879278005E+01  2.690882761E+01  1.039242493E-06  0.00000E+00  9.000E+00
#rwgt            1           1   7.5432225841546671E-002           1      221210           0
</event>
<event>
      5   9999  3.19816E-02  2.88030E+01 -1.00000E+00  1.54278E-01
      21    -1     0     0   502   501  0.000000000E+00  0.000000000E+00  1.259654439E+03  1.259654439E+03  0.000000000E+00  0.00000E+00  9.000E+00
      21    -1     0     0   512   502  0.000000000E+00  0.000000000E+00 -2.038733667E+02  2.038733667E+02  0.000000000E+00  0.00000E+00  9.000E+00
      25     1     1     2     0     0  4.112062714E+02 -7.331521001E+01  8.904318277E+02  9.914431691E+02  1.250000000E+02  0.00000E+00  9.000E+00
      25     1     1     2     0     0 -3.884723024E+02  5.562968073E+01  1.638031829E+02  4.432401988E+02  1.250000000E+02  0.00000E+00  9.000E+00
      21     1     1     2   512   501 -2.273396900E+01  1.768552928E+01  1.546061719E+00  2.884443793E+01  7.017798328E-07  0.00000E+00  9.000E+00
#rwgt            1           1   2.4102153378149624E-002           1      221321           0
</event>
<event>
      5   9999  3.19816E-02  1.16277E+02 -1.00000E+00  1.20952E-01
      21    -1     0     0   502   511  0.000000000E+00  0.000000000E+00  7.820951270E+02  7.820951270E+02  0.000000000E+00  0.00000E+00  9.000E+00
      21    -1     0     0   501   502  0.000000000E+00  0.000000000E+00 -2.970995835E+02  2.970995835E+02  0.000000000E+00  0.00000E+00  9.000E+00
      25     1     1     2     0     0  3.880392716E+02  1.357803269E+02  1.148479082E+02  4.447761409E+02  1.250000000E+02  0.00000E+00  9.000E+00
      25     1     1     2     0     0 -2.920105714E+02 -2.013463695E+02  1.935086950E+02  4.229434352E+02  1.250000000E+02  0.00000E+00  9.000E+00
      21     1     1     2   501   511 -9.602870019E+01  6.556604266E+01  1.766389403E+02  2.114751343E+02  3.303624740E-06  0.00000E+00  9.000E+00
#rwgt            1           1   2.8204428109223384E-002           1      221476           0
</event>
<event>
      5   9999  3.19816E-02  4.09954E+01 -1.00000E+00  1.44181E-01
      21    -1     0     0   502   512  0.000000000E+00  0.000000000E+00  6.826010332E+02  6.826010332E+02  0.000000000E+00  0.00000E+00  9.000E+00
      21    -1     0     0   501   502  0.000000000E+00  0.000000000E+00 -5.052917383E+01  5.052917383E+01  0.000000000E+00  0.00000E+00  9.000E+00
      25     1     1     2     0     0 -4.409761848E+01  9.539811948E+01  3.176714697E+02  3.571912147E+02  1.250000000E+02  0.00000E+00  9.000E+00
      25     1     1     2     0     0  1.612047295E+01 -6.543306651E+01  1.502217070E+02  2.067194163E+02  1.250000000E+02  0.00000E+00  9.000E+00
      21     1     1     2   501   512  2.797714553E+01 -2.996505298E+01  1.641786826E+02  1.692195760E+02  0.000000000E+00  0.00000E+00  9.000E+00
#rwgt            1           1   6.4198280711108863E-002           1      221518           0
</event>
<event>
      5   9999  3.19816E-02  1.48231E+02 -1.00000E+00  1.16598E-01
      21    -1     0     0   502   511  0.000000000E+00  0.000000000E+00  3.117854523E+03  3.117854523E+03  0.000000000E+00  0.00000E+00  9.000E+00
      21    -1     0     0   501   502  0.000000000E+00  0.000000000E+00 -6.105318214E+01  6.105318214E+01  0.000000000E+00  0.00000E+00  9.000E+00
      25     1     1     2     0     0  9.504189646E+01 -2.406657292E+02  1.388314910E+03  1.417743364E+03  1.250000000E+02  0.00000E+00  9.000E+00
      25     1     1     2     0     0 -2.157854915E+02  3.266499335E+02  1.120590443E+03  1.193570902E+03  1.250000000E+02  0.00000E+00  9.000E+00
      21     1     1     2   501   511  1.207435951E+02 -8.598420427E+01  5.478959879E+02  5.675934396E+02  0.000000000E+00  0.00000E+00  9.000E+00
#rwgt            1           1   6.2753988611393266E-002           1      221587           0
</event>
<event>
      5   9999  3.19816E-02  1.87052E+02 -1.00000E+00  1.12717E-01
      21    -1     0     0   512   501  0.000000000E+00  0.000000000E+00  9.796593332E+02  9.796593332E+02  0.000000000E+00  0.00000E+00  9.000E+00
      21    -1     0     0   501   502  0.000000000E+00  0.000000000E+00 -4.843532601E+02  4.843532601E+02  0.000000000E+00  0.00000E+00  9.000E+00
      25     1     1     2     0     0  1.652791478E+02 -1.468224209E+02  3.873200020E+02  4.631585084E+02  1.250000000E+02  0.00000E+00  9.000E+00
      25     1     1     2     0     0 -2.309144338E+02  3.219806660E+02 -3.261103218E+02  5.281722891E+02  1.250000000E+02  0.00000E+00  9.000E+00
      21     1     1     2   512   502  6.563528605E+01 -1.751582450E+02  4.340963930E+02  4.726817957E+02  0.000000000E+00  0.00000E+00  9.000E+00
#rwgt            1           1   2.8267028298203590E-002           1      221627           0
</event>
<event>
      5   9999  3.19816E-02  2.66602E+01 -1.00000E+00  1.56687E-01
      21    -1     0     0   502   501  0.000000000E+00  0.000000000E+00  2.643097082E+02  2.643097082E+02  0.000000000E+00  0.00000E+00  9.000E+00
       2    -1     0     0   501     0  0.000000000E+00  0.000000000E+00 -2.699181633E+03  2.699181633E+03  0.000000000E+00  0.00000E+00  9.000E+00
      25     1     1     2     0     0 -1.250781552E+02  1.547494523E+02  1.028065470E+02  2.564880583E+02  1.250000000E+02  0.00000E+00  9.000E+00
      25     1     1     2     0     0  1.506083297E+02 -1.624290347E+02 -1.066022649E+02  2.757808970E+02  1.250000000E+02  0.00000E+00  9.000E+00
       2     1     1     2   502     0 -2.553017447E+01  7.679582384E+00 -2.431076207E+03  2.431222386E+03  4.315837288E-05  0.00000E+00  9.000E+00
#rwgt            1           1   2.4545331226072078E-002           1      221667           0
</event>
<event>
      5   9999  3.19816E-02  1.00696E+01 -1.00000E+00  1.95410E-01
      21    -1     0     0   502   511  0.000000000E+00  0.000000000E+00  1.309571953E+03  1.309571953E+03  0.000000000E+00  0.00000E+00  9.000E+00
      21    -1     0     0   501   502  0.000000000E+00  0.000000000E+00 -4.136595486E+02  4.136595486E+02  0.000000000E+00  0.00000E+00  9.000E+00
      25     1     1     2     0     0 -1.736828307E+02 -3.112663659E+02  3.828458160E+02  5.378181803E+02  1.250000000E+02  0.00000E+00  9.000E+00
      25     1     1     2     0     0  1.734324801E+02  3.213328535E+02 -2.253525708E+02  4.469255073E+02  1.250000000E+02  0.00000E+00  9.000E+00
      21     1     1     2   501   511  2.503505789E-01 -1.006648759E+01  7.384191596E+02  7.384878144E+02  0.000000000E+00  0.00000E+00  9.000E+00
#rwgt            1           1   2.9904001790044467E-002           1      221775           0
</event>
<event>
      5   9999  3.19816E-02  2.26689E+02 -1.00000E+00  1.09703E-01
      21    -1     0     0   502   501  0.000000000E+00  0.000000000E+00  1.619006572E+02  1.619006572E+02  0.000000000E+00  0.00000E+00  9.000E+00
      21    -1     0     0   501   512  0.000000000E+00  0.000000000E+00 -1.468122620E+03  1.468122620E+03  0.000000000E+00  0.00000E+00  9.000E+00
      25     1     1     2     0     0  4.113334715E+02  1.965820884E+00 -2.953296349E+02  5.215780694E+02  1.250000000E+02  0.00000E+00  9.000E+00
      25     1     1     2     0     0 -1.846983335E+02 -6.901870035E+00 -5.824921350E+02  6.237653386E+02  1.250000000E+02  0.00000E+00  9.000E+00
      21     1     1     2   502   512 -2.266351380E+02  4.936049151E+00 -4.284001929E+02  4.846798692E+02  5.394796609E-06  0.00000E+00  9.000E+00
#rwgt            2          11   2.9879535204276587E-003           1      222054           0
</event>
<event>
      5   9999  3.19816E-02  7.77352E+01 -1.00000E+00  1.28956E-01
      21    -1     0     0   502   501  0.000000000E+00  0.000000000E+00  1.368027972E+02  1.368027972E+02  0.000000000E+00  0.00000E+00  9.000E+00
      21    -1     0     0   501   511  0.000000000E+00  0.000000000E+00 -2.607822798E+03  2.607822798E+03  0.000000000E+00  0.00000E+00  9.000E+00
      25     1     1     2     0     0  2.388254566E+02  1.620095875E+02 -1.225541757E+02  3.375340444E+02  1.250000000E+02  0.00000E+00  9.000E+00
      25     1     1     2     0     0 -3.165218665E+02 -1.595534355E+02 -1.235288788E+03  1.291203617E+03  1.250000000E+02  0.00000E+00  9.000E+00
      21     1     1     2   502   511  7.769640996E+01 -2.456151978E+00 -1.113177037E+03  1.115887934E+03  0.000000000E+00  0.00000E+00  9.000E+00
#rwgt            1           1   2.7583611200385112E-002           1      222074           0
</event>
<event>
      5   9999  3.19816E-02  2.27032E+01 -1.00000E+00  1.61951E-01
      21    -1     0     0   512   501  0.000000000E+00  0.000000000E+00  1.558553621E+03  1.558553621E+03  0.000000000E+00  0.00000E+00  9.000E+00
      21    -1     0     0   501   502  0.000000000E+00  0.000000000E+00 -1.674864417E+02  1.674864417E+02  0.000000000E+00  0.00000E+00  9.000E+00
      25     1     1     2     0     0 -2.200461457E+02  3.371209306E+02  2.346911988E+02  4.824684310E+02  1.250000000E+02  0.00000E+00  9.000E+00
      25     1     1     2     0     0  2.120050671E+02 -3.583524380E+02  1.096122916E+03  1.179183220E+03  1.250000000E+02  0.00000E+00  9.000E+00
      21     1     1     2   512   502  8.041078539E+00  2.123150746E+01  6.025306454E+01  6.438841231E+01  9.536743164E-07  0.00000E+00  9.000E+00
#rwgt            1           1   2.6870728891170918E-002           1      222166           0
</event>
<event>
      5   9999  3.19816E-02  6.27085E+01 -1.00000E+00  1.33687E-01
       2    -1     0     0   502     0  0.000000000E+00  0.000000000E+00  3.404538822E+02  3.404538822E+02  0.000000000E+00  0.00000E+00  9.000E+00
      21    -1     0     0   501   502  0.000000000E+00  0.000000000E+00 -1.447168247E+03  1.447168247E+03  0.000000000E+00  0.00000E+00  9.000E+00
      25     1     1     2     0     0  2.776257752E+02  6.985493811E+01 -1.947909716E+02  3.681362602E+02  1.250000000E+02  0.00000E+00  9.000E+00
      25     1     1     2     0     0 -2.930785361E+02 -1.306296935E+02 -1.135871481E+03  1.186923825E+03  1.250000000E+02  0.00000E+00  9.000E+00
       2     1     1     2   501     0  1.545276086E+01  6.077475541E+01  2.239480873E+02  2.325620444E+02  2.697398305E-06  0.00000E+00  9.000E+00
#rwgt            1           1   2.7258705572915386E-002           1      222403           0
</event>
<event>
      5   9999  3.19816E-02  5.66977E+01 -1.00000E+00  1.36030E-01
      21    -1     0     0   502   511  0.000000000E+00  0.000000000E+00  1.229252130E+03  1.229252130E+03  0.000000000E+00  0.00000E+00  9.000E+00
      21    -1     0     0   501   502  0.000000000E+00  0.000000000E+00 -9.383489529E+01  9.383489529E+01  0.000000000E+00  0.00000E+00  9.000E+00
      25     1     1     2     0     0 -4.643728212E+01 -1.735473281E+02  6.043213843E+02  6.427320062E+02  1.250000000E+02  0.00000E+00  9.000E+00
      25     1     1     2     0     0  1.031219493E+02  1.747640253E+02  1.227358277E+02  2.680777580E+02  1.250000000E+02  0.00000E+00  9.000E+00
      21     1     1     2   501   511 -5.668466717E+01 -1.216697168E+00  4.083600223E+02  4.122772606E+02  0.000000000E+00  0.00000E+00  9.000E+00
#rwgt            1           1   3.2976664328078768E-002           1      222476           0
</event>
<event>
      5   9999  3.19816E-02  9.18786E+01 -1.00000E+00  1.25505E-01
      21    -1     0     0   502   501  0.000000000E+00  0.000000000E+00  5.178086351E+02  5.178086351E+02  0.000000000E+00  0.00000E+00  9.000E+00
      21    -1     0     0   512   502  0.000000000E+00  0.000000000E+00 -3.657320196E+02  3.657320196E+02  0.000000000E+00  0.00000E+00  9.000E+00
      25     1     1     2     0     0 -3.015828916E+02  1.719891410E+02  7.626109195E+01  3.767933907E+02  1.250000000E+02  0.00000E+00  9.000E+00
      25     1     1     2     0     0  3.578518226E+02 -9.935665511E+01  1.126946976E+02  4.077435061E+02  1.250000000E+02  0.00000E+00  9.000E+00
      21     1     1     2   512   501 -5.626893103E+01 -7.263248593E+01 -3.687917401E+01  9.900375795E+01  2.523185073E-06  0.00000E+00  9.000E+00
#rwgt            1           1   2.6129490095465023E-002           1      222575           0
</event>
<event>
      5   9999  3.19816E-02  1.05515E+02 -1.00000E+00  1.22788E-01
      21    -1     0     0   511   501  0.000000000E+00  0.000000000E+00  1.497512869E+03  1.497512869E+03  0.000000000E+00  0.00000E+00  9.000E+00
      21    -1     0     0   501   502  0.000000000E+00  0.000000000E+00 -6.074058739E+02  6.074058739E+02  0.000000000E+00  0.00000E+00  9.000E+00
      25     1     1     2     0     0  2.169836321E+01  9.003919885E+01  7.113141228E+01  1.710630121E+02  1.250000000E+02  0.00000E+00  9.000E+00
      25     1     1     2     0     0 -1.106600908E+02 -1.467778053E+02 -5.331413623E+02  5.776279876E+02  1.250000000E+02  0.00000E+00  9.000E+00
      21     1     1     2   511   502  8.896172755E+01  5.673860644E+01  1.352116945E+03  1.356227743E+03  2.157918644E-05  0.00000E+00  9.000E+00
#rwgt            1           1   2.6637244775616308E-002           1      222661           0
</event>
<event>
      5   9999  3.19816E-02  2.35993E+01 -1.00000E+00  1.60650E-01
      21    -1     0     0   512   501  0.000000000E+00  0.000000000E+00  5.767596254E+01  5.767596254E+01  0.000000000E+00  0.00000E+00  9.000E+00
      21    -1     0     0   501   502  0.000000000E+00  0.000000000E+00 -8.792564556E+02  8.792564556E+02  0.000000000E+00  0.00000E+00  9.000E+00
      25     1     1     2     0     0  1.686035521E+02 -6.346725650E+00 -3.710522591E+02  4.263475316E+02  1.250000000E+02  0.00000E+00  9.000E+00
      25     1     1     2     0     0 -1.451750148E+02  9.180644079E+00 -4.474027479E+02  4.867795066E+02  1.250000000E+02  0.00000E+00  9.000E+00
      21     1     1     2   512   502 -2.342853725E+01 -2.833918429E+00 -3.125485960E+00  2.380537993E+01  4.042583694E-07  0.00000E+00  9.000E+00
#rwgt            1           1   3.0178949865252172E-002           1      222735           0
</event>
<event>
      5   9999  3.19816E-02  3.58730E+01 -1.00000E+00  1.47835E-01
      21    -1     0     0   502   501  0.000000000E+00  0.000000000E+00  7.742013688E+01  7.742013688E+01  0.000000000E+00  0.00000E+00  9.000E+00
      21    -1     0     0   511   502  0.000000000E+00  0.000000000E+00 -1.337978795E+03  1.337978795E+03  0.000000000E+00  0.00000E+00  9.000E+00
      25     1     1     2     0     0  4.825390122E+01  2.072985827E+02 -2.194705863E+02  3.302930208E+02  1.250000000E+02  0.00000E+00  9.000E+00
      25     1     1     2     0     0 -7.886332410E+01 -2.260052368E+02 -9.161084426E+02  9.550798236E+02  1.250000000E+02  0.00000E+00  9.000E+00
      21     1     1     2   511   501  3.060942288E+01  1.870665412E+01 -1.249796292E+02  1.300260874E+02  1.348699152E-06  0.00000E+00  9.000E+00
#rwgt            2          11   2.1222696993420716E-003           1      222890           0
</event>
<event>
      5   9999  3.19816E-02  8.20254E+01 -1.00000E+00  1.27826E-01
      21    -1     0     0   512   501  0.000000000E+00  0.000000000E+00  7.433839585E+02  7.433839585E+02  0.000000000E+00  0.00000E+00  9.000E+00
      21    -1     0     0   501   502  0.000000000E+00  0.000000000E+00 -3.706028208E+02  3.706028208E+02  0.000000000E+00  0.00000E+00  9.000E+00
      25     1     1     2     0     0  2.765370028E+02 -2.639748052E+02 -9.939190995E+01  4.143177084E+02  1.250000000E+02  0.00000E+00  9.000E+00
      25     1     1     2     0     0 -1.960100088E+02  2.795816995E+02  1.991152346E+02  4.145572661E+02  1.250000000E+02  0.00000E+00  9.000E+00
      21     1     1     2   512   502 -8.052699401E+01 -1.560689432E+01  2.730578132E+02  2.851118048E+02  3.814697266E-06  0.00000E+00  9.000E+00
#rwgt            1           1   2.8336723057401276E-002           1      222940           0
</event>
<event>
      5   9999  3.19816E-02  2.12652E+02 -1.00000E+00  1.10687E-01
       2    -1     0     0   502     0  0.000000000E+00  0.000000000E+00  3.859177978E+03  3.859177978E+03  0.000000000E+00  0.00000E+00  9.000E+00
      21    -1     0     0   501   502  0.000000000E+00  0.000000000E+00 -7.725826726E+01  7.725826726E+01  0.000000000E+00  0.00000E+00  9.000E+00
      25     1     1     2     0     0 -7.653385220E+01  2.166433504E+02  1.997911889E+03  2.014961212E+03  1.250000000E+02  0.00000E+00  9.000E+00
      25     1     1     2     0     0 -1.360478725E+02 -2.221269413E+02  2.794164676E+02  4.019302975E+02  1.250000000E+02  0.00000E+00  9.000E+00
       2     1     1     2   501     0  2.125817247E+02  5.483590915E+00  1.504591354E+03  1.519544735E+03  2.157918644E-05  0.00000E+00  9.000E+00
#rwgt            1           1   3.2255614936136642E-002           1      223079           0
</event>
<event>
      5   9999  3.19816E-02  9.43078E+01 -1.00000E+00  1.24984E-01
      21    -1     0     0   502   501  0.000000000E+00  0.000000000E+00  7.618645719E+02  7.618645719E+02  0.000000000E+00  0.00000E+00  9.000E+00
      21    -1     0     0   501   511  0.000000000E+00  0.000000000E+00 -1.654908899E+02  1.654908899E+02  0.000000000E+00  0.00000E+00  9.000E+00
      25     1     1     2     0     0 -6.951652767E+01  7.019653354E+00  6.184672902E+02  6.348295931E+02  1.250000000E+02  0.00000E+00  9.000E+00
      25     1     1     2     0     0  1.190865268E+02 -8.724917480E+01  7.789684150E+00  1.935967421E+02  1.250000000E+02  0.00000E+00  9.000E+00
      21     1     1     2   502   511 -4.956999918E+01  8.022952145E+01 -2.988329240E+01  9.892912663E+01  1.877309769E-06  0.00000E+00  9.000E+00
#rwgt            1           1   3.1706548192668070E-002           1      223148           0
</event>
<event>
      5   9999  3.19816E-02  1.90820E+02 -1.00000E+00  1.12396E-01
      21    -1     0     0   502   501  0.000000000E+00  0.000000000E+00  2.675398263E+02  2.675398263E+02  0.000000000E+00  0.00000E+00  9.000E+00
      -5    -1     0     0     0   502  0.000000000E+00  0.000000000E+00 -7.816973323E+02  7.816973323E+02  0.000000000E+00  0.00000E+00  9.000E+00
      25     1     1     2     0     0 -1.924420675E+02 -2.361588217E+02 -4.497062168E+02  5.573738600E+02  1.250000000E+02  0.00000E+00  9.000E+00
      25     1     1     2     0     0  1.774773433E+02  4.592612566E+01  9.675666054E+01  2.420625287E+02  1.250000000E+02  0.00000E+00  9.000E+00
      -5     1     1     2     0   501  1.496472414E+01  1.902326960E+02 -1.612079498E+02  2.498007699E+02  5.394796609E-06  0.00000E+00  9.000E+00
#rwgt            1           1   2.8911833007985336E-002           1      223214           0
</event>
<event>
      5   9999  3.19816E-02  1.93050E+02 -1.00000E+00  1.12210E-01
      21    -1     0     0   502   501  0.000000000E+00  0.000000000E+00  5.370598615E+02  5.370598615E+02  0.000000000E+00  0.00000E+00  9.000E+00
      21    -1     0     0   511   502  0.000000000E+00  0.000000000E+00 -4.734703467E+02  4.734703467E+02  0.000000000E+00  0.00000E+00  9.000E+00
      25     1     1     2     0     0  3.243810028E+02  7.641611558E+01  3.190571543E+02  4.780009680E+02  1.250000000E+02  0.00000E+00  9.000E+00
      25     1     1     2     0     0 -1.638349552E+02  3.079085854E+01  4.875730959E+00  2.084196302E+02  1.250000000E+02  0.00000E+00  9.000E+00
      21     1     1     2   511   501 -1.605460476E+02 -1.072069741E+02 -2.603433705E+02  3.241096100E+02  7.629394531E-06  0.00000E+00  9.000E+00
#rwgt            1           1   2.8925489674574967E-002           1      223280           0
</event>
<event>
      5   9999  3.19816E-02  2.73713E+01 -1.00000E+00  1.55858E-01
      21    -1     0     0   512   501  0.000000000E+00  0.000000000E+00  6.257284002E+02  6.257284002E+02  0.000000000E+00  0.00000E+00  9.000E+00
      21    -1     0     0   501   502  0.000000000E+00  0.000000000E+00 -5.271580928E+02  5.271580928E+02  0.000000000E+00  0.00000E+00  9.000E+00
      25     1     1     2     0     0  5.543158416E+02 -6.047532506E+01  7.017499469E+01  5.757367863E+02  1.250000000E+02  0.00000E+00  9.000E+00
      25     1     1     2     0     0 -5.328596033E+02  4.348068885E+01  2.578551202E+01  5.496542729E+02  1.250000000E+02  0.00000E+00  9.000E+00
      21     1     1     2   512   502 -2.145623834E+01  1.699463621E+01  2.609800703E+00  2.749543386E+01  2.402740046E-07  0.00000E+00  9.000E+00
#rwgt            1           1   3.0746353606237495E-002           1      223316           0
</event>
<event>
      5   9999  3.19816E-02  4.99789E+01 -1.00000E+00  1.39086E-01
      21    -1     0     0   511   501  0.000000000E+00  0.000000000E+00  6.798069635E+02  6.798069635E+02  0.000000000E+00  0.00000E+00  9.000E+00
      21    -1     0     0   501   502  0.000000000E+00  0.000000000E+00 -4.626439017E+02  4.626439017E+02  0.000000000E+00  0.00000E+00  9.000E+00
      25     1     1     2     0     0  4.569225589E+02 -8.443765787E+01 -4.967579761E+01  4.837361138E+02  1.250000000E+02  0.00000E+00  9.000E+00
      25     1     1     2     0     0 -4.074487489E+02  7.734997455E+01  4.981367643E+01  4.360090640E+02  1.250000000E+02  0.00000E+00  9.000E+00
      21     1     1     2   511   502 -4.947380999E+01  7.087683314E+00  2.170251830E+02  2.227056874E+02  2.697398305E-06  0.00000E+00  9.000E+00
#rwgt            1           1   2.8750042842570496E-002           1      223487           0
</event>
<event>
      5   9999  3.19816E-02  7.31930E+01 -1.00000E+00  1.30247E-01
      21    -1     0     0   502   501  0.000000000E+00  0.000000000E+00  6.507299390E+02  6.507299390E+02  0.000000000E+00  0.00000E+00  9.000E+00
      21    -1     0     0   501   512  0.000000000E+00  0.000000000E+00 -6.117705454E+02  6.117705454E+02  0.000000000E+00  0.00000E+00  9.000E+00
      25     1     1     2     0     0  4.163697344E+02  6.585636504E+01  2.625871751E+02  5.121306875E+02  1.250000000E+02  0.00000E+00  9.000E+00
      25     1     1     2     0     0 -4.829444755E+02 -3.544220269E+01  1.543368890E+01  5.003545892E+02  1.250000000E+02  0.00000E+00  9.000E+00
      21     1     1     2   502   512  6.657474117E+01 -3.041416235E+01 -2.390614705E+02  2.500152077E+02  0.000000000E+00  0.00000E+00  9.000E+00
#rwgt            1           1   2.9690305223454051E-002           1      223601           0
</event>
<event>
      5   9999  3.19816E-02  1.56205E+01 -1.00000E+00  1.75741E-01
      21    -1     0     0   511   501  0.000000000E+00  0.000000000E+00  1.848347403E+02  1.848347403E+02  0.000000000E+00  0.00000E+00  9.000E+00
      21    -1     0     0   501   502  0.000000000E+00  0.000000000E+00 -5.313383792E+02  5.313383792E+02  0.000000000E+00  0.00000E+00  9.000E+00
      25     1     1     2     0     0 -2.121438748E+02  7.186844424E+01 -3.155953371E+02  4.066884726E+02  1.250000000E+02  0.00000E+00  9.000E+00
      25     1     1     2     0     0  1.983571375E+02 -6.452503830E+01 -8.155300500E+01  2.564857251E+02  1.250000000E+02  0.00000E+00  9.000E+00
      21     1     1     2   511   502  1.378673737E+01 -7.343405937E+00  5.064470324E+01  5.299892173E+01  6.743495762E-07  0.00000E+00  9.000E+00
#rwgt            1           1   2.6857666189793208E-002           1      223696           0
</event>
<event>
      5   9999  3.19816E-02  3.64465E+01 -1.00000E+00  1.47391E-01
       1    -1     0     0   502     0  0.000000000E+00  0.000000000E+00  3.455294449E+02  3.455294449E+02  0.000000000E+00  0.00000E+00  9.000E+00
      21    -1     0     0   501   502  0.000000000E+00  0.000000000E+00 -6.309100351E+02  6.309100351E+02  0.000000000E+00  0.00000E+00  9.000E+00
      25     1     1     2     0     0 -1.967488002E+02  2.923117523E+02 -1.220527383E+02  3.932913956E+02  1.250000000E+02  0.00000E+00  9.000E+00
      25     1     1     2     0     0  1.942481603E+02 -2.559511665E+02 -2.905088816E+02  4.508478210E+02  1.250000000E+02  0.00000E+00  9.000E+00
       1     1     1     2   501     0  2.500639890E+00 -3.636058586E+01  1.271810297E+02  1.323002635E+02  1.907348633E-06  0.00000E+00  9.000E+00
#rwgt            1           1   2.0083743902781375E-002           1      223879           0
</event>
<event>
      5   9999  3.19816E-02  2.03104E+01 -1.00000E+00  1.65819E-01
      21    -1     0     0   511   501  0.000000000E+00  0.000000000E+00  8.831591799E+01  8.831591799E+01  0.000000000E+00  0.00000E+00  9.000E+00
      21    -1     0     0   501   502  0.000000000E+00  0.000000000E+00 -8.296518666E+02  8.296518666E+02  0.000000000E+00  0.00000E+00  9.000E+00
      25     1     1     2     0     0 -1.575788296E+02 -1.367976834E+02 -3.725225962E+02  4.449076066E+02  1.250000000E+02  0.00000E+00  9.000E+00
      25     1     1     2     0     0  1.776178092E+02  1.401070286E+02 -3.715079713E+02  4.525718047E+02  1.250000000E+02  0.00000E+00  9.000E+00
      21     1     1     2   511   502 -2.003897964E+01 -3.309345136E+00  2.694618914E+00  2.048837332E+01  3.746093836E-07  0.00000E+00  9.000E+00
#rwgt            1           1   2.7904643239205048E-002           1      224041           0
</event>
<event>
      5   9999  3.19816E-02  2.51199E+02 -1.00000E+00  1.08159E-01
      21    -1     0     0   502   501  0.000000000E+00  0.000000000E+00  1.197499500E+02  1.197499500E+02  0.000000000E+00  0.00000E+00  9.000E+00
       1    -1     0     0   501     0  0.000000000E+00  0.000000000E+00 -3.168325786E+03  3.168325786E+03  0.000000000E+00  0.00000E+00  9.000E+00
      25     1     1     2     0     0  4.595019118E+00  7.214293655E+01 -1.582263132E+03  1.588838360E+03  1.250000000E+02  0.00000E+00  9.000E+00
      25     1     1     2     0     0 -1.775050283E+02 -2.543596472E+02 -1.631565635E+02  3.720912917E+02  1.250000000E+02  0.00000E+00  9.000E+00
       1     1     1     2   502     0  1.729100092E+02  1.822167106E+02 -1.303156140E+03  1.327146084E+03  1.525878906E-05  0.00000E+00  9.000E+00
#rwgt            1           1   2.5839143398084744E-002           1      224181           0
</event>
<event>
      5   9999  3.19816E-02  3.31697E+00 -1.00000E+00  2.84230E-01
      21    -1     0     0   502   501  0.000000000E+00  0.000000000E+00  3.438653400E+01  3.438653400E+01  0.000000000E+00  0.00000E+00  9.000E+00
       2    -1     0     0   501     0  0.000000000E+00  0.000000000E+00 -2.907033795E+03  2.907033795E+03  0.000000000E+00  0.00000E+00  9.000E+00
      25     1     1     2     0     0 -9.775502864E+01  1.363207862E+02 -4.000697054E+02  4.514644743E+02  1.250000000E+02  0.00000E+00  9.000E+00
      25     1     1     2     0     0  1.008508250E+02 -1.351298455E+02 -1.259200740E+03  1.276574505E+03  1.250000000E+02  0.00000E+00  9.000E+00
       2     1     1     2   502     0 -3.095796353E+00 -1.190940684E+00 -1.213376816E+03  1.213381350E+03  2.157918644E-05  0.00000E+00  9.000E+00
#rwgt            1           1   2.5838399438612908E-002           1      224241           0
</event>
<event>
      5   9999  3.19816E-02  6.25996E+00 -1.00000E+00  2.22649E-01
      21    -1     0     0   502   501  0.000000000E+00  0.000000000E+00  1.272141290E+02  1.272141290E+02  0.000000000E+00  0.00000E+00  9.000E+00
      21    -1     0     0   511   502  0.000000000E+00  0.000000000E+00 -3.873179421E+02  3.873179421E+02  0.000000000E+00  0.00000E+00  9.000E+00
      25     1     1     2     0     0  1.327725420E+02 -5.623124644E+01 -2.142267934E+02  2.868947890E+02  1.250000000E+02  0.00000E+00  9.000E+00
      25     1     1     2     0     0 -1.382979780E+02  5.917345683E+01 -1.502830879E+01  1.961598297E+02  1.250000000E+02  0.00000E+00  9.000E+00
      21     1     1     2   511   501  5.525436037E+00 -2.942210395E+00 -3.084871096E+01  3.147745246E+01  3.371747881E-07  0.00000E+00  9.000E+00
#rwgt            1           1   2.8435632753451737E-002           1      224556           0
</event>
<event>
      5   9999  3.19816E-02  2.63360E+02 -1.00000E+00  1.07463E-01
      21    -1     0     0   502   501  0.000000000E+00  0.000000000E+00  1.084076877E+03  1.084076877E+03  0.000000000E+00  0.00000E+00  9.000E+00
      21    -1     0     0   512   502  0.000000000E+00  0.000000000E+00 -1.327588573E+02  1.327588573E+02  0.000000000E+00  0.00000E+00  9.000E+00
      25     1     1     2     0     0 -1.536702305E+02  3.122290818E+01  2.493488600E+02  3.199832241E+02  1.250000000E+02  0.00000E+00  9.000E+00
      25     1     1     2     0     0 -8.691163923E+01  7.591538045E+01  5.840073498E+02  6.082814831E+02  1.250000000E+02  0.00000E+00  9.000E+00
      21     1     1     2   512   501  2.405818698E+02 -1.071382886E+02  1.179618096E+02  2.885710267E+02  4.672030912E-06  0.00000E+00  9.000E+00
#rwgt            1           1   8.2054955270479457E-002           1      224804           0
</event>
<event>
      5   9999  3.19816E-02  2.24315E+01 -1.00000E+00  1.62360E-01
      21    -1     0     0   502   501  0.000000000E+00  0.000000000E+00  1.097266014E+02  1.097266014E+02  0.000000000E+00  0.00000E+00  9.000E+00
      21    -1     0     0   501   511  0.000000000E+00  0.000000000E+00 -4.345849290E+02  4.345849290E+02  0.000000000E+00  0.00000E+00  9.000E+00
      25     1     1     2     0     0 -6.984194347E+01 -8.131367664E+01 -7.640456317E-01  1.646675282E+02  1.250000000E+02  0.00000E+00  9.000E+00
      25     1     1     2     0     0  4.791109215E+01  8.602646611E+01 -2.106160622E+02  2.639699818E+02  1.250000000E+02  0.00000E+00  9.000E+00
      21     1     1     2   502   511  2.193085132E+01 -4.712789469E+00 -1.134782198E+02  1.156740204E+02  1.348699152E-06  0.00000E+00  9.000E+00
#rwgt            1           1   2.4683330937628253E-002           1      224864           0
</event>
<event>
      5   9999  3.19816E-02  7.09952E+01 -1.00000E+00  1.30911E-01
      21    -1     0     0   502   501  0.000000000E+00  0.000000000E+00  2.015340464E+02  2.015340464E+02  0.000000000E+00  0.00000E+00  9.000E+00
      21    -1     0     0   512   502  0.000000000E+00  0.000000000E+00 -1.011739937E+03  1.011739937E+03  0.000000000E+00  0.00000E+00  9.000E+00
      25     1     1     2     0     0 -3.871231490E+02  6.898480817E+01 -5.024190038E+02  6.501331338E+02  1.250000000E+02  0.00000E+00  9.000E+00
      25     1     1     2     0     0  3.713170803E+02  2.284977169E-01 -2.169420467E+02  4.478451496E+02  1.250000000E+02  0.00000E+00  9.000E+00
      21     1     1     2   512   501  1.580606866E+01 -6.921330588E+01 -9.084484025E+01  1.152957003E+02  2.336015456E-06  0.00000E+00  9.000E+00
#rwgt            1           1   3.0611567769440347E-002           1      224982           0
</event>
<event>
      5   9999  3.19816E-02  6.64742E+01 -1.00000E+00  1.32368E-01
      21    -1     0     0   502   511  0.000000000E+00  0.000000000E+00  1.597315679E+02  1.597315679E+02  0.000000000E+00  0.00000E+00  9.000E+00
      21    -1     0     0   501   502  0.000000000E+00  0.000000000E+00 -4.854151202E+02  4.854151202E+02  0.000000000E+00  0.00000E+00  9.000E+00
      25     1     1     2     0     0 -2.878112475E+01  1.746830825E+02 -3.122544473E+02  3.800925838E+02  1.250000000E+02  0.00000E+00  9.000E+00
      25     1     1     2     0     0 -1.653892529E+01 -1.260526812E+02 -5.508432124E+01  1.866067976E+02  1.250000000E+02  0.00000E+00  9.000E+00
      21     1     1     2   501   511  4.532005004E+01 -4.863040134E+01  4.165521630E+01  7.844730661E+01  1.581489940E-06  0.00000E+00  9.000E+00
#rwgt            1           1   2.7833805949953754E-002           1      225058           0
</event>
<event>
      5   9999  3.19816E-02  3.79563E+02 -1.00000E+00  1.02376E-01
      21    -1     0     0   502   501  0.000000000E+00  0.000000000E+00  1.566127985E+03  1.566127985E+03  0.000000000E+00  0.00000E+00  9.000E+00
      21    -1     0     0   512   502  0.000000000E+00  0.000000000E+00 -5.972922633E+02  5.972922633E+02  0.000000000E+00  0.00000E+00  9.000E+00
      25     1     1     2     0     0 -3.634528463E+02 -5.355041651E+02  8.213035935E+02  1.053103639E+03  1.250000000E+02  0.00000E+00  9.000E+00
      25     1     1     2     0     0  2.428802212E+01  7.059008067E+02  5.354089143E+01  7.192895689E+02  1.250000000E+02  0.00000E+00  9.000E+00
      21     1     1     2   512   501  3.391648242E+02 -1.703966416E+02  9.399123670E+01  3.910270400E+02  9.047348958E-06  0.00000E+00  9.000E+00
#rwgt            1           1   3.0648237039634759E-002           1      225142           0
</event>
<event>
      5   9999  3.19816E-02  4.13311E+02 -1.00000E+00  1.01259E-01
      21    -1     0     0   502   511  0.000000000E+00  0.000000000E+00  1.234158109E+03  1.234158109E+03  0.000000000E+00  0.00000E+00  9.000E+00
      21    -1     0     0   501   502  0.000000000E+00  0.000000000E+00 -3.890941847E+02  3.890941847E+02  0.000000000E+00  0.00000E+00  9.000E+00
      25     1     1     2     0     0  1.979149238E+02  2.143908436E+02  5.489200834E+02  6.340914830E+02  1.250000000E+02  0.00000E+00  9.000E+00
      25     1     1     2     0     0 -8.365101967E+00  1.528925367E+02 -2.408179909E+02  3.115516128E+02  1.250000000E+02  0.00000E+00  9.000E+00
      21     1     1     2   501   511 -1.895498219E+02 -3.672833803E+02  5.369618320E+02  6.776091982E+02  1.078959322E-05  0.00000E+00  9.000E+00
#rwgt            2          11   2.1942310016289809E-003           1      225242           0
</event>
<event>
      5   9999  3.19816E-02  3.39162E+02 -1.00000E+00  1.03889E-01
      21    -1     0     0   502   501  0.000000000E+00  0.000000000E+00  3.761697413E+03  3.761697413E+03  0.000000000E+00  0.00000E+00  9.000E+00
      -1    -1     0     0     0   502  0.000000000E+00  0.000000000E+00 -7.254901443E+02  7.254901443E+02  0.000000000E+00  0.00000E+00  9.000E+00
      25     1     1     2     0     0 -7.810684667E+02 -9.194466116E+02  2.834639880E+03  3.083222060E+03  1.250000000E+02  0.00000E+00  9.000E+00
      25     1     1     2     0     0  6.321610888E+02  6.147209827E+02  4.360868007E+02  9.916179842E+02  1.250000000E+02  0.00000E+00  9.000E+00
      -1     1     1     2     0   501  1.489073780E+02  3.047256289E+02 -2.345194128E+02  4.123475126E+02  0.000000000E+00  0.00000E+00  9.000E+00
#rwgt            1           1  0.12000412871131208                1      225262           0
</event>
<event>
      5   9999  3.19816E-02  1.86322E+02 -1.00000E+00  1.12780E-01
       5    -1     0     0   502     0  0.000000000E+00  0.000000000E+00  5.515499259E+02  5.515499259E+02  0.000000000E+00  0.00000E+00  9.000E+00
      21    -1     0     0   501   502  0.000000000E+00  0.000000000E+00 -2.773027373E+02  2.773027373E+02  0.000000000E+00  0.00000E+00  9.000E+00
      25     1     1     2     0     0  9.648725775E+01  3.189003845E+02  2.240857456E+02  4.205314108E+02  1.250000000E+02  0.00000E+00  9.000E+00
      25     1     1     2     0     0 -5.052375986E+01 -1.383363465E+02 -4.611034447E+01  1.985969762E+02  1.250000000E+02  0.00000E+00  9.000E+00
       5     1     1     2   501     0 -4.596349789E+01 -1.805640379E+02  9.627178756E+01  2.097242762E+02  3.303624740E-06  0.00000E+00  9.000E+00
#rwgt            1           1   3.0671711858524898E-002           1      225339           0
</event>
<event>
      5   9999  3.19816E-02  7.69959E+01 -1.00000E+00  1.29159E-01
      21    -1     0     0   502   501  0.000000000E+00  0.000000000E+00  3.379899677E+02  3.379899677E+02  0.000000000E+00  0.00000E+00  9.000E+00
       1    -1     0     0   501     0  0.000000000E+00  0.000000000E+00 -6.114135997E+02  6.114135997E+02  0.000000000E+00  0.00000E+00  9.000E+00
      25     1     1     2     0     0 -7.361987166E+01  2.581997379E+01 -3.538099307E+02  3.832662568E+02  1.250000000E+02  0.00000E+00  9.000E+00
      25     1     1     2     0     0  4.494112369E+01  4.563558836E+01  3.011710131E+02  3.323120381E+02  1.250000000E+02  0.00000E+00  9.000E+00
       1     1     1     2   502     0  2.867874797E+01 -7.145556214E+01 -2.207847145E+02  2.338252725E+02  0.000000000E+00  0.00000E+00  9.000E+00
#rwgt            1           1   2.7550533016742453E-002           1      225384           0
</event>
<event>
      5   9999  3.19816E-02  7.19000E+01 -1.00000E+00  1.30634E-01
      21    -1     0     0   502   511  0.000000000E+00  0.000000000E+00  1.351336830E+02  1.351336830E+02  0.000000000E+00  0.00000E+00  9.000E+00
      21    -1     0     0   501   502  0.000000000E+00  0.000000000E+00 -1.446251712E+03  1.446251712E+03  0.000000000E+00  0.00000E+00  9.000E+00
      25     1     1     2     0     0  2.165515616E+02 -9.702904030E+01 -1.169886891E+03  1.200237290E+03  1.250000000E+02  0.00000E+00  9.000E+00
      25     1     1     2     0     0 -2.226104487E+02  2.538476267E+01 -4.413967506E+01  2.603326890E+02  1.250000000E+02  0.00000E+00  9.000E+00
      21     1     1     2   501   511  6.058887098E+00  7.164427763E+01 -9.709146252E+01  1.208154159E+02  0.000000000E+00  0.00000E+00  9.000E+00
#rwgt            1           1   2.8568599645522517E-002           1      225479           0
</event>
<event>
      5   9999  3.19816E-02  9.06020E+01 -1.00000E+00  1.25787E-01
      21    -1     0     0   502   501  0.000000000E+00  0.000000000E+00  1.172388220E+02  1.172388220E+02  0.000000000E+00  0.00000E+00  9.000E+00
      21    -1     0     0   512   502  0.000000000E+00  0.000000000E+00 -1.263633366E+03  1.263633366E+03  0.000000000E+00  0.00000E+00  9.000E+00
      25     1     1     2     0     0  2.108680588E+02 -1.297499749E+02 -2.534314763E+02  3.757032172E+02  1.250000000E+02  0.00000E+00  9.000E+00
      25     1     1     2     0     0 -2.008932220E+02  3.969869748E+01 -2.180408586E+02  3.241926730E+02  1.250000000E+02  0.00000E+00  9.000E+00
      21     1     1     2   512   501 -9.974836808E+00  9.005127745E+01 -6.749222086E+02  6.809762974E+02  7.629394531E-06  0.00000E+00  9.000E+00
#rwgt            1           1   3.0685267145616209E-002           1      225624           0
</event>
<event>
      5   9999  3.19816E-02  4.31123E+01 -1.00000E+00  1.42850E-01
      21    -1     0     0   502   501  0.000000000E+00  0.000000000E+00  7.166139109E+01  7.166139109E+01  0.000000000E+00  0.00000E+00  9.000E+00
      21    -1     0     0   501   511  0.000000000E+00  0.000000000E+00 -7.270862293E+02  7.270862293E+02  0.000000000E+00  0.00000E+00  9.000E+00
      25     1     1     2     0     0  7.593031876E+01 -1.091519304E+02 -1.980670753E+02  2.693234553E+02  1.250000000E+02  0.00000E+00  9.000E+00
      25     1     1     2     0     0 -7.031781692E+01  1.518973594E+02 -2.952633719E+02  3.616944317E+02  1.250000000E+02  0.00000E+00  9.000E+00
      21     1     1     2   502   511 -5.612501842E+00 -4.274542898E+01 -1.620943910E+02  1.677297335E+02  1.907348633E-06  0.00000E+00  9.000E+00
#rwgt            2          11   1.3852159987438263E-003           1      225829           0
</event>
<event>
      5   9999  3.19816E-02  1.88936E+01 -1.00000E+00  1.68434E-01
      21    -1     0     0   512   501  0.000000000E+00  0.000000000E+00  1.460446194E+03  1.460446194E+03  0.000000000E+00  0.00000E+00  9.000E+00
      21    -1     0     0   501   502  0.000000000E+00  0.000000000E+00 -2.646984328E+02  2.646984328E+02  0.000000000E+00  0.00000E+00  9.000E+00
      25     1     1     2     0     0  4.762511121E+02 -1.870285533E+02  5.764215924E+02  7.808211407E+02  1.250000000E+02  0.00000E+00  9.000E+00
      25     1     1     2     0     0 -4.908355130E+02  1.990394948E+02  2.941822335E+02  6.186310757E+02  1.250000000E+02  0.00000E+00  9.000E+00
      21     1     1     2   512   502  1.458440085E+01 -1.201094147E+01  3.251439355E+02  3.256924105E+02  3.814697266E-06  0.00000E+00  9.000E+00
#rwgt            1           1   3.1236606145642970E-002           1      225849           0
</event>
<event>
      5   9999  3.19816E-02  2.85185E+01 -1.00000E+00  1.54583E-01
      21    -1     0     0   502   501  0.000000000E+00  0.000000000E+00  1.223823752E+02  1.223823752E+02  0.000000000E+00  0.00000E+00  9.000E+00
      21    -1     0     0   511   502  0.000000000E+00  0.000000000E+00 -2.380260522E+03  2.380260522E+03  0.000000000E+00  0.00000E+00  9.000E+00
      25     1     1     2     0     0  9.857035909E+01  4.643694940E+02 -1.043340770E+03  1.153056853E+03  1.250000000E+02  0.00000E+00  9.000E+00
      25     1     1     2     0     0 -7.667784947E+01 -4.826458321E+02 -8.838022995E+02  1.017623701E+03  1.250000000E+02  0.00000E+00  9.000E+00
      21     1     1     2   511   501 -2.189250962E+01  1.827633809E+01 -3.307350765E+02  3.319623432E+02  0.000000000E+00  0.00000E+00  9.000E+00
#rwgt            1           1   2.6880984929374515E-002           1      226043           0
</event>
<event>
      5   9999  3.19816E-02  3.51455E+02 -1.00000E+00  1.03405E-01
      21    -1     0     0   502   512  0.000000000E+00  0.000000000E+00  1.528367481E+03  1.528367481E+03  0.000000000E+00  0.00000E+00  9.000E+00
      21    -1     0     0   501   502  0.000000000E+00  0.000000000E+00 -1.940798287E+03  1.940798287E+03  0.000000000E+00  0.00000E+00  9.000E+00
      25     1     1     2     0     0  9.493170325E+02 -2.377142171E+02  1.047384371E+03  1.438871050E+03  1.250000000E+02  0.00000E+00  9.000E+00
      25     1     1     2     0     0 -7.935397756E+02 -7.733189077E+01 -1.471901727E+03  1.678631970E+03  1.250000000E+02  0.00000E+00  9.000E+00
      21     1     1     2   501   512 -1.557772569E+02  3.150461079E+02  1.208655072E+01  3.516627484E+02  2.517546664E-06  0.00000E+00  9.000E+00
#rwgt            2          11   1.7178924669266665E-002           1      226278           0
</event>
<event>
      5   9999  3.19816E-02  3.66379E+02 -1.00000E+00  1.02846E-01
      21    -1     0     0   502   501  0.000000000E+00  0.000000000E+00  1.525614440E+03  1.525614440E+03  0.000000000E+00  0.00000E+00  9.000E+00
      21    -1     0     0   511   502  0.000000000E+00  0.000000000E+00 -1.732287920E+02  1.732287920E+02  0.000000000E+00  0.00000E+00  9.000E+00
      25     1     1     2     0     0  1.554378394E+02  4.104623971E+02  8.167228950E+02  9.355755386E+02  1.250000000E+02  0.00000E+00  9.000E+00
      25     1     1     2     0     0 -3.377719105E+01 -6.487244284E+01  2.839583878E+02  3.187580563E+02  1.250000000E+02  0.00000E+00  9.000E+00
      21     1     1     2   511   501 -1.216606483E+02 -3.455899543E+02  2.517043651E+02  4.445096368E+02  8.946258087E-06  0.00000E+00  9.000E+00
#rwgt            2          11   3.5450110308868433E-003           1      226298           0
</event>
<event>
      5   9999  3.19816E-02  4.54258E+01 -1.00000E+00  1.41495E-01
      21    -1     0     0   502   501  0.000000000E+00  0.000000000E+00  5.370473893E+02  5.370473893E+02  0.000000000E+00  0.00000E+00  9.000E+00
      21    -1     0     0   501   512  0.000000000E+00  0.000000000E+00 -2.384509954E+02  2.384509954E+02  0.000000000E+00  0.00000E+00  9.000E+00
      25     1     1     2     0     0  6.990480894E+01 -1.426101126E+02  3.201291950E+02  3.785921658E+02  1.250000000E+02  0.00000E+00  9.000E+00
      25     1     1     2     0     0 -9.946069412E+01  1.771057680E+02  1.063906656E+02  2.611567661E+02  1.250000000E+02  0.00000E+00  9.000E+00
      21     1     1     2   502   512  2.955588518E+01 -3.449565545E+01 -1.279234667E+02  1.357494528E+02  1.907348633E-06  0.00000E+00  9.000E+00
#rwgt            1           1   2.8462260305014295E-002           1      226348           0
</event>
<event>
      5   9999  3.19816E-02  2.87207E+02 -1.00000E+00  1.06211E-01
      21    -1     0     0   502   511  0.000000000E+00  0.000000000E+00  8.724828394E+02  8.724828394E+02  0.000000000E+00  0.00000E+00  9.000E+00
      21    -1     0     0   501   502  0.000000000E+00  0.000000000E+00 -4.965600216E+02  4.965600216E+02  0.000000000E+00  0.00000E+00  9.000E+00
      25     1     1     2     0     0 -1.493973759E+02  5.093858973E+02 -1.454454881E+02  5.644226770E+02  1.250000000E+02  0.00000E+00  9.000E+00
      25     1     1     2     0     0  3.613120936E+00 -2.619297103E+02  3.966472823E+02  4.915020797E+02  1.250000000E+02  0.00000E+00  9.000E+00
      21     1     1     2   501   511  1.457842550E+02 -2.474561871E+02  1.247210235E+02  3.131181043E+02  6.468133910E-06  0.00000E+00  9.000E+00
#rwgt            1           1   2.2854088673632998E-002           1      226459           0
</event>
<event>
      5   9999  3.19816E-02  5.93480E+02 -1.00000E+00  9.67824E-02
      -3    -1     0     0     0   501  0.000000000E+00  0.000000000E+00  2.292739401E+03  2.292739401E+03  0.000000000E+00  0.00000E+00  9.000E+00
      21    -1     0     0   501   502  0.000000000E+00  0.000000000E+00 -3.398537596E+02  3.398537596E+02  0.000000000E+00  0.00000E+00  9.000E+00
      25     1     1     2     0     0  5.129599260E+02 -1.613627920E+01  2.281683989E+02  5.753903748E+02  1.250000000E+02  0.00000E+00  9.000E+00
      25     1     1     2     0     0 -1.006724358E+02  4.430288008E+02  4.521501036E+02  6.530499015E+02  1.250000000E+02  0.00000E+00  9.000E+00
      -3     1     1     2     0   502 -4.122874902E+02 -4.268925216E+02  1.272567138E+03  1.404152884E+03  1.525878906E-05  0.00000E+00  9.000E+00
#rwgt            1           1   2.8432543040125699E-002           1      226511           0
</event>
<event>
      5   9999  3.19816E-02  1.46789E+01 -1.00000E+00  1.78274E-01
      21    -1     0     0   502   501  0.000000000E+00  0.000000000E+00  3.702453549E+02  3.702453549E+02  0.000000000E+00  0.00000E+00  9.000E+00
      21    -1     0     0   511   502  0.000000000E+00  0.000000000E+00 -9.191424396E+02  9.191424396E+02  0.000000000E+00  0.00000E+00  9.000E+00
      25     1     1     2     0     0 -1.155185847E+02  3.791918221E+02  1.530071387E+02  4.429076267E+02  1.250000000E+02  0.00000E+00  9.000E+00
      25     1     1     2     0     0  1.127836239E+02 -3.936136759E+02 -5.654180214E+02  7.092068884E+02  1.250000000E+02  0.00000E+00  9.000E+00
      21     1     1     2   511   501  2.734960749E+00  1.442185382E+01 -1.364862020E+02  1.372732793E+02  1.907348633E-06  0.00000E+00  9.000E+00
#rwgt            1           1   3.3684773703573499E-002           1      226563           0
</event>
<event>
      5   9999  3.19816E-02  4.11135E+01 -1.00000E+00  1.44104E-01
      21    -1     0     0   502   501  0.000000000E+00  0.000000000E+00  2.226942359E+03  2.226942359E+03  0.000000000E+00  0.00000E+00  9.000E+00
      21    -1     0     0   501   512  0.000000000E+00  0.000000000E+00 -1.384812256E+02  1.384812256E+02  0.000000000E+00  0.00000E+00  9.000E+00
      25     1     1     2     0     0 -2.058665067E+02 -4.069792481E+02  1.390824407E+03  1.469023709E+03  1.250000000E+02  0.00000E+00  9.000E+00
      25     1     1     2     0     0  2.353460653E+02  4.356371687E+02  6.828937458E+02  8.527229217E+02  1.250000000E+02  0.00000E+00  9.000E+00
      21     1     1     2   502   512 -2.947955859E+01 -2.865792062E+01  1.474298011E+01  4.367695332E+01  9.078709013E-07  0.00000E+00  9.000E+00
#rwgt            1           1   3.1711825787237524E-002           1      226837           0
</event>
<event>
      5   9999  3.19816E-02  2.41048E+02 -1.00000E+00  1.08774E-01
      21    -1     0     0   502   501  0.000000000E+00  0.000000000E+00  3.454525404E+02  3.454525404E+02  0.000000000E+00  0.00000E+00  9.000E+00
      21    -1     0     0   511   502  0.000000000E+00  0.000000000E+00 -1.746387667E+03  1.746387667E+03  0.000000000E+00  0.00000E+00  9.000E+00
      25     1     1     2     0     0  3.157859077E+02 -1.231678115E+02 -9.062881437E+02  9.756404300E+02  1.250000000E+02  0.00000E+00  9.000E+00
      25     1     1     2     0     0 -4.708410805E+02  3.077267416E+02 -1.156832752E+01  5.763210016E+02  1.250000000E+02  0.00000E+00  9.000E+00
      21     1     1     2   511   501  1.550551728E+02 -1.845589301E+02 -4.830786552E+02  5.398787757E+02  0.000000000E+00  0.00000E+00  9.000E+00
#rwgt            2          11   2.9235251225436147E-003           1      227008           0
</event>
<event>
      5   9999  3.19816E-02  2.93467E+02 -1.00000E+00  1.05904E-01
      21    -1     0     0   502   501  0.000000000E+00  0.000000000E+00  9.276310380E+02  9.276310380E+02  0.000000000E+00  0.00000E+00  9.000E+00
      21    -1     0     0   512   502  0.000000000E+00  0.000000000E+00 -5.019979104E+02  5.019979104E+02  0.000000000E+00  0.00000E+00  9.000E+00
      25     1     1     2     0     0  2.261766997E+02  5.635946229E+02  1.962210525E+02  6.503249187E+02  1.250000000E+02  0.00000E+00  9.000E+00
      25     1     1     2     0     0 -1.823027706E+02 -2.734253660E+02  3.166255144E+02  4.731516114E+02  1.250000000E+02  0.00000E+00  9.000E+00
      21     1     1     2   512   501 -4.387392906E+01 -2.901692568E+02 -8.721343927E+01  3.061524183E+02  6.942853822E-06  0.00000E+00  9.000E+00
#rwgt            2          11   3.6722146453102840E-003           1      227028           0
</event>
<event>
      5   9999  3.19816E-02  4.10606E+01 -1.00000E+00  1.44139E-01
      21    -1     0     0   511   501  0.000000000E+00  0.000000000E+00  1.817206052E+02  1.817206052E+02  0.000000000E+00  0.00000E+00  9.000E+00
      21    -1     0     0   501   502  0.000000000E+00  0.000000000E+00 -7.995442385E+02  7.995442385E+02  0.000000000E+00  0.00000E+00  9.000E+00
      25     1     1     2     0     0 -1.180529039E+02  8.738030040E+01 -6.973236855E+02  7.235033707E+02  1.250000000E+02  0.00000E+00  9.000E+00
      25     1     1     2     0     0  1.332184442E+02 -4.922297036E+01  9.760190611E+01  2.128877327E+02  1.250000000E+02  0.00000E+00  9.000E+00
      21     1     1     2   511   502 -1.516554026E+01 -3.815733003E+01 -1.810185398E+01  4.487374025E+01  5.840038640E-07  0.00000E+00  9.000E+00
#rwgt            1           1   2.6656964092071488E-002           1      227048           0
</event>
<event>
      5   9999  3.19816E-02  7.91300E+01 -1.00000E+00  1.28580E-01
       1    -1     0     0   502     0  0.000000000E+00  0.000000000E+00  8.952761040E+02  8.952761040E+02  0.000000000E+00  0.00000E+00  9.000E+00
      21    -1     0     0   501   502  0.000000000E+00  0.000000000E+00 -1.483502007E+02  1.483502007E+02  0.000000000E+00  0.00000E+00  9.000E+00
      25     1     1     2     0     0 -2.681222288E+02  1.055819574E+02  3.024571779E+02  4.360532350E+02  1.250000000E+02  0.00000E+00  9.000E+00
      25     1     1     2     0     0  3.000741691E+02 -3.318976140E+01  3.037596164E+02  4.461400809E+02  1.250000000E+02  0.00000E+00  9.000E+00
       1     1     1     2   501     0 -3.195194039E+01 -7.239219601E+01  1.407091090E+02  1.614329888E+02  1.907348633E-06  0.00000E+00  9.000E+00
#rwgt            1           1   2.0143250347497029E-002           1      227190           0
</event>
<event>
      5   9999  3.19816E-02  1.60926E+02 -1.00000E+00  1.15196E-01
      21    -1     0     0   502   511  0.000000000E+00  0.000000000E+00  3.983116679E+02  3.983116679E+02  0.000000000E+00  0.00000E+00  9.000E+00
      21    -1     0     0   501   502  0.000000000E+00  0.000000000E+00 -3.573778816E+02  3.573778816E+02  0.000000000E+00  0.00000E+00  9.000E+00
      25     1     1     2     0     0 -1.220899439E+01 -5.830296821E+01 -2.474897937E+02  2.835921255E+02  1.250000000E+02  0.00000E+00  9.000E+00
      25     1     1     2     0     0 -7.036738737E+01 -7.982161332E+01  2.617613193E+02  3.089774222E+02  1.250000000E+02  0.00000E+00  9.000E+00
      21     1     1     2   501   511  8.257638176E+01  1.381245815E+02  2.666226071E+01  1.631200018E+02  5.840038640E-07  0.00000E+00  9.000E+00
#rwgt            2          11   3.6234090533448023E-003           1      227250           0
</event>
<event>
      5   9999  3.19816E-02  1.12393E+02 -1.00000E+00  1.21588E-01
      21    -1     0     0   502   512  0.000000000E+00  0.000000000E+00  2.284549985E+03  2.284549985E+03  0.000000000E+00  0.00000E+00  9.000E+00
      21    -1     0     0   501   502  0.000000000E+00  0.000000000E+00 -4.408774735E+01  4.408774735E+01  0.000000000E+00  0.00000E+00  9.000E+00
      25     1     1     2     0     0 -1.581494797E+02 -5.406131231E+01  7.984530296E+02  8.252794217E+02  1.250000000E+02  0.00000E+00  9.000E+00
      25     1     1     2     0     0  2.319355049E+02  1.388425832E+02  8.471712914E+02  8.979952886E+02  1.250000000E+02  0.00000E+00  9.000E+00
      21     1     1     2   501   512 -7.378602515E+01 -8.478127092E+01  5.948379168E+02  6.053630222E+02  0.000000000E+00  0.00000E+00  9.000E+00
#rwgt            1           1   3.3073971466265249E-002           1      227285           0
</event>
<event>
      5   9999  3.19816E-02  1.51027E+01 -1.00000E+00  1.77105E-01
      21    -1     0     0   502   501  0.000000000E+00  0.000000000E+00  5.167785062E+02  5.167785062E+02  0.000000000E+00  0.00000E+00  9.000E+00
      21    -1     0     0   501   511  0.000000000E+00  0.000000000E+00 -4.037105210E+02  4.037105210E+02  0.000000000E+00  0.00000E+00  9.000E+00
      25     1     1     2     0     0  2.272223986E+02 -3.600963539E+01  1.842290403E+02  3.201437982E+02  1.250000000E+02  0.00000E+00  9.000E+00
      25     1     1     2     0     0 -2.212477024E+02  2.213895981E+01  2.028584451E+02  3.259098466E+02  1.250000000E+02  0.00000E+00  9.000E+00
      21     1     1     2   502   511 -5.974696147E+00  1.387067558E+01 -2.740195001E+02  2.744353823E+02  3.814697266E-06  0.00000E+00  9.000E+00
#rwgt            1           1   2.8757048300736700E-002           1      227360           0
</event>
<event>
      5   9999  3.19816E-02  1.89195E+01 -1.00000E+00  1.68384E-01
      21    -1     0     0   502   512  0.000000000E+00  0.000000000E+00  7.365237416E+02  7.365237416E+02  0.000000000E+00  0.00000E+00  9.000E+00
      21    -1     0     0   501   502  0.000000000E+00  0.000000000E+00 -2.345301939E+02  2.345301939E+02  0.000000000E+00  0.00000E+00  9.000E+00
      25     1     1     2     0     0  2.001272687E+01  1.837885343E+02  4.758666736E+01  2.281846303E+02  1.250000000E+02  0.00000E+00  9.000E+00
      25     1     1     2     0     0 -8.306522007E+00 -1.986516124E+02 -4.833094655E+01  2.397756072E+02  1.250000000E+02  0.00000E+00  9.000E+00
      21     1     1     2   501   512 -1.170620487E+01  1.486307811E+01  5.027378270E+02  5.030936980E+02  5.394796609E-06  0.00000E+00  9.000E+00
#rwgt            1           1   2.8449870970348443E-002           1      227526           0
</event>
<event>
      5   9999  3.19816E-02  5.45015E+01 -1.00000E+00  1.36973E-01
      21    -1     0     0   502   501  0.000000000E+00  0.000000000E+00  9.319873344E+02  9.319873344E+02  0.000000000E+00  0.00000E+00  9.000E+00
      21    -1     0     0   501   511  0.000000000E+00  0.000000000E+00 -7.361805262E+01  7.361805262E+01  0.000000000E+00  0.00000E+00  9.000E+00
      25     1     1     2     0     0 -2.508227722E+01  1.513096256E+01  7.683247799E+02  7.789775568E+02  1.250000000E+02  0.00000E+00  9.000E+00
      25     1     1     2     0     0 -6.856247820E+00  2.903178690E+01  8.819915047E+00  1.288124361E+02  1.250000000E+02  0.00000E+00  9.000E+00
      21     1     1     2   502   511  3.193852504E+01 -4.416274946E+01  8.122458690E+01  9.781539418E+01  1.348699152E-06  0.00000E+00  9.000E+00
#rwgt            1           1   2.7400523511644934E-002           1      227750           0
</event>
<event>
      5   9999  3.19816E-02  2.14485E+01 -1.00000E+00  1.63902E-01
      21    -1     0     0   502   501  0.000000000E+00  0.000000000E+00  5.070552893E+02  5.070552893E+02  0.000000000E+00  0.00000E+00  9.000E+00
      21    -1     0     0   501   512  0.000000000E+00  0.000000000E+00 -2.364475608E+02  2.364475608E+02  0.000000000E+00  0.00000E+00  9.000E+00
      25     1     1     2     0     0  9.425080143E+01 -2.802083671E+02  1.927780766E+02  3.744173198E+02  1.250000000E+02  0.00000E+00  9.000E+00
      25     1     1     2     0     0 -7.626780590E+01  2.918981364E+02  9.663001715E+01  3.405637392E+02  1.250000000E+02  0.00000E+00  9.000E+00
      21     1     1     2   502   512 -1.798299553E+01 -1.168976925E+01 -1.880036528E+01  2.852179111E+01  3.371747881E-07  0.00000E+00  9.000E+00
#rwgt            1           1   3.0893719646311664E-002           1      227846           0
</event>
<event>
      5   9999  3.19816E-02  7.78347E+01 -1.00000E+00  1.28929E-01
      21    -1     0     0   502   501  0.000000000E+00  0.000000000E+00  1.513091950E+02  1.513091950E+02  0.000000000E+00  0.00000E+00  9.000E+00
      21    -1     0     0   501   511  0.000000000E+00  0.000000000E+00 -1.081555809E+03  1.081555809E+03  0.000000000E+00  0.00000E+00  9.000E+00
      25     1     1     2     0     0  2.122931687E+02  4.985817872E+01 -7.427277653E+02  7.841069830E+02  1.250000000E+02  0.00000E+00  9.000E+00
      25     1     1     2     0     0 -2.765134136E+02 -5.880837527E+00 -7.620703829E+01  3.129325245E+02  1.250000000E+02  0.00000E+00  9.000E+00
      21     1     1     2   502   511  6.422024492E+01 -4.397734119E+01 -1.113118107E+02  1.358254969E+02  1.907348633E-06  0.00000E+00  9.000E+00
#rwgt            1           1   2.8913552483002432E-002           1      228003           0
</event>
<event>
      5   9999  3.19816E-02  4.09292E+02 -1.00000E+00  1.01386E-01
      21    -1     0     0   502   501  0.000000000E+00  0.000000000E+00  1.742118106E+03  1.742118106E+03  0.000000000E+00  0.00000E+00  9.000E+00
      21    -1     0     0   512   502  0.000000000E+00  0.000000000E+00 -2.432243632E+02  2.432243632E+02  0.000000000E+00  0.00000E+00  9.000E+00
      25     1     1     2     0     0 -2.486879069E+02 -1.368436580E+02  9.525328822E+02  1.001756334E+03  1.250000000E+02  0.00000E+00  9.000E+00
      25     1     1     2     0     0  2.418189534E+02 -2.723905929E+02  1.483501102E+02  4.126812287E+02  1.250000000E+02  0.00000E+00  9.000E+00
      21     1     1     2   512   501  6.868953505E+00  4.092342508E+02  3.980107506E+02  5.709049064E+02  5.394796609E-06  0.00000E+00  9.000E+00
#rwgt            2          11   2.4404504809733656E-003           1      228126           0
</event>
<event>
      5   9999  3.19816E-02  2.74810E+01 -1.00000E+00  1.55733E-01
      21    -1     0     0   502   511  0.000000000E+00  0.000000000E+00  6.989636001E+02  6.989636001E+02  0.000000000E+00  0.00000E+00  9.000E+00
      21    -1     0     0   501   502  0.000000000E+00  0.000000000E+00 -1.287096316E+02  1.287096316E+02  0.000000000E+00  0.00000E+00  9.000E+00
      25     1     1     2     0     0 -1.287383007E+02 -7.014702269E+01 -1.712761282E+01  1.934231372E+02  1.250000000E+02  0.00000E+00  9.000E+00
      25     1     1     2     0     0  1.027834156E+02  6.111670411E+01  3.058577694E+02  3.513881858E+02  1.250000000E+02  0.00000E+00  9.000E+00
      21     1     1     2   501   511  2.595488517E+01  9.030318575E+00  2.815238119E+02  2.828619087E+02  7.629394531E-06  0.00000E+00  9.000E+00
#rwgt            1           1   2.6487425749534717E-002           1      228146           0
</event>
<event>
      5   9999  3.19816E-02  3.83345E+01 -1.00000E+00  1.45995E-01
      21    -1     0     0   502   501  0.000000000E+00  0.000000000E+00  2.600705615E+02  2.600705615E+02  0.000000000E+00  0.00000E+00  9.000E+00
      21    -1     0     0   512   502  0.000000000E+00  0.000000000E+00 -1.350982881E+03  1.350982881E+03  0.000000000E+00  0.00000E+00  9.000E+00
      25     1     1     2     0     0 -7.874088190E+01 -3.244090062E+02  7.319257219E+01  3.639003743E+02  1.250000000E+02  0.00000E+00  9.000E+00
      25     1     1     2     0     0  4.692271704E+01  3.457897563E+02 -8.077146722E+02  8.887070882E+02  1.250000000E+02  0.00000E+00  9.000E+00
      21     1     1     2   512   501  3.181816486E+01 -2.138075011E+01 -3.563902191E+02  3.584459797E+02  3.814697266E-06  0.00000E+00  9.000E+00
#rwgt            1           1   3.0540437013328554E-002           1      228274           0
</event>
<event>
      5   9999  3.19816E-02  5.15451E+01 -1.00000E+00  1.38326E-01
      21    -1     0     0   502   501  0.000000000E+00  0.000000000E+00  3.448109792E+02  3.448109792E+02  0.000000000E+00  0.00000E+00  9.000E+00
      21    -1     0     0   501   511  0.000000000E+00  0.000000000E+00 -9.053629703E+02  9.053629703E+02  0.000000000E+00  0.00000E+00  9.000E+00
      25     1     1     2     0     0  1.118273447E+02  4.737530548E+02 -9.723073469E+01  5.118848774E+02  1.250000000E+02  0.00000E+00  9.000E+00
      25     1     1     2     0     0 -6.416929400E+01 -4.933900037E+02 -3.729315137E+02  6.342352151E+02  1.250000000E+02  0.00000E+00  9.000E+00
      21     1     1     2   502   511 -4.765805072E+01  1.963694894E+01 -9.038974277E+01  1.040538570E+02  1.348699152E-06  0.00000E+00  9.000E+00
#rwgt            1           1   2.9230564685298683E-002           1      228405           0
</event>
<event>
      5   9999  3.19816E-02  2.00232E+01 -1.00000E+00  1.66327E-01
      21    -1     0     0   502   512  0.000000000E+00  0.000000000E+00  2.111669304E+02  2.111669304E+02  0.000000000E+00  0.00000E+00  9.000E+00
      21    -1     0     0   501   502  0.000000000E+00  0.000000000E+00 -5.984896474E+02  5.984896474E+02  0.000000000E+00  0.00000E+00  9.000E+00
      25     1     1     2     0     0  2.218648234E+02 -2.058972659E+02 -1.399865185E+02  3.561445063E+02  1.250000000E+02  0.00000E+00  9.000E+00
      25     1     1     2     0     0 -2.093783835E+02  2.215503497E+02 -2.680260521E+02  4.247197070E+02  1.250000000E+02  0.00000E+00  9.000E+00
      21     1     1     2   501   512 -1.248643996E+01 -1.565308384E+01  2.068985356E+01  2.879236456E+01  4.768371582E-07  0.00000E+00  9.000E+00
#rwgt            1           1   2.7831659896730407E-002           1      228522           0
</event>
<event>
      5   9999  3.19816E-02  1.30209E+01 -1.00000E+00  1.83375E-01
      21    -1     0     0   502   501  0.000000000E+00  0.000000000E+00  6.767332653E+02  6.767332653E+02  0.000000000E+00  0.00000E+00  9.000E+00
      21    -1     0     0   501   511  0.000000000E+00  0.000000000E+00 -1.658021784E+02  1.658021784E+02  0.000000000E+00  0.00000E+00  9.000E+00
      25     1     1     2     0     0  1.074328421E+02  2.298951731E+02  1.961962228E+02  3.442550857E+02  1.250000000E+02  0.00000E+00  9.000E+00
      25     1     1     2     0     0 -1.156364337E+02 -2.400068579E+02  3.519992020E+02  4.588066203E+02  1.250000000E+02  0.00000E+00  9.000E+00
      21     1     1     2   502   511  8.203591593E+00  1.011168485E+01 -3.726433796E+01  3.947373772E+01  0.000000000E+00  0.00000E+00  9.000E+00
#rwgt            1           1   2.7700299350875788E-002           1      228735           0
</event>
<event>
      5   9999  3.19816E-02  2.12537E+01 -1.00000E+00  1.64219E-01
      21    -1     0     0   502   501  0.000000000E+00  0.000000000E+00  2.889458012E+02  2.889458012E+02  0.000000000E+00  0.00000E+00  9.000E+00
      21    -1     0     0   512   502  0.000000000E+00  0.000000000E+00 -1.218786732E+03  1.218786732E+03  0.000000000E+00  0.00000E+00  9.000E+00
      25     1     1     2     0     0  3.451133251E-01 -2.107195161E+02  1.269424057E+02  2.759387757E+02  1.250000000E+02  0.00000E+00  9.000E+00
      25     1     1     2     0     0 -1.520610182E+01  1.955250400E+02 -6.733368673E+01  2.421158651E+02  1.250000000E+02  0.00000E+00  9.000E+00
      21     1     1     2   512   501  1.486098850E+01  1.519447610E+01 -9.894496497E+02  9.896778922E+02  1.868812365E-05  0.00000E+00  9.000E+00
#rwgt            1           1   2.5523560500570742E-002           1      228940           0
</event>
<event>
      5   9999  3.19816E-02  1.77803E+03 -1.00000E+00  8.53678E-02
      21    -1     0     0   502   501  0.000000000E+00  0.000000000E+00  3.886194345E+03  3.886194345E+03  0.000000000E+00  0.00000E+00  9.000E+00
       1    -1     0     0   501     0  0.000000000E+00  0.000000000E+00 -8.785405047E+02  8.785405047E+02  0.000000000E+00  0.00000E+00  9.000E+00
      25     1     1     2     0     0 -3.710521457E+02 -3.208174723E+02  3.815692403E+02  6.338955991E+02  1.250000000E+02  0.00000E+00  9.000E+00
      25     1     1     2     0     0 -1.114370893E+03 -6.563799877E+02  5.880397700E+02  1.426209293E+03  1.250000000E+02  0.00000E+00  9.000E+00
       1     1     1     2   502     0  1.485423039E+03  9.771974600E+02  2.038044830E+03  2.704629958E+03  2.157918644E-05  0.00000E+00  9.000E+00
#rwgt            2          12   1.9821155222309109E-005           1      229261           0
</event>
<event>
      5   9999  3.19816E-02  6.14349E+02 -1.00000E+00  9.63757E-02
      21    -1     0     0   511   501  0.000000000E+00  0.000000000E+00  4.639895905E+02  4.639895905E+02  0.000000000E+00  0.00000E+00  9.000E+00
      21    -1     0     0   501   502  0.000000000E+00  0.000000000E+00 -1.032092863E+03  1.032092863E+03  0.000000000E+00  0.00000E+00  9.000E+00
      25     1     1     2     0     0  5.943114101E+02  4.787346983E+01 -3.335683150E+02  6.945435494E+02  1.250000000E+02  0.00000E+00  9.000E+00
      25     1     1     2     0     0  1.903393181E+01 -8.297840677E+01 -6.171798934E+01  1.633456971E+02  1.250000000E+02  0.00000E+00  9.000E+00
      21     1     1     2   511   502 -6.133453419E+02  3.510493694E+01 -1.728169683E+02  6.381932071E+02  2.697398305E-06  0.00000E+00  9.000E+00
#rwgt            2          11   3.2836033520998284E-003           1      229370           0
</event>
<event>
      5   9999  3.19816E-02  2.89652E+01 -1.00000E+00  1.54106E-01
      21    -1     0     0   502   501  0.000000000E+00  0.000000000E+00  3.901814083E+02  3.901814083E+02  0.000000000E+00  0.00000E+00  9.000E+00
       1    -1     0     0   501     0  0.000000000E+00  0.000000000E+00 -2.003434336E+03  2.003434336E+03  0.000000000E+00  0.00000E+00  9.000E+00
      25     1     1     2     0     0 -1.223094270E+02  1.377474418E+02  2.868689200E+02  3.631153136E+02  1.250000000E+02  0.00000E+00  9.000E+00
      25     1     1     2     0     0  9.523181717E+01 -1.480326973E+02 -1.139908324E+02  2.441345701E+02  1.250000000E+02  0.00000E+00  9.000E+00
       1     1     1     2   502     0  2.707760984E+01  1.028525550E+01 -1.786131016E+03  1.786365861E+03  3.051757812E-05  0.00000E+00  9.000E+00
#rwgt            1           1   2.6679105742633061E-002           1      229405           0
</event>
<event>
      5   9999  3.19816E-02  6.26175E+01 -1.00000E+00  1.33720E-01
      21    -1     0     0   502   501  0.000000000E+00  0.000000000E+00  1.659403946E+02  1.659403946E+02  0.000000000E+00  0.00000E+00  9.000E+00
      21    -1     0     0   501   511  0.000000000E+00  0.000000000E+00 -1.526033980E+03  1.526033980E+03  0.000000000E+00  0.00000E+00  9.000E+00
      25     1     1     2     0     0 -2.533634817E+02  2.603270313E+02 -8.816478327E+02  9.617125963E+02  1.250000000E+02  0.00000E+00  9.000E+00
      25     1     1     2     0     0  2.901988325E+02 -3.109640623E+02 -2.852418985E+02  5.271640647E+02  1.250000000E+02  0.00000E+00  9.000E+00
      21     1     1     2   502   511 -3.683535080E+01  5.063703106E+01 -1.932038546E+02  2.030977140E+02  2.697398305E-06  0.00000E+00  9.000E+00
#rwgt            1           1   2.8998857742727886E-002           1      229554           0
</event>
<event>
      5   9999  3.19816E-02  1.71144E+02 -1.00000E+00  1.14168E-01
      21    -1     0     0   502   512  0.000000000E+00  0.000000000E+00  2.106508684E+02  2.106508684E+02  0.000000000E+00  0.00000E+00  9.000E+00
      21    -1     0     0   501   502  0.000000000E+00  0.000000000E+00 -9.467801948E+02  9.467801948E+02  0.000000000E+00  0.00000E+00  9.000E+00
      25     1     1     2     0     0  3.788521568E+01 -2.372046881E+02 -2.435582824E+02  3.642073455E+02  1.250000000E+02  0.00000E+00  9.000E+00
      25     1     1     2     0     0  1.270169815E+02  2.830020242E+02 -5.216266617E+02  6.196312076E+02  1.250000000E+02  0.00000E+00  9.000E+00
      21     1     1     2   501   512 -1.649021972E+02 -4.579733608E+01  2.905561770E+01  1.735925101E+02  2.431401974E-06  0.00000E+00  9.000E+00
#rwgt            1           1   2.6419408915642751E-002           1      229676           0
</event>
<event>
      5   9999  3.19816E-02  2.03249E+01 -1.00000E+00  1.65794E-01
      21    -1     0     0   502   511  0.000000000E+00  0.000000000E+00  4.538808146E+02  4.538808146E+02  0.000000000E+00  0.00000E+00  9.000E+00
      21    -1     0     0   501   502  0.000000000E+00  0.000000000E+00 -1.161272432E+02  1.161272432E+02  0.000000000E+00  0.00000E+00  9.000E+00
      25     1     1     2     0     0 -1.630298494E+02  1.737656856E+00  9.233436290E+01  2.252385087E+02  1.250000000E+02  0.00000E+00  9.000E+00
      25     1     1     2     0     0  1.821709847E+02  5.097482167E+00  2.160622282E+02  3.090633244E+02  1.250000000E+02  0.00000E+00  9.000E+00
      21     1     1     2   501   511 -1.914113534E+01 -6.835139023E+00  2.935698036E+01  3.570622472E+01  3.371747881E-07  0.00000E+00  9.000E+00
#rwgt            1           1   2.5290951750530675E-002           1      229755           0
</event>
<event>
      5   9999  3.19816E-02  6.02244E+01 -1.00000E+00  1.34617E-01
      21    -1     0     0   502   501  0.000000000E+00  0.000000000E+00  1.274161958E+03  1.274161958E+03  0.000000000E+00  0.00000E+00  9.000E+00
      21    -1     0     0   512   502  0.000000000E+00  0.000000000E+00 -8.262972410E+02  8.262972410E+02  0.000000000E+00  0.00000E+00  9.000E+00
      25     1     1     2     0     0  5.638629816E+01 -4.688580573E+02  5.863256786E+02  7.631579744E+02  1.250000000E+02  0.00000E+00  9.000E+00
      25     1     1     2     0     0 -3.141942055E+01  4.140526324E+02  5.194336802E+02  6.766558287E+02  1.250000000E+02  0.00000E+00  9.000E+00
      21     1     1     2   512   501 -2.496687761E+01  5.480542489E+01 -6.578946418E+02  6.606453960E+02  0.000000000E+00  0.00000E+00  9.000E+00
#rwgt            1           1   2.7116149270030768E-002           1      229863           0
</event>
<event>
      5   9999  3.19816E-02  1.04957E+02 -1.00000E+00  1.22890E-01
      21    -1     0     0   502   501  0.000000000E+00  0.000000000E+00  5.383015983E+02  5.383015983E+02  0.000000000E+00  0.00000E+00  9.000E+00
      21    -1     0     0   511   502  0.000000000E+00  0.000000000E+00 -3.224024537E+02  3.224024537E+02  0.000000000E+00  0.00000E+00  9.000E+00
      25     1     1     2     0     0 -4.025503342E+01  1.313463857E+02  1.905158023E+02  2.660706893E+02  1.250000000E+02  0.00000E+00  9.000E+00
      25     1     1     2     0     0 -6.005142323E+01 -1.622443505E+02  2.607267603E+02  3.369463551E+02  1.250000000E+02  0.00000E+00  9.000E+00
      21     1     1     2   511   501  1.003064567E+02  3.089796477E+01 -2.353434180E+02  2.576870076E+02  3.814697266E-06  0.00000E+00  9.000E+00
#rwgt            1           1   3.4460344877663147E-002           1      230020           0
</event>
<event>
      5   9999  3.19816E-02  1.15852E+01 -1.00000E+00  1.88649E-01
      21    -1     0     0   502   512  0.000000000E+00  0.000000000E+00  3.634942518E+02  3.634942518E+02  0.000000000E+00  0.00000E+00  9.000E+00
      21    -1     0     0   501   502  0.000000000E+00  0.000000000E+00 -4.054181461E+02  4.054181461E+02  0.000000000E+00  0.00000E+00  9.000E+00
      25     1     1     2     0     0  3.293470833E+01  3.110982357E+02 -1.621784270E+02  3.738898894E+02  1.250000000E+02  0.00000E+00  9.000E+00
      25     1     1     2     0     0 -4.267705757E+01 -3.173675533E+02  7.973955960E+01  3.528836812E+02  1.250000000E+02  0.00000E+00  9.000E+00
      21     1     1     2   501   512  9.742349245E+00  6.269317616E+00  4.051497309E+01  4.213882719E+01  0.000000000E+00  0.00000E+00  9.000E+00
#rwgt            1           1   2.9734704068138398E-002           1      230076           0
</event>
<event>
      5   9999  3.19816E-02  1.13642E+02 -1.00000E+00  1.21380E-01
      21    -1     0     0   502   511  0.000000000E+00  0.000000000E+00  6.277991893E+02  6.277991893E+02  0.000000000E+00  0.00000E+00  9.000E+00
      21    -1     0     0   501   502  0.000000000E+00  0.000000000E+00 -4.315129307E+02  4.315129307E+02  0.000000000E+00  0.00000E+00  9.000E+00
      25     1     1     2     0     0 -9.261638123E+01  3.098744106E+02 -2.059871846E+02  4.033059194E+02  1.250000000E+02  0.00000E+00  9.000E+00
      25     1     1     2     0     0  2.293737370E-01 -3.760494034E+02  2.601825404E+02  4.740602924E+02  1.250000000E+02  0.00000E+00  9.000E+00
      21     1     1     2   501   511  9.238700749E+01  6.617499288E+01  1.420909028E+02  1.819459082E+02  1.907348633E-06  0.00000E+00  9.000E+00
#rwgt            1           1   3.0080811702116236E-002           1      230271           0
</event>
<event>
      5   9999  3.19816E-02  2.21580E+01 -1.00000E+00  1.62779E-01
      21    -1     0     0   502   501  0.000000000E+00  0.000000000E+00  1.027328915E+03  1.027328915E+03  0.000000000E+00  0.00000E+00  9.000E+00
      21    -1     0     0   501   512  0.000000000E+00  0.000000000E+00 -2.567496849E+02  2.567496849E+02  0.000000000E+00  0.00000E+00  9.000E+00
      25     1     1     2     0     0  1.542949024E+02  6.955597585E+01  1.291983178E+02  2.469051559E+02  1.250000000E+02  0.00000E+00  9.000E+00
      25     1     1     2     0     0 -1.413862500E+02 -5.154649149E+01  8.272097224E+02  8.500282568E+02  1.250000000E+02  0.00000E+00  9.000E+00
      21     1     1     2   502   512 -1.290865242E+01 -1.800948436E+01 -1.858288096E+02  1.871451878E+02  4.672030912E-06  0.00000E+00  9.000E+00
#rwgt            1           1   2.7026257546431034E-002           1      230351           0
</event>
<event>
      5   9999  3.19816E-02  2.75393E+01 -1.00000E+00  1.55667E-01
      21    -1     0     0   511   501  0.000000000E+00  0.000000000E+00  7.553183414E+02  7.553183414E+02  0.000000000E+00  0.00000E+00  9.000E+00
      21    -1     0     0   501   502  0.000000000E+00  0.000000000E+00 -7.249212755E+01  7.249212755E+01  0.000000000E+00  0.00000E+00  9.000E+00
      25     1     1     2     0     0 -2.394870549E+01 -1.550254873E+02  1.876701101E+02  2.746843869E+02  1.250000000E+02  0.00000E+00  9.000E+00
      25     1     1     2     0     0  4.692325759E+01  1.702103891E+02  4.091679712E+02  4.628356051E+02  1.250000000E+02  0.00000E+00  9.000E+00
      21     1     1     2   511   502 -2.297455210E+01 -1.518490186E+01  8.598813258E+01  9.029047698E+01  9.536743164E-07  0.00000E+00  9.000E+00
#rwgt            1           1   2.6935920145656767E-002           1      230504           0
</event>
<event>
      5   9999  3.19816E-02  7.31783E+01 -1.00000E+00  1.30251E-01
      21    -1     0     0   512   501  0.000000000E+00  0.000000000E+00  1.379443328E+02  1.379443328E+02  0.000000000E+00  0.00000E+00  9.000E+00
      21    -1     0     0   501   502  0.000000000E+00  0.000000000E+00 -3.219087354E+03  3.219087354E+03  0.000000000E+00  0.00000E+00  9.000E+00
      25     1     1     2     0     0 -1.727347846E+02 -2.206347291E+02 -2.823856274E+03  2.840476412E+03  1.250000000E+02  0.00000E+00  9.000E+00
      25     1     1     2     0     0  2.000172967E+02  2.885371130E+02 -2.326982648E+02  4.393564237E+02  1.250000000E+02  0.00000E+00  9.000E+00
      21     1     1     2   512   502 -2.728251208E+01 -6.790238396E+01 -2.458848262E+01  7.719885161E+01  2.105655877E-06  0.00000E+00  9.000E+00
#rwgt            1           1   4.8505307750833081E-002           1      230594           0
</event>
<event>
      5   9999  3.19816E-02  1.94565E+02 -1.00000E+00  1.12085E-01
      21    -1     0     0   511   501  0.000000000E+00  0.000000000E+00  7.752369501E+02  7.752369501E+02  0.000000000E+00  0.00000E+00  9.000E+00
      21    -1     0     0   501   502  0.000000000E+00  0.000000000E+00 -2.994456106E+02  2.994456106E+02  0.000000000E+00  0.00000E+00  9.000E+00
      25     1     1     2     0     0  2.673817711E+02 -4.721673734E+01  2.070809749E+02  3.636343796E+02  1.250000000E+02  0.00000E+00  9.000E+00
      25     1     1     2     0     0 -1.063253990E+02  1.563786310E+02 -1.343363595E+02  2.634969150E+02  1.250000000E+02  0.00000E+00  9.000E+00
      21     1     1     2   511   502 -1.610563721E+02 -1.091618937E+02  4.030467240E+02  4.475512661E+02  5.394796609E-06  0.00000E+00  9.000E+00
#rwgt            1           1   2.6841787542170325E-002           1      230696           0
</event>
<event>
      5   9999  3.19816E-02  2.56447E+02 -1.00000E+00  1.07854E-01
      21    -1     0     0   502   501  0.000000000E+00  0.000000000E+00  8.479003097E+01  8.479003097E+01  0.000000000E+00  0.00000E+00  9.000E+00
      21    -1     0     0   501   512  0.000000000E+00  0.000000000E+00 -1.718226419E+03  1.718226419E+03  0.000000000E+00  0.00000E+00  9.000E+00
      25     1     1     2     0     0  7.795755954E+01  1.705681010E+02 -2.483736763E+02  3.353883439E+02  1.250000000E+02  0.00000E+00  9.000E+00
      25     1     1     2     0     0  1.510458810E+02 -5.514482571E+01 -3.891153738E+02  4.391942442E+02  1.250000000E+02  0.00000E+00  9.000E+00
      21     1     1     2   502   512 -2.290034405E+02 -1.154232753E+02 -9.959473380E+02  1.028433862E+03  0.000000000E+00  0.00000E+00  9.000E+00
#rwgt            2          11   2.0665016938340420E-003           1      230751           0
</event>
<event>
      5   9999  3.19816E-02  1.96650E+01 -1.00000E+00  1.66977E-01
      21    -1     0     0   502   501  0.000000000E+00  0.000000000E+00  1.091910917E+02  1.091910917E+02  0.000000000E+00  0.00000E+00  9.000E+00
      21    -1     0     0   501   511  0.000000000E+00  0.000000000E+00 -7.324250892E+02  7.324250892E+02  0.000000000E+00  0.00000E+00  9.000E+00
      25     1     1     2     0     0 -7.927395393E+01  1.274877278E+02 -3.443519299E+01  1.983639660E+02  1.250000000E+02  0.00000E+00  9.000E+00
      25     1     1     2     0     0  9.802885734E+01 -1.334008472E+02 -3.749955573E+02  4.285465096E+02  1.250000000E+02  0.00000E+00  9.000E+00
      21     1     1     2   502   511 -1.875490342E+01  5.913119458E+00 -2.138032472E+02  2.147057053E+02  0.000000000E+00  0.00000E+00  9.000E+00
#rwgt            1           1   2.8149654577946631E-002           1      230771           0
</event>
<event>
      5   9999  3.19816E-02  1.61746E+02 -1.00000E+00  1.15111E-01
       2    -1     0     0   502     0  0.000000000E+00  0.000000000E+00  2.472891182E+03  2.472891182E+03  0.000000000E+00  0.00000E+00  9.000E+00
      21    -1     0     0   501   502  0.000000000E+00  0.000000000E+00 -6.424033010E+01  6.424033010E+01  0.000000000E+00  0.00000E+00  9.000E+00
      25     1     1     2     0     0  3.149643571E+02  8.598538683E+00  1.548448114E+03  1.585116098E+03  1.250000000E+02  0.00000E+00  9.000E+00
      25     1     1     2     0     0 -1.794043243E+02  7.963504839E+01  3.830796324E+02  4.482216609E+02  1.250000000E+02  0.00000E+00  9.000E+00
       2     1     1     2   501     0 -1.355600328E+02 -8.823358707E+01  4.771231049E+02  5.037937530E+02  5.394796609E-06  0.00000E+00  9.000E+00
#rwgt            1           1   3.3099429565263190E-002           1      230915           0
</event>
<event>
      5   9999  3.19816E-02  5.33690E+01 -1.00000E+00  1.37479E-01
      21    -1     0     0   511   501  0.000000000E+00  0.000000000E+00  2.232346385E+02  2.232346385E+02  0.000000000E+00  0.00000E+00  9.000E+00
      21    -1     0     0   501   502  0.000000000E+00  0.000000000E+00 -5.147696578E+02  5.147696578E+02  0.000000000E+00  0.00000E+00  9.000E+00
      25     1     1     2     0     0 -6.148855283E+01  2.573786989E+02 -4.700163346E+01  2.964098351E+02  1.250000000E+02  0.00000E+00  9.000E+00
      25     1     1     2     0     0  8.696233501E+01 -2.104815805E+02 -2.764895751E+02  3.793895472E+02  1.250000000E+02  0.00000E+00  9.000E+00
      21     1     1     2   511   502 -2.547378218E+01 -4.689711843E+01  3.195618927E+01  6.220491402E+01  0.000000000E+00  0.00000E+00  9.000E+00
#rwgt            1           1   2.8268141226023336E-002           1      230946           0
</event>
<event>
      5   9999  3.19816E-02  9.37538E+00 -1.00000E+00  1.99052E-01
      21    -1     0     0   512   501  0.000000000E+00  0.000000000E+00  8.029750026E+01  8.029750026E+01  0.000000000E+00  0.00000E+00  9.000E+00
      21    -1     0     0   501   502  0.000000000E+00  0.000000000E+00 -1.896750326E+03  1.896750326E+03  0.000000000E+00  0.00000E+00  9.000E+00
      25     1     1     2     0     0  1.986435075E+02  1.897743197E+02 -1.498227219E+03  1.528326972E+03  1.250000000E+02  0.00000E+00  9.000E+00
      25     1     1     2     0     0 -2.078639302E+02 -1.880768192E+02 -3.073264683E+02  4.343441740E+02  1.250000000E+02  0.00000E+00  9.000E+00
      21     1     1     2   512   502  9.220422695E+00 -1.697500511E+00 -1.089913898E+01  1.437668019E+01  2.384185791E-07  0.00000E+00  9.000E+00
#rwgt            1           1   3.1084400436500619E-002           1      231070           0
</event>
<event>
      5   9999  3.19816E-02  1.58778E+02 -1.00000E+00  1.15423E-01
      21    -1     0     0   502   501  0.000000000E+00  0.000000000E+00  4.399754933E+02  4.399754933E+02  0.000000000E+00  0.00000E+00  9.000E+00
      21    -1     0     0   511   502  0.000000000E+00  0.000000000E+00 -1.194295126E+03  1.194295126E+03  0.000000000E+00  0.00000E+00  9.000E+00
      25     1     1     2     0     0 -1.383668093E+02 -9.122953708E+01  3.633748077E+02  4.184906847E+02  1.250000000E+02  0.00000E+00  9.000E+00
      25     1     1     2     0     0  1.566353334E+02  2.489527158E+02 -7.386118853E+02  8.047885433E+02  1.250000000E+02  0.00000E+00  9.000E+00
      21     1     1     2   511   501 -1.826852405E+01 -1.577231787E+02 -3.790825552E+02  4.109913913E+02  0.000000000E+00  0.00000E+00  9.000E+00
#rwgt            1           1   3.0209314039351814E-002           1      231302           0
</event>
<event>
      5   9999  3.19816E-02  1.26276E+02 -1.00000E+00  1.19436E-01
      21    -1     0     0   502   501  0.000000000E+00  0.000000000E+00  8.760837435E+02  8.760837435E+02  0.000000000E+00  0.00000E+00  9.000E+00
      21    -1     0     0   512   502  0.000000000E+00  0.000000000E+00 -2.739127717E+02  2.739127717E+02  0.000000000E+00  0.00000E+00  9.000E+00
      25     1     1     2     0     0 -3.134689591E+02 -1.947212405E+02  3.655981971E+02  5.342903626E+02  1.250000000E+02  0.00000E+00  9.000E+00
      25     1     1     2     0     0  1.966932146E+02  2.427727768E+02  3.199813037E+02  4.643704088E+02  1.250000000E+02  0.00000E+00  9.000E+00
      21     1     1     2   512   501  1.167757445E+02 -4.805153621E+01 -8.340852899E+01  1.513357438E+02  4.862803949E-06  0.00000E+00  9.000E+00
#rwgt            1           1   2.9242244069403421E-002           1      231358           0
</event>
<event>
      5   9999  3.19816E-02  5.49679E+01 -1.00000E+00  1.36768E-01
      21    -1     0     0   502   511  0.000000000E+00  0.000000000E+00  1.423616142E+02  1.423616142E+02  0.000000000E+00  0.00000E+00  9.000E+00
      21    -1     0     0   501   502  0.000000000E+00  0.000000000E+00 -9.643877507E+02  9.643877507E+02  0.000000000E+00  0.00000E+00  9.000E+00
      25     1     1     2     0     0  5.407055654E+01  2.928053112E+02 -2.194346349E+02  3.904294230E+02  1.250000000E+02  0.00000E+00  9.000E+00
      25     1     1     2     0     0 -6.165450035E+01 -2.383630784E+02 -6.009241324E+02  6.613267328E+02  1.250000000E+02  0.00000E+00  9.000E+00
      21     1     1     2   501   511  7.583943810E+00 -5.444223282E+01 -1.667369217E+00  5.499320902E+01  1.028719878E-06  0.00000E+00  9.000E+00
#rwgt            1           1   2.3105168109715406E-002           1      231413           0
</event>
<event>
      5   9999  3.19816E-02  1.62094E+01 -1.00000E+00  1.74269E-01
      21    -1     0     0   502   512  0.000000000E+00  0.000000000E+00  2.192463811E+02  2.192463811E+02  0.000000000E+00  0.00000E+00  9.000E+00
      21    -1     0     0   501   502  0.000000000E+00  0.000000000E+00 -8.296309633E+02  8.296309633E+02  0.000000000E+00  0.00000E+00  9.000E+00
      25     1     1     2     0     0  5.786556066E+00 -2.189722865E+02 -3.263121024E+02  4.124159728E+02  1.250000000E+02  0.00000E+00  9.000E+00
      25     1     1     2     0     0  1.040816173E+01  2.182830207E+02 -4.253426658E+02  4.942642920E+02  1.250000000E+02  0.00000E+00  9.000E+00
      21     1     1     2   501   512 -1.619471780E+01  6.892657902E-01  1.412701860E+02  1.421970795E+02  1.907348633E-06  0.00000E+00  9.000E+00
#rwgt            1           1   2.4602851053282439E-002           1      231473           0
</event>
<event>
      5   9999  3.19816E-02  2.08065E+01 -1.00000E+00  1.64965E-01
      21    -1     0     0   511   501  0.000000000E+00  0.000000000E+00  2.318634389E+02  2.318634389E+02  0.000000000E+00  0.00000E+00  9.000E+00
      21    -1     0     0   501   502  0.000000000E+00  0.000000000E+00 -5.987447959E+02  5.987447959E+02  0.000000000E+00  0.00000E+00  9.000E+00
      25     1     1     2     0     0  2.789332671E+01  6.890676737E+01  9.628520211E+01  1.744190942E+02  1.250000000E+02  0.00000E+00  9.000E+00
      25     1     1     2     0     0 -4.250577600E+01 -8.371841410E+01 -5.474711099E+02  5.693550123E+02  1.250000000E+02  0.00000E+00  9.000E+00
      21     1     1     2   511   502  1.461244929E+01  1.481164672E+01  8.430455076E+01  8.683412827E+01  2.132480600E-06  0.00000E+00  9.000E+00
#rwgt            1           1   1.9340874190099892E-002           1      231669           0
</event>
<event>
      5   9999  3.19816E-02  3.32915E+02 -1.00000E+00  1.04144E-01
       2    -1     0     0   502     0  0.000000000E+00  0.000000000E+00  1.677393825E+03  1.677393825E+03  0.000000000E+00  0.00000E+00  9.000E+00
      21    -1     0     0   501   502  0.000000000E+00  0.000000000E+00 -7.169905869E+02  7.169905869E+02  0.000000000E+00  0.00000E+00  9.000E+00
      25     1     1     2     0     0 -7.499239744E+00 -2.230768275E+02 -3.044184902E+02  3.976369283E+02  1.250000000E+02  0.00000E+00  9.000E+00
      25     1     1     2     0     0  1.081737011E+02  5.404046575E+02 -1.155349371E+02  5.768119842E+02  1.250000000E+02  0.00000E+00  9.000E+00
       2     1     1     2   501     0 -1.006744614E+02 -3.173278300E+02  1.380356666E+03  1.419935500E+03  2.157918644E-05  0.00000E+00  9.000E+00
#rwgt            1           1   3.0632848265635414E-002           1      231826           0
</event>
<event>
      5   9999  3.19816E-02  2.32447E+01 -1.00000E+00  1.61156E-01
      21    -1     0     0   502   501  0.000000000E+00  0.000000000E+00  7.829700850E+02  7.829700850E+02  0.000000000E+00  0.00000E+00  9.000E+00
      21    -1     0     0   501   511  0.000000000E+00  0.000000000E+00 -2.508374652E+02  2.508374652E+02  0.000000000E+00  0.00000E+00  9.000E+00
      25     1     1     2     0     0  2.780648847E+02 -4.975967542E+01 -9.734830338E+01  3.238792948E+02  1.250000000E+02  0.00000E+00  9.000E+00
      25     1     1     2     0     0 -2.569612587E+02  5.950414493E+01  6.191303438E+02  6.844831731E+02  1.250000000E+02  0.00000E+00  9.000E+00
      21     1     1     2   502   511 -2.110362606E+01 -9.744469504E+00  1.035057944E+01  2.544508230E+01  1.685873940E-07  0.00000E+00  9.000E+00
#rwgt            1           1   2.8056137651138843E-002           1      231863           0
</event>
<event>
      5   9999  3.19816E-02  5.24052E+01 -1.00000E+00  1.37921E-01
      21    -1     0     0   502   501  0.000000000E+00  0.000000000E+00  7.321017107E+01  7.321017107E+01  0.000000000E+00  0.00000E+00  9.000E+00
       2    -1     0     0   501     0  0.000000000E+00  0.000000000E+00 -1.489454360E+03  1.489454360E+03  0.000000000E+00  0.00000E+00  9.000E+00
      25     1     1     2     0     0  1.685334033E+02  2.689567481E+01 -2.088535520E+02  2.972737653E+02  1.250000000E+02  0.00000E+00  9.000E+00
      25     1     1     2     0     0 -1.161335892E+02 -2.764468584E+01 -2.356862462E+02  2.922742647E+02  1.250000000E+02  0.00000E+00  9.000E+00
       2     1     1     2   502     0 -5.239981415E+01  7.490110324E-01 -9.717043907E+02  9.731165010E+02  1.525878906E-05  0.00000E+00  9.000E+00
#rwgt            1           1   2.7509904883085599E-002           1      231997           0
</event>
<event>
      5   9999  3.19816E-02  1.18917E+02 -1.00000E+00  1.20536E-01
      21    -1     0     0   511   501  0.000000000E+00  0.000000000E+00  4.857533988E+02  4.857533988E+02  0.000000000E+00  0.00000E+00  9.000E+00
      21    -1     0     0   501   502  0.000000000E+00  0.000000000E+00 -9.101719950E+02  9.101719950E+02  0.000000000E+00  0.00000E+00  9.000E+00
      25     1     1     2     0     0 -2.749838696E+02  1.931408339E+02  2.708595454E+02  4.493433026E+02  1.250000000E+02  0.00000E+00  9.000E+00
      25     1     1     2     0     0  3.751374680E+02 -1.290277776E+02 -7.138871370E+02  8.262179687E+02  1.250000000E+02  0.00000E+00  9.000E+00
      21     1     1     2   511   502 -1.001535984E+02 -6.411305636E+01  1.860899550E+01  1.203641225E+02  2.477718555E-06  0.00000E+00  9.000E+00
#rwgt            1           1   2.9052647879175851E-002           1      232050           0
</event>
<event>
      5   9999  3.19816E-02  1.30062E+02 -1.00000E+00  1.18903E-01
      21    -1     0     0   502   501  0.000000000E+00  0.000000000E+00  1.697234330E+02  1.697234330E+02  0.000000000E+00  0.00000E+00  9.000E+00
      21    -1     0     0   512   502  0.000000000E+00  0.000000000E+00 -2.044097626E+03  2.044097626E+03  0.000000000E+00  0.00000E+00  9.000E+00
      25     1     1     2     0     0 -2.421857530E+01  3.751185950E+02 -1.630462409E+02  4.283801774E+02  1.250000000E+02  0.00000E+00  9.000E+00
      25     1     1     2     0     0  1.051734594E+02 -2.733231055E+02 -7.421621293E+02  8.075869010E+02  1.250000000E+02  0.00000E+00  9.000E+00
      21     1     1     2   512   501 -8.095488411E+01 -1.017954895E+02 -9.691658225E+02  9.778539802E+02  1.525878906E-05  0.00000E+00  9.000E+00
#rwgt            1           1   2.7077756165982042E-002           1      232094           0
</event>
<event>
      5   9999  3.19816E-02  1.28657E+02 -1.00000E+00  1.19098E-01
      21    -1     0     0   502   501  0.000000000E+00  0.000000000E+00  7.335625933E+02  7.335625933E+02  0.000000000E+00  0.00000E+00  9.000E+00
       2    -1     0     0   501     0  0.000000000E+00  0.000000000E+00 -1.942736927E+03  1.942736927E+03  0.000000000E+00  0.00000E+00  9.000E+00
      25     1     1     2     0     0  1.577980501E+02  1.999343672E+02  3.874467898E+02  4.802228553E+02  1.250000000E+02  0.00000E+00  9.000E+00
      25     1     1     2     0     0 -5.903223417E+01 -2.823846140E+02  2.143624453E+02  3.805287543E+02  1.250000000E+02  0.00000E+00  9.000E+00
       2     1     1     2   502     0 -9.876581596E+01  8.245024676E+01 -1.810983569E+03  1.815547911E+03  0.000000000E+00  0.00000E+00  9.000E+00
#rwgt            1           1   2.7433796743789381E-002           1      232167           0
</event>
<event>
      5   9999  3.19816E-02  1.25458E+01 -1.00000E+00  1.85020E-01
      21    -1     0     0   502   501  0.000000000E+00  0.000000000E+00  6.000166681E+02  6.000166681E+02  0.000000000E+00  0.00000E+00  9.000E+00
      21    -1     0     0   501   511  0.000000000E+00  0.000000000E+00 -3.605207838E+01  3.605207838E+01  0.000000000E+00  0.00000E+00  9.000E+00
      25     1     1     2     0     0 -3.812949359E+01 -3.822937009E+01  2.705208786E+02  3.028562180E+02  1.250000000E+02  0.00000E+00  9.000E+00
      25     1     1     2     0     0  3.744760895E+01  5.075659592E+01  2.864788487E+02  3.188631152E+02  1.250000000E+02  0.00000E+00  9.000E+00
      21     1     1     2   502   511  6.818846339E-01 -1.252722584E+01  6.964862358E+00  1.434941328E+01  1.884864366E-07  0.00000E+00  9.000E+00
#rwgt            1           1   1.2309407975009810E-002           1      232206           0
</event>
<event>
      5   9999  3.19816E-02  1.35207E+02 -1.00000E+00  1.18209E-01
      21    -1     0     0   502   512  0.000000000E+00  0.000000000E+00  8.866250007E+02  8.866250007E+02  0.000000000E+00  0.00000E+00  9.000E+00
      21    -1     0     0   501   502  0.000000000E+00  0.000000000E+00 -2.346332180E+02  2.346332180E+02  0.000000000E+00  0.00000E+00  9.000E+00
      25     1     1     2     0     0  2.523240206E+01  3.001602159E+02  6.627273012E+01  3.327910817E+02  1.250000000E+02  0.00000E+00  9.000E+00
      25     1     1     2     0     0 -1.604356517E+02 -3.011278835E+02  2.957301882E+02  4.685071449E+02  1.250000000E+02  0.00000E+00  9.000E+00
      21     1     1     2   501   512  1.352032497E+02  9.676676351E-01  2.899888644E+02  3.199599922E+02  6.607249480E-06  0.00000E+00  9.000E+00
#rwgt            1           1   2.6777944241013721E-002           1      232372           0
</event>
<event>
      5   9999  3.19816E-02  3.93428E+01 -1.00000E+00  1.45288E-01
      21    -1     0     0   502   501  0.000000000E+00  0.000000000E+00  1.499958058E+03  1.499958058E+03  0.000000000E+00  0.00000E+00  9.000E+00
      21    -1     0     0   501   511  0.000000000E+00  0.000000000E+00 -1.206126071E+03  1.206126071E+03  0.000000000E+00  0.00000E+00  9.000E+00
      25     1     1     2     0     0  2.362034414E+02  4.500919259E+02  1.232659403E+03  1.339197151E+03  1.250000000E+02  0.00000E+00  9.000E+00
      25     1     1     2     0     0 -1.975145596E+02 -4.572351496E+02 -9.510874833E+01  5.222515269E+02  1.250000000E+02  0.00000E+00  9.000E+00
      21     1     1     2   502   511 -3.868888180E+01  7.143223754E+00 -8.437186669E+02  8.446354504E+02  1.078959322E-05  0.00000E+00  9.000E+00
#rwgt            1           1   3.7002366211391823E-002           1      232442           0
</event>
<event>
      5   9999  3.19816E-02  2.46247E+02 -1.00000E+00  1.08455E-01
      -4    -1     0     0     0   501  0.000000000E+00  0.000000000E+00  1.698953612E+03  1.698953612E+03  0.000000000E+00  0.00000E+00  9.000E+00
      21    -1     0     0   501   502  0.000000000E+00  0.000000000E+00 -7.112268400E+02  7.112268400E+02  0.000000000E+00  0.00000E+00  9.000E+00
      25     1     1     2     0     0  5.631987831E+02 -4.407797573E+02 -2.962956458E+02  7.841529019E+02  1.250000000E+02  0.00000E+00  9.000E+00
      25     1     1     2     0     0 -3.704052891E+02  5.939728212E+02  1.131462799E+03  1.336352071E+03  1.250000000E+02  0.00000E+00  9.000E+00
      -4     1     1     2     0   502 -1.927934940E+02 -1.531930638E+02  1.525596182E+02  2.896754792E+02  5.046370146E-06  0.00000E+00  9.000E+00
#rwgt            1           1   3.5761949443052769E-002           1      232591           0
</event>
<event>
      5   9999  3.19816E-02  3.73606E+01 -1.00000E+00  1.46703E-01
      21    -1     0     0   502   501  0.000000000E+00  0.000000000E+00  2.707256045E+02  2.707256045E+02  0.000000000E+00  0.00000E+00  9.000E+00
      21    -1     0     0   511   502  0.000000000E+00  0.000000000E+00 -2.499898654E+03  2.499898654E+03  0.000000000E+00  0.00000E+00  9.000E+00
      25     1     1     2     0     0  5.602718096E+02 -2.218628668E+02 -2.415204297E+02  6.611238539E+02  1.250000000E+02  0.00000E+00  9.000E+00
      25     1     1     2     0     0 -5.641484771E+02  1.847039264E+02 -1.466605105E+03  1.587115175E+03  1.250000000E+02  0.00000E+00  9.000E+00
      21     1     1     2   511   501  3.876667480E+00  3.715894039E+01 -5.210475145E+02  5.223852293E+02  7.629394531E-06  0.00000E+00  9.000E+00
#rwgt            1           1   3.0504488073506524E-002           1      232644           0
</event>
<event>
      5   9999  3.19816E-02  6.25951E+01 -1.00000E+00  1.33728E-01
      21    -1     0     0   502   501  0.000000000E+00  0.000000000E+00  2.005047274E+03  2.005047274E+03  0.000000000E+00  0.00000E+00  9.000E+00
      21    -1     0     0   501   512  0.000000000E+00  0.000000000E+00 -7.255543081E+01  7.255543081E+01  0.000000000E+00  0.00000E+00  9.000E+00
      25     1     1     2     0     0 -2.951950457E+01  1.997885547E+02  1.698950123E+03  1.715471768E+03  1.250000000E+02  0.00000E+00  9.000E+00
      25     1     1     2     0     0 -2.510689139E+01 -1.692254864E+02  1.596717517E+02  2.653067838E+02  1.250000000E+02  0.00000E+00  9.000E+00
      21     1     1     2   502   512  5.462639596E+01 -3.056306837E+01  7.386996857E+01  9.682415267E+01  9.536743164E-07  0.00000E+00  9.000E+00
#rwgt            1           1   3.0013369340143283E-002           1      232795           0
</event>
<event>
      5   9999  3.19816E-02  1.59442E+02 -1.00000E+00  1.15352E-01
      21    -1     0     0   502   501  0.000000000E+00  0.000000000E+00  2.185474727E+02  2.185474727E+02  0.000000000E+00  0.00000E+00  9.000E+00
       1    -1     0     0   501     0  0.000000000E+00  0.000000000E+00 -1.304356254E+03  1.304356254E+03  0.000000000E+00  0.00000E+00  9.000E+00
      25     1     1     2     0     0  8.029410728E+01 -1.035721155E+02  1.416222467E+02  2.299047358E+02  1.250000000E+02  0.00000E+00  9.000E+00
      25     1     1     2     0     0  7.010857457E+01  1.564950729E+02 -4.267697853E+02  4.766165856E+02  1.250000000E+02  0.00000E+00  9.000E+00
       1     1     1     2   502     0 -1.504026819E+02 -5.292295740E+01 -8.006612425E+02  8.163824051E+02  1.525878906E-05  0.00000E+00  9.000E+00
#rwgt            1           1   2.7641798325689242E-002           1      232885           0
</event>
<event>
      5   9999  3.19816E-02  1.89795E+02 -1.00000E+00  1.12482E-01
      21    -1     0     0   502   501  0.000000000E+00  0.000000000E+00  1.399884699E+03  1.399884699E+03  0.000000000E+00  0.00000E+00  9.000E+00
      21    -1     0     0   511   502  0.000000000E+00  0.000000000E+00 -4.353872825E+02  4.353872825E+02  0.000000000E+00  0.00000E+00  9.000E+00
      25     1     1     2     0     0  2.469537270E+01 -5.740684826E+02  4.236053647E+02  7.247282174E+02  1.250000000E+02  0.00000E+00  9.000E+00
      25     1     1     2     0     0 -1.627899316E+02  7.042690120E+02  5.555347817E+02  9.201843819E+02  1.250000000E+02  0.00000E+00  9.000E+00
      21     1     1     2   511   501  1.380945589E+02 -1.302005294E+02 -1.464272935E+01  1.903593826E+02  2.749577187E-06  0.00000E+00  9.000E+00
#rwgt            1           1   2.5423376645039818E-002           1      232940           0
</event>
<event>
      5   9999  3.19816E-02  9.47243E+01 -1.00000E+00  1.24896E-01
      21    -1     0     0   502   501  0.000000000E+00  0.000000000E+00  1.951077944E+02  1.951077944E+02  0.000000000E+00  0.00000E+00  9.000E+00
      -2    -1     0     0     0   502  0.000000000E+00  0.000000000E+00 -1.645882484E+03  1.645882484E+03  0.000000000E+00  0.00000E+00  9.000E+00
      25     1     1     2     0     0  4.385143305E+02  7.218779596E+01 -1.206137154E+03  1.291471150E+03  1.250000000E+02  0.00000E+00  9.000E+00
      25     1     1     2     0     0 -3.469037028E+02 -9.627482179E+01 -1.342322569E+02  4.040474219E+02  1.250000000E+02  0.00000E+00  9.000E+00
      -2     1     1     2     0   501 -9.161062770E+01  2.408702583E+01 -1.104052782E+02  1.454717064E+02  1.907348633E-06  0.00000E+00  9.000E+00
#rwgt            1           1   2.7433950693316337E-002           1      233038           0
</event>
<event>
      5   9999  3.19816E-02  1.11983E+02 -1.00000E+00  1.21657E-01
       2    -1     0     0   502     0  0.000000000E+00  0.000000000E+00  1.899450733E+03  1.899450733E+03  0.000000000E+00  0.00000E+00  9.000E+00
      21    -1     0     0   501   502  0.000000000E+00  0.000000000E+00 -1.875042318E+02  1.875042318E+02  0.000000000E+00  0.00000E+00  9.000E+00
      25     1     1     2     0     0  2.934216274E+02 -1.623841632E+02  1.778097732E+02  3.996325604E+02  1.250000000E+02  0.00000E+00  9.000E+00
      25     1     1     2     0     0 -2.252856484E+02  7.351514846E+01  1.672178815E+02  3.158241921E+02  1.250000000E+02  0.00000E+00  9.000E+00
       2     1     1     2   501     0 -6.813597900E+01  8.886901470E+01  1.366918847E+03  1.371498212E+03  1.525878906E-05  0.00000E+00  9.000E+00
#rwgt            1           1   2.8359575907875925E-002           1      233141           0
</event>
<event>
      5   9999  3.19816E-02  6.09813E+02  7.55638E-03  9.64626E-02
      -2    -1     0     0     0   501  0.000000000E+00  0.000000000E+00  8.448233757E+02  8.448233757E+02  0.000000000E+00  0.00000E+00  9.000E+00
       2    -1     0     0   502     0  0.000000000E+00  0.000000000E+00 -1.007533840E+03  1.007533840E+03  0.000000000E+00  0.00000E+00  9.000E+00
      25     1     1     2     0     0 -1.226272747E+02  2.864762451E+02  1.296484111E+02  3.599163764E+02  1.250000000E+02  0.00000E+00  9.000E+00
      25     1     1     2     0     0  7.267730919E+02 -3.694175166E+02 -3.132241089E+02  8.822713704E+02  1.250000000E+02  0.00000E+00  9.000E+00
      21     1     1     2   502   501 -6.041458172E+02  8.294127145E+01  2.086523336E+01  6.101694690E+02  1.060627767E-05  0.00000E+00  9.000E+00
#rwgt            3           4   9.5923317895456862E-006           1      233286           0
</event>
<event>
      5   9999  3.19816E-02  1.56238E+02 -1.00000E+00  1.15697E-01
      21    -1     0     0   511   501  0.000000000E+00  0.000000000E+00  5.306947953E+02  5.306947953E+02  0.000000000E+00  0.00000E+00  9.000E+00
      21    -1     0     0   501   502  0.000000000E+00  0.000000000E+00 -1.482255384E+03  1.482255384E+03  0.000000000E+00  0.00000E+00  9.000E+00
      25     1     1     2     0     0  4.236465798E+01  3.332798543E+02  1.084169938E+01  3.586262232E+02  1.250000000E+02  0.00000E+00  9.000E+00
      25     1     1     2     0     0 -7.361101707E+01 -1.801984416E+02 -1.279808903E+03  1.300548303E+03  1.250000000E+02  0.00000E+00  9.000E+00
      21     1     1     2   511   502  3.124635910E+01 -1.530814127E+02  3.174066147E+02  3.537756534E+02  8.529922400E-06  0.00000E+00  9.000E+00
#rwgt            2          11   5.1098846762066812E-003           1      233320           0
</event>
<event>
      5   9999  3.19816E-02  1.23473E+01 -1.00000E+00  1.85734E-01
      21    -1     0     0   502   501  0.000000000E+00  0.000000000E+00  1.331632274E+02  1.331632274E+02  0.000000000E+00  0.00000E+00  9.000E+00
      21    -1     0     0   501   512  0.000000000E+00  0.000000000E+00 -3.557804733E+02  3.557804733E+02  0.000000000E+00  0.00000E+00  9.000E+00
      25     1     1     2     0     0  3.079828379E+01 -9.038633626E+01  3.841347513E+01  1.619222626E+02  1.250000000E+02  0.00000E+00  9.000E+00
      25     1     1     2     0     0 -4.055890478E+01  9.794856256E+01 -1.736968879E+02  2.388190833E+02  1.250000000E+02  0.00000E+00  9.000E+00
      21     1     1     2   502   512  9.760620991E+00 -7.562226308E+00 -8.733383308E+01  8.820235479E+01  1.907348633E-06  0.00000E+00  9.000E+00
#rwgt            1           1   2.9398619675516401E-002           1      233370           0
</event>
<event>
      5   9999  3.19816E-02  4.32290E+02 -1.00000E+00  1.00681E-01
      21    -1     0     0   502   511  0.000000000E+00  0.000000000E+00  2.367534074E+02  2.367534074E+02  0.000000000E+00  0.00000E+00  9.000E+00
      21    -1     0     0   501   502  0.000000000E+00  0.000000000E+00 -1.444766596E+03  1.444766596E+03  0.000000000E+00  0.00000E+00  9.000E+00
      25     1     1     2     0     0  2.230958112E+02  3.556797285E+02 -7.360924503E+02  8.565844416E+02  1.250000000E+02  0.00000E+00  9.000E+00
      25     1     1     2     0     0  8.138785599E+01 -4.881783419E+01 -3.375348571E+02  3.722390949E+02  1.250000000E+02  0.00000E+00  9.000E+00
      21     1     1     2   501   511 -3.044836672E+02 -3.068618944E+02 -1.343858808E+02  4.526964665E+02  8.313939941E-06  0.00000E+00  9.000E+00
#rwgt            2          11   5.3800404124373803E-003           1      233608           0
</event>
<event>
      5   9999  3.19816E-02  8.30606E+01 -1.00000E+00  1.27565E-01
      -1    -1     0     0     0   501  0.000000000E+00  0.000000000E+00  8.223265721E+02  8.223265721E+02  0.000000000E+00  0.00000E+00  9.000E+00
      21    -1     0     0   501   502  0.000000000E+00  0.000000000E+00 -7.253876285E+02  7.253876285E+02  0.000000000E+00  0.00000E+00  9.000E+00
      25     1     1     2     0     0  6.259445384E+00 -2.289729638E+01 -6.881752135E+02  6.998382608E+02  1.250000000E+02  0.00000E+00  9.000E+00
      25     1     1     2     0     0 -8.689892727E+01  2.989108363E+00  1.743115652E+02  2.314516798E+02  1.250000000E+02  0.00000E+00  9.000E+00
      -1     1     1     2     0   502  8.063948189E+01  1.990818802E+01  6.108025919E+02  6.164242600E+02  1.078959322E-05  0.00000E+00  9.000E+00
#rwgt            1           1   2.8594520020188394E-002           1      233628           0
</event>
<event>
      5   9999  3.19816E-02  2.02436E+01 -1.00000E+00  1.65936E-01
      21    -1     0     0   511   501  0.000000000E+00  0.000000000E+00  2.079916371E+02  2.079916371E+02  0.000000000E+00  0.00000E+00  9.000E+00
      21    -1     0     0   501   502  0.000000000E+00  0.000000000E+00 -4.187101825E+02  4.187101825E+02  0.000000000E+00  0.00000E+00  9.000E+00
      25     1     1     2     0     0  1.027664109E+02 -2.165455755E+02 -4.689360761E+01  2.743664190E+02  1.250000000E+02  0.00000E+00  9.000E+00
      25     1     1     2     0     0 -1.034855274E+02  2.367764369E+02 -1.666149540E+02  3.319004043E+02  1.250000000E+02  0.00000E+00  9.000E+00
      21     1     1     2   511   502  7.191165490E-01 -2.023086142E+01  2.790016231E+00  2.043499628E+01  2.086162567E-07  0.00000E+00  9.000E+00
#rwgt            1           1   2.8069740460546118E-002           1      233709           0
</event>
<event>
      5   9999  3.19816E-02  1.75683E+02 -1.00000E+00  1.13737E-01
      21    -1     0     0   502   501  0.000000000E+00  0.000000000E+00  1.850220661E+02  1.850220661E+02  0.000000000E+00  0.00000E+00  9.000E+00
       2    -1     0     0   501     0  0.000000000E+00  0.000000000E+00 -8.252174765E+02  8.252174765E+02  0.000000000E+00  0.00000E+00  9.000E+00
      25     1     1     2     0     0 -4.925270742E+01  1.552786335E+02 -4.906015082E+02  5.318384369E+02  1.250000000E+02  0.00000E+00  9.000E+00
      25     1     1     2     0     0 -1.133459258E+02 -2.218087576E+02 -9.450900765E+01  2.942845161E+02  1.250000000E+02  0.00000E+00  9.000E+00
       2     1     1     2   502     0  1.625986332E+02  6.653012418E+01 -5.508489461E+01  1.841165896E+02  1.784161275E-06  0.00000E+00  9.000E+00
#rwgt            1           1   2.9941998795537505E-002           1      233846           0
</event>
<event>
      5   9999  3.19816E-02  4.31889E+01 -1.00000E+00  1.42804E-01
      21    -1     0     0   502   501  0.000000000E+00  0.000000000E+00  4.705318910E+02  4.705318910E+02  0.000000000E+00  0.00000E+00  9.000E+00
      21    -1     0     0   501   511  0.000000000E+00  0.000000000E+00 -2.250387284E+02  2.250387284E+02  0.000000000E+00  0.00000E+00  9.000E+00
      25     1     1     2     0     0 -5.258773101E+01  6.465393347E+01  3.834957232E+02  4.118732454E+02  1.250000000E+02  0.00000E+00  9.000E+00
      25     1     1     2     0     0  9.537362062E+01 -7.054058261E+01 -4.045035266E+01  1.770122378E+02  1.250000000E+02  0.00000E+00  9.000E+00
      21     1     1     2   502   511 -4.278588961E+01  5.886649138E+00 -9.755220799E+01  1.066851361E+02  1.348699152E-06  0.00000E+00  9.000E+00
#rwgt            1           1   2.7900183037682835E-002           1      233916           0
</event>
<event>
      5   9999  3.19816E-02  1.40057E+02 -1.00000E+00  1.17586E-01
      21    -1     0     0   502   501  0.000000000E+00  0.000000000E+00  1.251812884E+03  1.251812884E+03  0.000000000E+00  0.00000E+00  9.000E+00
      21    -1     0     0   512   502  0.000000000E+00  0.000000000E+00 -1.772354425E+03  1.772354425E+03  0.000000000E+00  0.00000E+00  9.000E+00
      25     1     1     2     0     0 -5.161044289E+02 -1.183974303E+03 -9.032015665E+01  1.300746579E+03  1.250000000E+02  0.00000E+00  9.000E+00
      25     1     1     2     0     0  3.995154976E+02  1.261582039E+03 -6.335557461E+01  1.330729425E+03  1.250000000E+02  0.00000E+00  9.000E+00
      21     1     1     2   512   501  1.165889314E+02 -7.760773544E+01 -3.668658099E+02  3.926913062E+02  0.000000000E+00  0.00000E+00  9.000E+00
#rwgt            1           1   3.8999171135587880E-002           1      234091           0
</event>
<event>
      5   9999  3.19816E-02  4.15706E+01 -1.00000E+00  1.43810E-01
      21    -1     0     0   511   501  0.000000000E+00  0.000000000E+00  1.692665573E+02  1.692665573E+02  0.000000000E+00  0.00000E+00  9.000E+00
      21    -1     0     0   501   502  0.000000000E+00  0.000000000E+00 -1.057214606E+03  1.057214606E+03  0.000000000E+00  0.00000E+00  9.000E+00
      25     1     1     2     0     0 -2.024087575E+02  5.132504006E+00 -9.373192952E+02  9.670512442E+02  1.250000000E+02  0.00000E+00  9.000E+00
      25     1     1     2     0     0  1.650400255E+02  1.308002998E+01  6.106100179E+01  2.162469494E+02  1.250000000E+02  0.00000E+00  9.000E+00
      21     1     1     2   511   502  3.736873204E+01 -1.821253398E+01 -1.168975570E+01  4.318297022E+01  9.078709013E-07  0.00000E+00  9.000E+00
#rwgt            1           1   2.6111053866711451E-002           1      234212           0
</event>
<event>
      5   9999  3.19816E-02  1.30052E+02 -1.00000E+00  1.18904E-01
       2    -1     0     0   502     0  0.000000000E+00  0.000000000E+00  3.284125092E+03  3.284125092E+03  0.000000000E+00  0.00000E+00  9.000E+00
      21    -1     0     0   501   502  0.000000000E+00  0.000000000E+00 -2.654314480E+02  2.654314480E+02  0.000000000E+00  0.00000E+00  9.000E+00
      25     1     1     2     0     0  8.181732459E+01 -4.318617225E+01  7.920349412E+02  8.071576477E+02  1.250000000E+02  0.00000E+00  9.000E+00
      25     1     1     2     0     0  3.889506747E+01  9.158145221E+01 -2.312389109E+02  2.810630225E+02  1.250000000E+02  0.00000E+00  9.000E+00
       2     1     1     2   501     0 -1.207123921E+02 -4.839527996E+01  2.457897613E+03  2.461335869E+03  0.000000000E+00  0.00000E+00  9.000E+00
#rwgt            1           1   2.9240356045212298E-002           1      234303           0
</event>
<event>
      5   9999  3.19816E-02  1.92790E+02 -1.00000E+00  1.12232E-01
      21    -1     0     0   502   501  0.000000000E+00  0.000000000E+00  5.374009921E+02  5.374009921E+02  0.000000000E+00  0.00000E+00  9.000E+00
      21    -1     0     0   511   502  0.000000000E+00  0.000000000E+00 -9.761434659E+02  9.761434659E+02  0.000000000E+00  0.00000E+00  9.000E+00
      25     1     1     2     0     0  1.371691620E+02  2.511805750E+02  1.914015213E+02  3.662875955E+02  1.250000000E+02  0.00000E+00  9.000E+00
      25     1     1     2     0     0 -2.672099130E+02 -3.935091050E+02 -3.704595372E+00  4.918224043E+02  1.250000000E+02  0.00000E+00  9.000E+00
      21     1     1     2   511   501  1.300407510E+02  1.423285300E+02 -6.264393997E+02  6.554344581E+02  0.000000000E+00  0.00000E+00  9.000E+00
#rwgt            1           1   2.3907218944270951E-002           1      234348           0
</event>
<event>
      5   9999  3.19816E-02  4.96107E+01 -1.00000E+00  1.39269E-01
      21    -1     0     0   502   512  0.000000000E+00  0.000000000E+00  4.673434153E+02  4.673434153E+02  0.000000000E+00  0.00000E+00  9.000E+00
      21    -1     0     0   501   502  0.000000000E+00  0.000000000E+00 -1.948603411E+02  1.948603411E+02  0.000000000E+00  0.00000E+00  9.000E+00
      25     1     1     2     0     0 -1.256662491E+02 -5.335370958E+01 -8.719251262E+01  2.046122155E+02  1.250000000E+02  0.00000E+00  9.000E+00
      25     1     1     2     0     0  1.744388644E+02  4.427308843E+01  2.249980631E+02  3.140671141E+02  1.250000000E+02  0.00000E+00  9.000E+00
      21     1     1     2   501   512 -4.877261530E+01  9.080621154E+00  1.346775237E+02  1.435244267E+02  0.000000000E+00  0.00000E+00  9.000E+00
#rwgt            1           1   2.7398767812867167E-002           1      234383           0
</event>
<event>
      5   9999  3.19816E-02  2.08098E+02 -1.00000E+00  1.11024E-01
      21    -1     0     0   502   501  0.000000000E+00  0.000000000E+00  7.168699576E+02  7.168699576E+02  0.000000000E+00  0.00000E+00  9.000E+00
      21    -1     0     0   501   511  0.000000000E+00  0.000000000E+00 -1.494023068E+02  1.494023068E+02  0.000000000E+00  0.00000E+00  9.000E+00
      25     1     1     2     0     0  3.228709583E+01  9.630256248E+01  9.758431344E+01  1.883197768E+02  1.250000000E+02  0.00000E+00  9.000E+00
      25     1     1     2     0     0 -2.383022957E+02 -6.693283604E+01  3.069577504E+02  4.136617570E+02  1.250000000E+02  0.00000E+00  9.000E+00
      21     1     1     2   502   511  2.060151998E+02 -2.936972644E+01  1.629255870E+02  2.642907306E+02  6.031565972E-06  0.00000E+00  9.000E+00
#rwgt            2          11   3.2820633089116376E-003           1      234480           0
</event>
<event>
      5   9999  3.19816E-02  1.74588E+01 -1.00000E+00  1.71390E-01
      21    -1     0     0   502   501  0.000000000E+00  0.000000000E+00  1.620322584E+03  1.620322584E+03  0.000000000E+00  0.00000E+00  9.000E+00
      21    -1     0     0   501   512  0.000000000E+00  0.000000000E+00 -1.874042461E+02  1.874042461E+02  0.000000000E+00  0.00000E+00  9.000E+00
      25     1     1     2     0     0 -1.757289271E+02  4.147376269E+02  6.027260536E+02  7.627526799E+02  1.250000000E+02  0.00000E+00  9.000E+00
      25     1     1     2     0     0  1.886618558E+02 -4.264657616E+02  8.736302659E+02  9.981588967E+02  1.250000000E+02  0.00000E+00  9.000E+00
      21     1     1     2   502   512 -1.293292865E+01  1.172813467E+01 -4.343798124E+01  4.681525393E+01  2.078484985E-06  0.00000E+00  9.000E+00
#rwgt            1           1   3.0979021740136548E-002           1      234530           0
</event>
<event>
      5   9999  3.19816E-02  8.45945E+01 -1.00000E+00  1.27187E-01
      21    -1     0     0   502   501  0.000000000E+00  0.000000000E+00  2.286902462E+02  2.286902462E+02  0.000000000E+00  0.00000E+00  9.000E+00
      21    -1     0     0   501   511  0.000000000E+00  0.000000000E+00 -1.927478166E+02  1.927478166E+02  0.000000000E+00  0.00000E+00  9.000E+00
      25     1     1     2     0     0  1.046114706E+02  4.990804430E+01 -3.666805451E+01  1.743671956E+02  1.250000000E+02  0.00000E+00  9.000E+00
      25     1     1     2     0     0 -6.546630509E+01  2.508452945E+01  7.636398698E+01  1.623931317E+02  1.250000000E+02  0.00000E+00  9.000E+00
      21     1     1     2   502   511 -3.914516552E+01 -7.499257375E+01 -3.753502848E+00  8.467773548E+01  1.320078051E-06  0.00000E+00  9.000E+00
#rwgt            1           1   2.1005164710644505E-002           1      234700           0
</event>
<event>
      5   9999  3.19816E-02  2.03399E+01 -1.00000E+00  1.65768E-01
       1    -1     0     0   502     0  0.000000000E+00  0.000000000E+00  3.373479252E+03  3.373479252E+03  0.000000000E+00  0.00000E+00  9.000E+00
      21    -1     0     0   501   502  0.000000000E+00  0.000000000E+00 -6.626250120E+01  6.626250120E+01  0.000000000E+00  0.00000E+00  9.000E+00
      25     1     1     2     0     0  2.017863037E+02 -3.609452161E+02  1.471132822E+03  1.533250124E+03  1.250000000E+02  0.00000E+00  9.000E+00
      25     1     1     2     0     0 -1.833267005E+02  3.694864522E+02  1.291266151E+03  1.361294307E+03  1.250000000E+02  0.00000E+00  9.000E+00
       1     1     1     2   501     0 -1.845960319E+01 -8.541236176E+00  5.448177776E+02  5.451973225E+02  7.629394531E-06  0.00000E+00  9.000E+00
#rwgt            1           1   5.1414619794820315E-002           1      234763           0
</event>
<event>
      5   9999  3.19816E-02  3.71358E+01 -1.00000E+00  1.46870E-01
      21    -1     0     0   502   501  0.000000000E+00  0.000000000E+00  5.867922747E+02  5.867922747E+02  0.000000000E+00  0.00000E+00  9.000E+00
       2    -1     0     0   501     0  0.000000000E+00  0.000000000E+00 -7.287369595E+01  7.287369595E+01  0.000000000E+00  0.00000E+00  9.000E+00
      25     1     1     2     0     0  2.377169896E+01  6.076985565E+01  8.362165131E+01  1.639379443E+02  1.250000000E+02  0.00000E+00  9.000E+00
      25     1     1     2     0     0 -4.496307670E+01 -9.126561957E+01  4.293239678E+02  4.585795033E+02  1.250000000E+02  0.00000E+00  9.000E+00
       2     1     1     2   502     0  2.119137773E+01  3.049576391E+01  9.729596492E-01  3.714852295E+01  6.956624299E-07  0.00000E+00  9.000E+00
#rwgt            1           1   3.1546708142858718E-002           1      235010           0
</event>
<event>
      5   9999  3.19816E-02  1.02694E+02 -1.00000E+00  1.23311E-01
      21    -1     0     0   502   511  0.000000000E+00  0.000000000E+00  1.248880396E+03  1.248880396E+03  0.000000000E+00  0.00000E+00  9.000E+00
      21    -1     0     0   501   502  0.000000000E+00  0.000000000E+00 -4.815204069E+02  4.815204069E+02  0.000000000E+00  0.00000E+00  9.000E+00
      25     1     1     2     0     0  6.861947764E+00  4.721133669E+02 -2.562949652E+02  5.515888204E+02  1.250000000E+02  0.00000E+00  9.000E+00
      25     1     1     2     0     0 -1.063752669E+02 -4.467526635E+02  7.708652462E+02  9.059590871E+02  1.250000000E+02  0.00000E+00  9.000E+00
      21     1     1     2   501   511  9.951331912E+01 -2.536070341E+01  2.527897078E+02  2.728528950E+02  5.394796609E-06  0.00000E+00  9.000E+00
#rwgt            1           1   1.9573414168879422E-002           1      235085           0
</event>
<event>
      5   9999  3.19816E-02  2.05819E+01 -1.00000E+00  1.65348E-01
      21    -1     0     0   502   501  0.000000000E+00  0.000000000E+00  1.036023545E+03  1.036023545E+03  0.000000000E+00  0.00000E+00  9.000E+00
      21    -1     0     0   512   502  0.000000000E+00  0.000000000E+00 -3.446636971E+02  3.446636971E+02  0.000000000E+00  0.00000E+00  9.000E+00
      25     1     1     2     0     0  1.876205451E+02 -4.286990256E+02 -3.007529464E+01  4.852976889E+02  1.250000000E+02  0.00000E+00  9.000E+00
      25     1     1     2     0     0 -2.039548735E+02  4.412211338E+02  7.154819372E+02  8.739640049E+02  1.250000000E+02  0.00000E+00  9.000E+00
      21     1     1     2   512   501  1.633432833E+01 -1.252210824E+01  5.953205479E+00  2.142554859E+01  1.685873940E-07  0.00000E+00  9.000E+00
#rwgt            1           1   2.6316387454495060E-002           1      235186           0
</event>
<event>
      5   9999  3.23006E-02  1.19048E+01 -1.00000E+00  1.87393E-01
      21    -1     0     0   502   501  0.000000000E+00  0.000000000E+00  5.965730835E+02  5.965730835E+02  0.000000000E+00  0.00000E+00  9.000E+00
      21    -1     0     0   501   511  0.000000000E+00  0.000000000E+00 -1.061659221E+03  1.061659221E+03  0.000000000E+00  0.00000E+00  9.000E+00
      25     1     1     2     0     0  4.183760191E+02  5.349115335E+02 -5.166257912E+02  8.623781364E+02  1.250000000E+02  0.00000E+00  9.000E+00
      25     1     1     2     0     0 -4.209476750E+02 -5.465352211E+02  1.329471187E+02  7.135808499E+02  1.250000000E+02  0.00000E+00  9.000E+00
      21     1     1     2   502   511  2.571655981E+00  1.162368761E+01 -8.140746470E+01  8.227331789E+01  1.348699152E-06  0.00000E+00  9.000E+00
#rwgt            1           1   3.1451735282402193E-002           1      235433           0
</event>
<event>
      5   9999  3.19816E-02  4.56620E+01 -1.00000E+00  1.41362E-01
       2    -1     0     0   502     0  0.000000000E+00  0.000000000E+00  1.503763739E+03  1.503763739E+03  0.000000000E+00  0.00000E+00  9.000E+00
      21    -1     0     0   501   502  0.000000000E+00  0.000000000E+00 -7.741386933E+02  7.741386933E+02  0.000000000E+00  0.00000E+00  9.000E+00
      25     1     1     2     0     0  2.792564521E+02 -7.136311578E+02  3.463869875E+02  8.502132324E+02  1.250000000E+02  0.00000E+00  9.000E+00
      25     1     1     2     0     0 -2.726168192E+02  7.588078689E+02 -2.020922687E+02  8.405805120E+02  1.250000000E+02  0.00000E+00  9.000E+00
       2     1     1     2   501     0 -6.639632986E+00 -4.517671112E+01  5.853303272E+02  5.871086883E+02  7.629394531E-06  0.00000E+00  9.000E+00
#rwgt            1           1   2.6252556722369182E-002           1      235789           0
</event>
<event>
      5   9999  3.19816E-02  4.99342E+01 -1.00000E+00  1.39108E-01
      21    -1     0     0   502   501  0.000000000E+00  0.000000000E+00  2.812066457E+02  2.812066457E+02  0.000000000E+00  0.00000E+00  9.000E+00
      21    -1     0     0   511   502  0.000000000E+00  0.000000000E+00 -8.002517639E+02  8.002517639E+02  0.000000000E+00  0.00000E+00  9.000E+00
      25     1     1     2     0     0  2.336721561E+02  2.589245069E+02  4.133923961E+01  3.727982155E+02  1.250000000E+02  0.00000E+00  9.000E+00
      25     1     1     2     0     0 -2.041425793E+02 -2.991914250E+02 -4.823419803E+02  6.160101358E+02  1.250000000E+02  0.00000E+00  9.000E+00
      21     1     1     2   511   501 -2.952957676E+01  4.026691817E+01 -7.804237757E+01  9.265005828E+01  9.536743164E-07  0.00000E+00  9.000E+00
#rwgt            1           1   2.0882563051738145E-002           1      236008           0
</event>
<event>
      5   9999  3.19816E-02  1.62155E+02 -1.00000E+00  1.15068E-01
      21    -1     0     0   502   501  0.000000000E+00  0.000000000E+00  2.208316450E+03  2.208316450E+03  0.000000000E+00  0.00000E+00  9.000E+00
      21    -1     0     0   501   512  0.000000000E+00  0.000000000E+00 -3.399164990E+02  3.399164990E+02  0.000000000E+00  0.00000E+00  9.000E+00
      25     1     1     2     0     0 -4.101974528E+02  2.836741493E+02  9.582682385E+02  1.087490685E+03  1.250000000E+02  0.00000E+00  9.000E+00
      25     1     1     2     0     0  5.720784694E+02 -2.742539621E+02  1.058876382E+03  1.240698676E+03  1.250000000E+02  0.00000E+00  9.000E+00
      21     1     1     2   502   512 -1.618810166E+02 -9.420187185E+00 -1.487446705E+02  2.200435876E+02  2.697398305E-06  0.00000E+00  9.000E+00
#rwgt            1           1   3.7638460997230089E-002           1      236220           0
</event>
<event>
      5   9999  3.19816E-02  1.92542E+01 -1.00000E+00  1.67742E-01
      21    -1     0     0   511   501  0.000000000E+00  0.000000000E+00  8.659584509E+02  8.659584509E+02  0.000000000E+00  0.00000E+00  9.000E+00
      21    -1     0     0   501   502  0.000000000E+00  0.000000000E+00 -6.248513698E+01  6.248513698E+01  0.000000000E+00  0.00000E+00  9.000E+00
      25     1     1     2     0     0 -7.503105597E+01 -3.929386521E+01  6.765404940E+02  6.931851897E+02  1.250000000E+02  0.00000E+00  9.000E+00
      25     1     1     2     0     0  5.609099256E+01  3.582997873E+01  4.133933096E+01  1.475260218E+02  1.250000000E+02  0.00000E+00  9.000E+00
      21     1     1     2   511   502  1.894006341E+01  3.463886481E+00  8.559348895E+01  8.773237637E+01  0.000000000E+00  0.00000E+00  9.000E+00
#rwgt            1           1   2.7980319105727725E-002           1      236332           0
</event>
<event>
      5   9999  3.19816E-02  2.94584E+01 -1.00000E+00  1.53591E-01
      21    -1     0     0   502   501  0.000000000E+00  0.000000000E+00  9.744196962E+02  9.744196962E+02  0.000000000E+00  0.00000E+00  9.000E+00
      21    -1     0     0   501   512  0.000000000E+00  0.000000000E+00 -1.203235224E+02  1.203235224E+02  0.000000000E+00  0.00000E+00  9.000E+00
      25     1     1     2     0     0 -1.600483214E+02  2.007151272E+02  4.315535329E+02  5.174606064E+02  1.250000000E+02  0.00000E+00  9.000E+00
      25     1     1     2     0     0  1.868351020E+02 -2.129733059E+02  4.436579968E+02  5.410382635E+02  1.250000000E+02  0.00000E+00  9.000E+00
      21     1     1     2   502   512 -2.678678062E+01  1.225817868E+01 -2.111535590E+01  3.624434874E+01  0.000000000E+00  0.00000E+00  9.000E+00
#rwgt            1           1   2.7214811157466434E-002           1      236539           0
</event>
<event>
      5   9999  3.19816E-02  1.06065E+02 -1.00000E+00  1.22689E-01
       2    -1     0     0   502     0  0.000000000E+00  0.000000000E+00  3.245707815E+03  3.245707815E+03  0.000000000E+00  0.00000E+00  9.000E+00
      21    -1     0     0   501   502  0.000000000E+00  0.000000000E+00 -2.126835526E+02  2.126835526E+02  0.000000000E+00  0.00000E+00  9.000E+00
      25     1     1     2     0     0  2.492903654E+02  3.412565567E+02  5.356192494E+02  6.936243249E+02  1.250000000E+02  0.00000E+00  9.000E+00
      25     1     1     2     0     0 -2.628826266E+02 -2.360657483E+02  1.325405484E+02  3.975252318E+02  1.250000000E+02  0.00000E+00  9.000E+00
       2     1     1     2   501     0  1.359226124E+01 -1.051908084E+02  2.364864465E+03  2.367241811E+03  6.103515625E-05  0.00000E+00  9.000E+00
#rwgt            2          18   1.6955778362255337E-003           1      236813           0
</event>
<event>
      5   9999  3.19816E-02  4.88081E+01 -1.00000E+00  1.39676E-01
       2    -1     0     0   502     0  0.000000000E+00  0.000000000E+00  4.787303396E+02  4.787303396E+02  0.000000000E+00  0.00000E+00  9.000E+00
      21    -1     0     0   501   502  0.000000000E+00  0.000000000E+00 -1.729927708E+02  1.729927708E+02  0.000000000E+00  0.00000E+00  9.000E+00
      25     1     1     2     0     0 -3.826147876E+00 -1.391400869E+02 -7.720895076E+01  2.023878091E+02  1.250000000E+02  0.00000E+00  9.000E+00
      25     1     1     2     0     0 -4.130102159E+01  1.205451438E+02  3.413626503E+02  3.852147000E+02  1.250000000E+02  0.00000E+00  9.000E+00
       2     1     1     2   501     0  4.512716947E+01  1.859494309E+01  4.158386920E+01  6.412060130E+01  9.536743164E-07  0.00000E+00  9.000E+00
#rwgt            1           1   2.9323378873491474E-002           1      236832           0
</event>
<event>
      5   9999  3.19816E-02  1.20420E+02 -1.00000E+00  1.20304E-01
      21    -1     0     0   502   501  0.000000000E+00  0.000000000E+00  4.569208734E+02  4.569208734E+02  0.000000000E+00  0.00000E+00  9.000E+00
      21    -1     0     0   501   511  0.000000000E+00  0.000000000E+00 -8.907515654E+02  8.907515654E+02  0.000000000E+00  0.00000E+00  9.000E+00
      25     1     1     2     0     0 -8.353072083E+01  8.902046886E+01  4.106870121E+02  4.463080182E+02  1.250000000E+02  0.00000E+00  9.000E+00
      25     1     1     2     0     0 -2.400328149E+01 -1.432175902E+02 -4.562019460E+02  4.948056701E+02  1.250000000E+02  0.00000E+00  9.000E+00
      21     1     1     2   502   511  1.075340023E+02  5.419712133E+01 -3.883157581E+02  4.065587505E+02  0.000000000E+00  0.00000E+00  9.000E+00
#rwgt            1           1   2.9235077253902179E-002           1      236932           0
</event>
<event>
      5   9999  3.19816E-02  5.38426E+01 -1.00000E+00  1.37265E-01
      21    -1     0     0   502   501  0.000000000E+00  0.000000000E+00  8.076557360E+01  8.076557360E+01  0.000000000E+00  0.00000E+00  9.000E+00
      21    -1     0     0   512   502  0.000000000E+00  0.000000000E+00 -1.744441138E+03  1.744441138E+03  0.000000000E+00  0.00000E+00  9.000E+00
      25     1     1     2     0     0 -1.165849810E+02 -5.460583668E+01 -6.993470889E+01  1.925869121E+02  1.250000000E+02  0.00000E+00  9.000E+00
      25     1     1     2     0     0  1.634676730E+02  2.812865503E+01 -5.567050546E+02  5.941871920E+02  1.250000000E+02  0.00000E+00  9.000E+00
      21     1     1     2   512   501 -4.688269205E+01  2.647718165E+01 -1.037035801E+03  1.038432607E+03  1.525878906E-05  0.00000E+00  9.000E+00
#rwgt            1           1   2.8843382717721935E-002           1      236985           0
</event>
<event>
      5   9999  3.19816E-02  1.06560E+01 -1.00000E+00  1.92620E-01
      21    -1     0     0   502   511  0.000000000E+00  0.000000000E+00  9.502134578E+01  9.502134578E+01  0.000000000E+00  0.00000E+00  9.000E+00
      21    -1     0     0   501   502  0.000000000E+00  0.000000000E+00 -8.454516373E+02  8.454516373E+02  0.000000000E+00  0.00000E+00  9.000E+00
      25     1     1     2     0     0 -1.810098127E+02  1.430048480E+01 -6.434770437E+02  6.801887693E+02  1.250000000E+02  0.00000E+00  9.000E+00
      25     1     1     2     0     0  1.832472128E+02 -2.471898210E+01 -1.105047359E+02  2.490519338E+02  1.250000000E+02  0.00000E+00  9.000E+00
      21     1     1     2   501   511 -2.237400039E+00  1.041849731E+01  3.551488075E+00  1.123227994E+01  2.698715072E-07  0.00000E+00  9.000E+00
#rwgt            1           1   2.7784580853950986E-002           1      237096           0
</event>
<event>
      5   9999  3.19816E-02  2.81754E+01 -1.00000E+00  1.54957E-01
      21    -1     0     0   512   501  0.000000000E+00  0.000000000E+00  6.881042532E+02  6.881042532E+02  0.000000000E+00  0.00000E+00  9.000E+00
      21    -1     0     0   501   502  0.000000000E+00  0.000000000E+00 -6.313022216E+01  6.313022216E+01  0.000000000E+00  0.00000E+00  9.000E+00
      25     1     1     2     0     0 -1.113356222E+02 -6.801160599E+01  2.054887948E+02  2.736271992E+02  1.250000000E+02  0.00000E+00  9.000E+00
      25     1     1     2     0     0  1.110881112E+02  3.983730386E+01  2.360122666E+02  2.919835085E+02  1.250000000E+02  0.00000E+00  9.000E+00
      21     1     1     2   512   502  2.475110054E-01  2.817430213E+01  1.834729696E+02  1.856237677E+02  3.814697266E-06  0.00000E+00  9.000E+00
#rwgt            1           1   2.5714477021606650E-002           1      237366           0
</event>
<event>
      5   9999  3.19816E-02  5.20994E+01 -1.00000E+00  1.38064E-01
      21    -1     0     0   502   501  0.000000000E+00  0.000000000E+00  1.480691291E+03  1.480691291E+03  0.000000000E+00  0.00000E+00  9.000E+00
      21    -1     0     0   501   511  0.000000000E+00  0.000000000E+00 -1.349916020E+02  1.349916020E+02  0.000000000E+00  0.00000E+00  9.000E+00
      25     1     1     2     0     0 -2.566022747E+02 -1.605743166E+02  1.113701374E+03  1.160855111E+03  1.250000000E+02  0.00000E+00  9.000E+00
      25     1     1     2     0     0  2.362987155E+02  2.085546373E+02  2.037140436E+02  3.955458649E+02  1.250000000E+02  0.00000E+00  9.000E+00
      21     1     1     2   502   511  2.030355921E+01 -4.798032069E+01  2.828427184E+01  5.928191734E+01  1.011524364E-06  0.00000E+00  9.000E+00
#rwgt            1           1   3.4463413690484751E-002           1      237467           0
</event>
<event>
      5   9999  3.19816E-02  4.60876E+01 -1.00000E+00  1.41125E-01
      21    -1     0     0   502   501  0.000000000E+00  0.000000000E+00  1.497635859E+03  1.497635859E+03  0.000000000E+00  0.00000E+00  9.000E+00
      21    -1     0     0   512   502  0.000000000E+00  0.000000000E+00 -2.295504411E+02  2.295504411E+02  0.000000000E+00  0.00000E+00  9.000E+00
      25     1     1     2     0     0 -9.629782069E+01 -3.813349206E+02  1.429296502E+02  4.367418882E+02  1.250000000E+02  0.00000E+00  9.000E+00
      25     1     1     2     0     0  5.528209189E+01  4.023534796E+02  1.158227871E+03  1.233718458E+03  1.250000000E+02  0.00000E+00  9.000E+00
      21     1     1     2   512   501  4.101572880E+01 -2.101855896E+01 -3.307210339E+01  5.672595396E+01  8.259061849E-07  0.00000E+00  9.000E+00
#rwgt            1           1   2.4224672968851692E-002           1      237604           0
</event>
<event>
      5   9999  3.19816E-02  9.16402E+01 -1.00000E+00  1.25558E-01
       2    -1     0     0   502     0  0.000000000E+00  0.000000000E+00  2.235199820E+03  2.235199820E+03  0.000000000E+00  0.00000E+00  9.000E+00
      21    -1     0     0   501   502  0.000000000E+00  0.000000000E+00 -3.322834556E+02  3.322834556E+02  0.000000000E+00  0.00000E+00  9.000E+00
      25     1     1     2     0     0 -1.401468456E+01  4.438982570E+02  1.089796504E+03  1.183437152E+03  1.250000000E+02  0.00000E+00  9.000E+00
      25     1     1     2     0     0 -4.175389005E+01 -3.711810820E+02 -1.463625954E+02  4.201973254E+02  1.250000000E+02  0.00000E+00  9.000E+00
       2     1     1     2   501     0  5.576857461E+01 -7.271717502E+01  9.594824558E+02  9.638487975E+02  1.525878906E-05  0.00000E+00  9.000E+00
#rwgt            2          18   1.2657408211366240E-003           1      237751           0
</event>
<event>
      5   9999  3.19816E-02  6.37058E+01 -1.00000E+00  1.33327E-01
      21    -1     0     0   502   511  0.000000000E+00  0.000000000E+00  7.658598571E+02  7.658598571E+02  0.000000000E+00  0.00000E+00  9.000E+00
      21    -1     0     0   501   502  0.000000000E+00  0.000000000E+00 -6.628177817E+02  6.628177817E+02  0.000000000E+00  0.00000E+00  9.000E+00
      25     1     1     2     0     0  5.449506640E+02  2.116111885E+02 -1.386064265E+02  6.136670618E+02  1.250000000E+02  0.00000E+00  9.000E+00
      25     1     1     2     0     0 -4.821282657E+02 -2.221838632E+02 -1.997277630E+01  5.457446705E+02  1.250000000E+02  0.00000E+00  9.000E+00
      21     1     1     2   501   511 -6.282239829E+01  1.057267471E+01  2.616212782E+02  2.692659065E+02  3.814697266E-06  0.00000E+00  9.000E+00
#rwgt            1           1   3.1309817117702039E-002           1      237785           0
</event>
<event>
      5   9999  3.19816E-02  3.59451E+01 -1.00000E+00  1.47779E-01
      21    -1     0     0   502   501  0.000000000E+00  0.000000000E+00  2.843705154E+02  2.843705154E+02  0.000000000E+00  0.00000E+00  9.000E+00
       2    -1     0     0   501     0  0.000000000E+00  0.000000000E+00 -2.934454545E+03  2.934454545E+03  0.000000000E+00  0.00000E+00  9.000E+00
      25     1     1     2     0     0  1.610654258E+02 -4.995581390E+01  2.281980599E+02  3.100596866E+02  1.250000000E+02  0.00000E+00  9.000E+00
      25     1     1     2     0     0 -1.572821291E+02  1.421039702E+01 -6.566696875E+02  6.868622001E+02  1.250000000E+02  0.00000E+00  9.000E+00
       2     1     1     2   502     0 -3.783296742E+00  3.574541689E+01 -2.221612402E+03  2.221903174E+03  0.000000000E+00  0.00000E+00  9.000E+00
#rwgt            1           1   2.9540818507231840E-002           1      237928           0
</event>
<event>
      5   9999  3.19816E-02  9.13329E+00 -1.00000E+00  2.00422E-01
       2    -1     0     0   502     0  0.000000000E+00  0.000000000E+00  1.375253419E+03  1.375253419E+03  0.000000000E+00  0.00000E+00  9.000E+00
      21    -1     0     0   501   502  0.000000000E+00  0.000000000E+00 -1.220139454E+02  1.220139454E+02  0.000000000E+00  0.00000E+00  9.000E+00
      25     1     1     2     0     0  1.573910253E+02  1.756412278E+02  7.462380952E+02  7.925390025E+02  1.250000000E+02  0.00000E+00  9.000E+00
      25     1     1     2     0     0 -1.493670218E+02 -1.800038307E+02  7.913661461E+01  2.767661288E+02  1.250000000E+02  0.00000E+00  9.000E+00
       2     1     1     2   501     0 -8.024003536E+00  4.362602967E+00  4.278647637E+02  4.279622331E+02  7.629394531E-06  0.00000E+00  9.000E+00
#rwgt            1           1   2.8693350056935452E-002           1      238045           0
</event>
<event>
      5   9999  3.19816E-02  2.12468E+01 -1.00000E+00  1.64231E-01
      21    -1     0     0   502   511  0.000000000E+00  0.000000000E+00  1.689225622E+02  1.689225622E+02  0.000000000E+00  0.00000E+00  9.000E+00
      21    -1     0     0   501   502  0.000000000E+00  0.000000000E+00 -5.687207964E+02  5.687207964E+02  0.000000000E+00  0.00000E+00  9.000E+00
      25     1     1     2     0     0 -2.618081359E+02  1.879598815E+01 -1.018931194E+02  3.080649233E+02  1.250000000E+02  0.00000E+00  9.000E+00
      25     1     1     2     0     0  2.532929345E+02 -3.826177833E+01 -2.907400194E+02  4.071560306E+02  1.250000000E+02  0.00000E+00  9.000E+00
      21     1     1     2   501   511  8.515201348E+00  1.946579018E+01 -7.165095486E+00  2.242240475E+01  1.884864366E-07  0.00000E+00  9.000E+00
#rwgt            1           1   2.6771575488958574E-002           1      238284           0
</event>
<event>
      5   9999  3.19816E-02  3.15303E+02 -1.00000E+00  1.04895E-01
      21    -1     0     0   502   501  0.000000000E+00  0.000000000E+00  2.775019115E+02  2.775019115E+02  0.000000000E+00  0.00000E+00  9.000E+00
      21    -1     0     0   501   512  0.000000000E+00  0.000000000E+00 -9.371789533E+02  9.371789533E+02  0.000000000E+00  0.00000E+00  9.000E+00
      25     1     1     2     0     0  2.003347269E+02  1.027659587E+02  1.300591577E+02  2.885051639E+02  1.250000000E+02  0.00000E+00  9.000E+00
      25     1     1     2     0     0  7.576572321E+01  4.949970805E+01 -3.724929598E+02  4.031955741E+02  1.250000000E+02  0.00000E+00  9.000E+00
      21     1     1     2   502   512 -2.761004501E+02 -1.522656668E+02 -4.172432398E+02  5.229801267E+02  5.394796609E-06  0.00000E+00  9.000E+00
#rwgt            1           1   2.9555778016672488E-002           1      238434           0
</event>
<event>
      5   9999  3.19816E-02  2.53355E+02 -1.00000E+00  1.08033E-01
      -2    -1     0     0     0   501  0.000000000E+00  0.000000000E+00  2.614035341E+03  2.614035341E+03  0.000000000E+00  0.00000E+00  9.000E+00
      21    -1     0     0   501   502  0.000000000E+00  0.000000000E+00 -1.105803498E+03  1.105803498E+03  0.000000000E+00  0.00000E+00  9.000E+00
      25     1     1     2     0     0  9.277207123E+01  3.676924976E+02 -9.139273317E+02  9.973427684E+02  1.250000000E+02  0.00000E+00  9.000E+00
      25     1     1     2     0     0 -3.325671901E+02 -4.494657100E+02  4.352659464E+02  7.195149786E+02  1.250000000E+02  0.00000E+00  9.000E+00
      -2     1     1     2     0   502  2.397951189E+02  8.177321233E+01  1.986893228E+03  2.002981093E+03  2.157918644E-05  0.00000E+00  9.000E+00
#rwgt            1           1   1.9297465529860561E-002           1      238464           0
</event>
<event>
      5   9999  3.19816E-02  1.82350E+02 -1.00000E+00  1.13128E-01
       2    -1     0     0   502     0  0.000000000E+00  0.000000000E+00  8.090598418E+02  8.090598418E+02  0.000000000E+00  0.00000E+00  9.000E+00
      21    -1     0     0   501   502  0.000000000E+00  0.000000000E+00 -5.667996206E+02  5.667996206E+02  0.000000000E+00  0.00000E+00  9.000E+00
      25     1     1     2     0     0  6.056112913E+02  1.256352471E+02  3.617928865E+01  6.320468277E+02  1.250000000E+02  0.00000E+00  9.000E+00
      25     1     1     2     0     0 -4.468958268E+02 -3.585269345E+01 -4.237685754E+00  4.654505920E+02  1.250000000E+02  0.00000E+00  9.000E+00
       2     1     1     2   501     0 -1.587154645E+02 -8.978255366E+01  2.103186183E+02  2.783620427E+02  3.814697266E-06  0.00000E+00  9.000E+00
#rwgt            1           1   2.8986129348594188E-002           1      238557           0
</event>
<event>
      5   9999  3.19816E-02  9.87429E+01 -1.00000E+00  1.24076E-01
      21    -1     0     0   511   501  0.000000000E+00  0.000000000E+00  1.726122562E+02  1.726122562E+02  0.000000000E+00  0.00000E+00  9.000E+00
      21    -1     0     0   501   502  0.000000000E+00  0.000000000E+00 -3.528840121E+02  3.528840121E+02  0.000000000E+00  0.00000E+00  9.000E+00
      25     1     1     2     0     0 -1.463175919E+02  3.716168601E+01 -2.033681363E+02  2.824419010E+02  1.250000000E+02  0.00000E+00  9.000E+00
      25     1     1     2     0     0  4.771704833E+01 -4.246132553E+01  3.179254474E+01  1.439293117E+02  1.250000000E+02  0.00000E+00  9.000E+00
      21     1     1     2   511   502  9.860054354E+01  5.299639525E+00 -8.696164335E+00  9.912505556E+01  1.111910230E-06  0.00000E+00  9.000E+00
#rwgt            1           1   2.5958117239588706E-002           1      238617           0
</event>
<event>
      5   9999  3.19816E-02  7.55534E+01 -1.00000E+00  1.29563E-01
      21    -1     0     0   502   501  0.000000000E+00  0.000000000E+00  1.163356270E+03  1.163356270E+03  0.000000000E+00  0.00000E+00  9.000E+00
      21    -1     0     0   501   512  0.000000000E+00  0.000000000E+00 -5.527924840E+02  5.527924840E+02  0.000000000E+00  0.00000E+00  9.000E+00
      25     1     1     2     0     0 -1.619137950E+02 -5.385101427E+02  8.916288400E+02  1.061525430E+03  1.250000000E+02  0.00000E+00  9.000E+00
      25     1     1     2     0     0  1.776762490E+02  4.646192577E+02 -2.652695421E+02  5.774364329E+02  1.250000000E+02  0.00000E+00  9.000E+00
      21     1     1     2   502   512 -1.576245399E+01  7.389088503E+01 -1.579551213E+01  7.718689040E+01  5.331201500E-07  0.00000E+00  9.000E+00
#rwgt            2          11   7.8943805590425166E-003           1      238814           0
</event>
<event>
      5   9999  3.19816E-02  4.11148E+01 -1.00000E+00  1.44104E-01
      21    -1     0     0   511   501  0.000000000E+00  0.000000000E+00  1.259284271E+02  1.259284271E+02  0.000000000E+00  0.00000E+00  9.000E+00
      21    -1     0     0   501   502  0.000000000E+00  0.000000000E+00 -6.423212937E+02  6.423212937E+02  0.000000000E+00  0.00000E+00  9.000E+00
      25     1     1     2     0     0  2.772860714E+01 -3.882210779E+01 -8.683205995E+01  1.595018443E+02  1.250000000E+02  0.00000E+00  9.000E+00
      25     1     1     2     0     0 -6.732115642E+01  2.773789319E+01 -5.036510422E+02  5.240142185E+02  1.250000000E+02  0.00000E+00  9.000E+00
      21     1     1     2   511   502  3.959254928E+01  1.108421460E+01  7.409023563E+01  8.473365794E+01  9.536743164E-07  0.00000E+00  9.000E+00
#rwgt            1           1   3.1718295189221216E-002           1      238849           0
</event>
<event>
      5   9999  3.19816E-02  3.84128E+01 -1.00000E+00  1.45939E-01
      21    -1     0     0   502   501  0.000000000E+00  0.000000000E+00  1.832850992E+02  1.832850992E+02  0.000000000E+00  0.00000E+00  9.000E+00
      21    -1     0     0   512   502  0.000000000E+00  0.000000000E+00 -5.848905237E+02  5.848905237E+02  0.000000000E+00  0.00000E+00  9.000E+00
      25     1     1     2     0     0 -6.621670329E+01 -2.893328572E+02 -1.766120665E+02  3.673077403E+02  1.250000000E+02  0.00000E+00  9.000E+00
      25     1     1     2     0     0  7.722954621E+01  2.525326082E+02 -1.872954100E+02  3.470471029E+02  1.250000000E+02  0.00000E+00  9.000E+00
      21     1     1     2   512   501 -1.101284292E+01  3.680024904E+01 -3.769794812E+01  5.382077973E+01  0.000000000E+00  0.00000E+00  9.000E+00
#rwgt            1           1   2.7083338987311668E-002           1      238969           0
</event>
<event>
      5   9999  3.19816E-02  1.00120E+02 -1.00000E+00  1.23805E-01
       1    -1     0     0   502     0  0.000000000E+00  0.000000000E+00  1.710931763E+03  1.710931763E+03  0.000000000E+00  0.00000E+00  9.000E+00
      21    -1     0     0   501   502  0.000000000E+00  0.000000000E+00 -3.673312480E+02  3.673312480E+02  0.000000000E+00  0.00000E+00  9.000E+00
      25     1     1     2     0     0  5.233109561E+01 -9.707674802E+01 -5.266917259E+01  1.748184210E+02  1.250000000E+02  0.00000E+00  9.000E+00
      25     1     1     2     0     0 -4.293939882E+01  1.967551986E+02 -1.962833257E+02  3.077475330E+02  1.250000000E+02  0.00000E+00  9.000E+00
       1     1     1     2   501     0 -9.391696788E+00 -9.967845053E+01  1.592553014E+03  1.595697057E+03  0.000000000E+00  0.00000E+00  9.000E+00
#rwgt            1           1   3.0702665694714505E-002           1      239095           0
</event>
<event>
      5   9999  3.19816E-02  2.11970E+02 -1.00000E+00  1.10737E-01
      21    -1     0     0   502   501  0.000000000E+00  0.000000000E+00  7.154395397E+01  7.154395397E+01  0.000000000E+00  0.00000E+00  9.000E+00
       2    -1     0     0   501     0  0.000000000E+00  0.000000000E+00 -1.526033531E+03  1.526033531E+03  0.000000000E+00  0.00000E+00  9.000E+00
      25     1     1     2     0     0 -6.653823996E+01  1.425883776E+02 -2.350779057E+02  3.092659123E+02  1.250000000E+02  0.00000E+00  9.000E+00
      25     1     1     2     0     0 -7.926300041E+01  1.127295422E+01 -2.117581307E+02  2.586043477E+02  1.250000000E+02  0.00000E+00  9.000E+00
       2     1     1     2   502     0  1.458012404E+02 -1.538613318E+02 -1.007653541E+03  1.029707225E+03  1.078959322E-05  0.00000E+00  9.000E+00
#rwgt            1           1   1.6165002743234114E-002           1      239141           0
</event>
<event>
      5   9999  3.19816E-02  7.21727E+01 -1.00000E+00  1.30552E-01
      21    -1     0     0   502   501  0.000000000E+00  0.000000000E+00  1.059142893E+03  1.059142893E+03  0.000000000E+00  0.00000E+00  9.000E+00
      21    -1     0     0   501   511  0.000000000E+00  0.000000000E+00 -3.411532969E+02  3.411532969E+02  0.000000000E+00  0.00000E+00  9.000E+00
      25     1     1     2     0     0 -1.902350311E+02  1.748146695E+02  8.836990987E+02  9.291386509E+02  1.250000000E+02  0.00000E+00  9.000E+00
      25     1     1     2     0     0  1.588069909E+02 -2.397852192E+02 -2.694980036E+01  3.147505416E+02  1.250000000E+02  0.00000E+00  9.000E+00
      21     1     1     2   502   511  3.142804019E+01  6.497054978E+01 -1.387597018E+02  1.564069976E+02  1.907348633E-06  0.00000E+00  9.000E+00
#rwgt            1           1   2.4323568829698852E-002           1      239275           0
</event>
<event>
      5   9999  3.19816E-02  1.25818E+02 -1.00000E+00  1.19502E-01
      21    -1     0     0   512   501  0.000000000E+00  0.000000000E+00  1.135604177E+02  1.135604177E+02  0.000000000E+00  0.00000E+00  9.000E+00
      21    -1     0     0   501   502  0.000000000E+00  0.000000000E+00 -6.846369638E+02  6.846369638E+02  0.000000000E+00  0.00000E+00  9.000E+00
      25     1     1     2     0     0  2.185520852E+02  6.787507157E+01 -3.298914182E+02  4.205061083E+02  1.250000000E+02  0.00000E+00  9.000E+00
      25     1     1     2     0     0 -9.370907267E+01 -5.224502892E+01 -1.418246320E+02  2.173710183E+02  1.250000000E+02  0.00000E+00  9.000E+00
      21     1     1     2   512   502 -1.248430126E+02 -1.563004265E+01 -9.936049587E+01  1.603202550E+02  2.336015456E-06  0.00000E+00  9.000E+00
#rwgt            1           1   3.1597370228254457E-002           1      239351           0
</event>
<event>
      5   9999  3.19816E-02  1.07085E+02 -1.00000E+00  1.22505E-01
      21    -1     0     0   502   511  0.000000000E+00  0.000000000E+00  1.416230385E+02  1.416230385E+02  0.000000000E+00  0.00000E+00  9.000E+00
      21    -1     0     0   501   502  0.000000000E+00  0.000000000E+00 -6.489106928E+02  6.489106928E+02  0.000000000E+00  0.00000E+00  9.000E+00
      25     1     1     2     0     0 -7.059827415E+01  1.892032196E+02 -3.137417302E+02  3.934982184E+02  1.250000000E+02  0.00000E+00  9.000E+00
      25     1     1     2     0     0  1.504493688E+02 -1.178515793E+02 -1.764613993E+02  2.885959680E+02  1.250000000E+02  0.00000E+00  9.000E+00
      21     1     1     2   501   511 -7.985109469E+01 -7.135164035E+01 -1.708452475E+01  1.084395449E+02  1.118282261E-06  0.00000E+00  9.000E+00
#rwgt            1           1   3.1993232929222147E-002           1      239422           0
</event>
<event>
      5   9999  3.19816E-02  3.27797E+01 -1.00000E+00  1.50414E-01
      21    -1     0     0   512   501  0.000000000E+00  0.000000000E+00  1.581116139E+03  1.581116139E+03  0.000000000E+00  0.00000E+00  9.000E+00
      21    -1     0     0   501   502  0.000000000E+00  0.000000000E+00 -1.933559759E+02  1.933559759E+02  0.000000000E+00  0.00000E+00  9.000E+00
      25     1     1     2     0     0 -2.134337417E+02 -3.100047568E+01  1.260702762E+03  1.285111453E+03  1.250000000E+02  0.00000E+00  9.000E+00
      25     1     1     2     0     0  1.944575634E+02  5.772892903E+01 -1.011226642E+02  2.588381085E+02  1.250000000E+02  0.00000E+00  9.000E+00
      21     1     1     2   512   502  1.897617825E+01 -2.672845334E+01  2.281800648E+02  2.305225532E+02  0.000000000E+00  0.00000E+00  9.000E+00
#rwgt            1           1   2.9402503364060556E-002           1      239477           0
</event>
<event>
      5   9999  3.19816E-02  5.73480E+01 -1.00000E+00  1.35761E-01
      21    -1     0     0   502   501  0.000000000E+00  0.000000000E+00  6.163283875E+02  6.163283875E+02  0.000000000E+00  0.00000E+00  9.000E+00
      21    -1     0     0   501   511  0.000000000E+00  0.000000000E+00 -2.114356058E+03  2.114356058E+03  0.000000000E+00  0.00000E+00  9.000E+00
      25     1     1     2     0     0 -4.585892982E+02  8.799116768E+02 -2.696629758E+02  1.035804916E+03  1.250000000E+02  0.00000E+00  9.000E+00
      25     1     1     2     0     0  5.151777945E+02 -8.892139358E+02 -9.318410033E+02  1.392861170E+03  1.250000000E+02  0.00000E+00  9.000E+00
      21     1     1     2   502   511 -5.658849629E+01  9.302258974E+00 -2.965236917E+02  3.020183598E+02  3.814697266E-06  0.00000E+00  9.000E+00
#rwgt            1           1   2.5771310824742356E-002           1      239582           0
</event>
<event>
      5   9999  3.19816E-02  5.97765E+01 -1.00000E+00  1.34790E-01
      21    -1     0     0   502   501  0.000000000E+00  0.000000000E+00  1.881512702E+03  1.881512702E+03  0.000000000E+00  0.00000E+00  9.000E+00
      21    -1     0     0   501   512  0.000000000E+00  0.000000000E+00 -3.777162778E+02  3.777162778E+02  0.000000000E+00  0.00000E+00  9.000E+00
      25     1     1     2     0     0  6.919948362E+02  3.048013251E+02  5.190012937E+02  9.256068517E+02  1.250000000E+02  0.00000E+00  9.000E+00
      25     1     1     2     0     0 -6.323092026E+02 -3.015057137E+02  1.034690153E+03  1.255758471E+03  1.250000000E+02  0.00000E+00  9.000E+00
      21     1     1     2   502   512 -5.968563361E+01 -3.295611405E+00 -4.989502258E+01  7.786365771E+01  2.023048729E-06  0.00000E+00  9.000E+00
#rwgt            2          11   5.0677399546584147E-003           1      239857           0
</event>
<event>
      5   9999  3.19816E-02  3.74998E+01 -1.00000E+00  1.46600E-01
      21    -1     0     0   502   501  0.000000000E+00  0.000000000E+00  5.742606462E+02  5.742606462E+02  0.000000000E+00  0.00000E+00  9.000E+00
      21    -1     0     0   501   511  0.000000000E+00  0.000000000E+00 -8.651218865E+02  8.651218865E+02  0.000000000E+00  0.00000E+00  9.000E+00
      25     1     1     2     0     0  3.170004383E+01 -1.882995847E+02 -4.068745289E+02  4.665120670E+02  1.250000000E+02  0.00000E+00  9.000E+00
      25     1     1     2     0     0 -6.589466245E+01  1.729059681E+02  5.206417217E+02  5.665080606E+02  1.250000000E+02  0.00000E+00  9.000E+00
      21     1     1     2   502   511  3.419461862E+01  1.539361664E+01 -4.046284331E+02  4.063624051E+02  5.394796609E-06  0.00000E+00  9.000E+00
#rwgt            1           1   3.0652372876283040E-002           1      239877           0
</event>
<event>
      5   9999  3.19816E-02  3.57419E+02 -1.00000E+00  1.03178E-01
      21    -1     0     0   512   501  0.000000000E+00  0.000000000E+00  1.098392461E+03  1.098392461E+03  0.000000000E+00  0.00000E+00  9.000E+00
      21    -1     0     0   501   502  0.000000000E+00  0.000000000E+00 -2.274949594E+02  2.274949594E+02  0.000000000E+00  0.00000E+00  9.000E+00
      25     1     1     2     0     0  1.406360533E+01  4.017466592E+02  1.493459526E+02  4.466848741E+02  1.250000000E+02  0.00000E+00  9.000E+00
      25     1     1     2     0     0 -5.867411055E+00 -4.442129367E+01  1.174068148E+02  1.772485204E+02  1.250000000E+02  0.00000E+00  9.000E+00
      21     1     1     2   512   502 -8.196194270E+00 -3.573253656E+02  6.041447345E+02  7.019540260E+02  1.321449896E-05  0.00000E+00  9.000E+00
#rwgt            2          11   2.8061002468483943E-003           1      240051           0
</event>
<event>
      5   9999  3.19816E-02  7.82936E+01 -1.00000E+00  1.28804E-01
       1    -1     0     0   502     0  0.000000000E+00  0.000000000E+00  2.409766283E+03  2.409766283E+03  0.000000000E+00  0.00000E+00  9.000E+00
      21    -1     0     0   501   502  0.000000000E+00  0.000000000E+00 -1.034616313E+03  1.034616313E+03  0.000000000E+00  0.00000E+00  9.000E+00
      25     1     1     2     0     0 -1.454796120E+02 -5.306512569E+02 -9.139548610E+02  1.074101281E+03  1.250000000E+02  0.00000E+00  9.000E+00
      25     1     1     2     0     0  1.015947404E+02  4.658129658E+02  1.536551875E+03  1.613666593E+03  1.250000000E+02  0.00000E+00  9.000E+00
       1     1     1     2   501     0  4.388487160E+01  6.483829109E+01  7.525529556E+02  7.566147216E+02  1.078959322E-05  0.00000E+00  9.000E+00
#rwgt            2          17   5.2568793259782638E-004           1      240371           0
</event>
<event>
      5   9999  3.19816E-02  7.68195E+00 -1.00000E+00  2.10001E-01
      21    -1     0     0   511   501  0.000000000E+00  0.000000000E+00  5.419420828E+02  5.419420828E+02  0.000000000E+00  0.00000E+00  9.000E+00
      21    -1     0     0   501   502  0.000000000E+00  0.000000000E+00 -1.322965709E+02  1.322965709E+02  0.000000000E+00  0.00000E+00  9.000E+00
      25     1     1     2     0     0  1.531311884E+02  1.756181053E+02  2.164099186E+02  3.416857220E+02  1.250000000E+02  0.00000E+00  9.000E+00
      25     1     1     2     0     0 -1.458798880E+02 -1.730821547E+02  1.735482422E+02  3.114199197E+02  1.250000000E+02  0.00000E+00  9.000E+00
      21     1     1     2   511   502 -7.251300407E+00 -2.535950629E+00  1.968735108E+01  2.113301199E+01  2.384185791E-07  0.00000E+00  9.000E+00
#rwgt            1           1   3.0385659128400178E-002           1      240390           0
</event>
<event>
      5   9999  3.19816E-02  1.16995E+02 -1.00000E+00  1.20838E-01
      21    -1     0     0   502   501  0.000000000E+00  0.000000000E+00  1.107763545E+03  1.107763545E+03  0.000000000E+00  0.00000E+00  9.000E+00
      -1    -1     0     0     0   502  0.000000000E+00  0.000000000E+00 -4.102366659E+02  4.102366659E+02  0.000000000E+00  0.00000E+00  9.000E+00
      25     1     1     2     0     0  2.313254733E+01  7.942407697E+01  6.450531942E+02  6.622400789E+02  1.250000000E+02  0.00000E+00  9.000E+00
      25     1     1     2     0     0 -7.912222626E+01 -1.821515056E+02  4.139428380E+02  4.758289302E+02  1.250000000E+02  0.00000E+00  9.000E+00
      -1     1     1     2     0   501  5.598967893E+01  1.027274287E+02 -3.614691536E+02  3.799312013E+02  7.629394531E-06  0.00000E+00  9.000E+00
#rwgt            1           1   3.1613543813000217E-002           1      240688           0
</event>
<event>
      5   9999  3.19816E-02  2.16343E+02 -1.00000E+00  1.10420E-01
       1    -1     0     0   502     0  0.000000000E+00  0.000000000E+00  1.164094868E+03  1.164094868E+03  0.000000000E+00  0.00000E+00  9.000E+00
      21    -1     0     0   501   502  0.000000000E+00  0.000000000E+00 -1.010736977E+02  1.010736977E+02  0.000000000E+00  0.00000E+00  9.000E+00
      25     1     1     2     0     0 -2.051228801E+01 -1.029001925E+01  1.089233157E+02  1.673795900E+02  1.250000000E+02  0.00000E+00  9.000E+00
      25     1     1     2     0     0  1.387389880E+02  1.914713376E+02  2.689674770E+02  3.793129099E+02  1.250000000E+02  0.00000E+00  9.000E+00
       1     1     1     2   501     0 -1.182267000E+02 -1.811813183E+02  6.851303771E+02  7.184760652E+02  1.321449896E-05  0.00000E+00  9.000E+00
#rwgt            2          17   1.6688935141621316E-003           1      240796           0
</event>
<event>
      5   9999  3.19816E-02  3.43807E+01 -1.00000E+00  1.49039E-01
      21    -1     0     0   502   511  0.000000000E+00  0.000000000E+00  9.922293789E+02  9.922293789E+02  0.000000000E+00  0.00000E+00  9.000E+00
      21    -1     0     0   501   502  0.000000000E+00  0.000000000E+00 -8.397918486E+01  8.397918486E+01  0.000000000E+00  0.00000E+00  9.000E+00
      25     1     1     2     0     0  6.852322474E+01 -2.218662610E+01  2.216475559E+02  2.644623182E+02  1.250000000E+02  0.00000E+00  9.000E+00
      25     1     1     2     0     0 -4.137742678E+01  4.328489330E+01  1.516587003E+01  1.394298284E+02  1.250000000E+02  0.00000E+00  9.000E+00
      21     1     1     2   501   511 -2.714579797E+01 -2.109826720E+01  6.714367681E+02  6.723164172E+02  1.078959322E-05  0.00000E+00  9.000E+00
#rwgt            1           1   2.4695116649996924E-002           1      240830           0
</event>
<event>
      5   9999  3.19816E-02  4.82072E+01 -1.00000E+00  1.39986E-01
      21    -1     0     0   502   512  0.000000000E+00  0.000000000E+00  1.799109653E+02  1.799109653E+02  0.000000000E+00  0.00000E+00  9.000E+00
      21    -1     0     0   501   502  0.000000000E+00  0.000000000E+00 -1.181331519E+03  1.181331519E+03  0.000000000E+00  0.00000E+00  9.000E+00
      25     1     1     2     0     0  6.340285599E+01 -2.422948268E+02 -1.029489857E+03  1.066865067E+03  1.250000000E+02  0.00000E+00  9.000E+00
      25     1     1     2     0     0 -4.898181477E+01  1.962952247E+02  4.730482277E+01  2.424742867E+02  1.250000000E+02  0.00000E+00  9.000E+00
      21     1     1     2   501   512 -1.442104122E+01  4.599960205E+01 -1.923552009E+01  5.190313142E+01  7.152557373E-07  0.00000E+00  9.000E+00
#rwgt            1           1   2.8327225797884877E-002           1      240950           0
</event>
<event>
      5   9999  3.19816E-02  1.28305E+02 -1.00000E+00  1.19147E-01
      21    -1     0     0   502   501  0.000000000E+00  0.000000000E+00  2.741141611E+02  2.741141611E+02  0.000000000E+00  0.00000E+00  9.000E+00
      21    -1     0     0   511   502  0.000000000E+00  0.000000000E+00 -6.628270994E+02  6.628270994E+02  0.000000000E+00  0.00000E+00  9.000E+00
      25     1     1     2     0     0 -1.414250048E+02  7.189649493E+01  1.109067478E+02  2.304244880E+02  1.250000000E+02  0.00000E+00  9.000E+00
      25     1     1     2     0     0  1.581550643E+01 -9.805956370E+01  2.924159607E+01  1.623141375E+02  1.250000000E+02  0.00000E+00  9.000E+00
      21     1     1     2   511   501  1.256094983E+02  2.616306877E+01 -5.288612821E+02  5.442026350E+02  7.629394531E-06  0.00000E+00  9.000E+00
#rwgt            1           1   3.0352166093927598E-002           1      241065           0
</event>
<event>
      5   9999  3.19816E-02  6.36789E+01 -1.00000E+00  1.33337E-01
      21    -1     0     0   502   501  0.000000000E+00  0.000000000E+00  7.822961898E+01  7.822961898E+01  0.000000000E+00  0.00000E+00  9.000E+00
      21    -1     0     0   501   512  0.000000000E+00  0.000000000E+00 -1.920195489E+03  1.920195489E+03  0.000000000E+00  0.00000E+00  9.000E+00
      25     1     1     2     0     0 -2.646341878E+02 -2.006834354E+02 -8.824759131E+02  9.511539474E+02  1.250000000E+02  0.00000E+00  9.000E+00
      25     1     1     2     0     0  2.896477667E+02  1.421230047E+02 -7.105696308E+02  7.903347250E+02  1.250000000E+02  0.00000E+00  9.000E+00
      21     1     1     2   502   512 -2.501357898E+01  5.856043064E+01 -2.489203264E+02  2.569364358E+02  2.697398305E-06  0.00000E+00  9.000E+00
#rwgt            1           1   2.9199032512862155E-002           1      241118           0
</event>
<event>
      5   9999  3.19816E-02  3.17422E+01 -1.00000E+00  1.51356E-01
      21    -1     0     0   511   501  0.000000000E+00  0.000000000E+00  1.420838838E+02  1.420838838E+02  0.000000000E+00  0.00000E+00  9.000E+00
      21    -1     0     0   501   502  0.000000000E+00  0.000000000E+00 -2.259772363E+02  2.259772363E+02  0.000000000E+00  0.00000E+00  9.000E+00
      25     1     1     2     0     0 -2.177174383E+01 -1.731151741E+01  4.307876098E+01  1.351091304E+02  1.250000000E+02  0.00000E+00  9.000E+00
      25     1     1     2     0     0  3.719792044E+01 -1.043015515E+01 -1.459196630E+02  1.959847481E+02  1.250000000E+02  0.00000E+00  9.000E+00
      21     1     1     2   511   502 -1.542617661E+01  2.774167256E+01  1.894754959E+01  3.696724167E+01  7.152557373E-07  0.00000E+00  9.000E+00
#rwgt            1           1   7.4318410051142245E-002           1      241217           0
</event>
<event>
      5   9999  3.19816E-02  3.12204E+01 -1.00000E+00  1.51847E-01
      21    -1     0     0   502   501  0.000000000E+00  0.000000000E+00  2.924336204E+02  2.924336204E+02  0.000000000E+00  0.00000E+00  9.000E+00
      21    -1     0     0   512   502  0.000000000E+00  0.000000000E+00 -5.288637676E+02  5.288637676E+02  0.000000000E+00  0.00000E+00  9.000E+00
      25     1     1     2     0     0 -7.639860259E+01 -4.606045740E+01  2.514070118E+02  2.945993852E+02  1.250000000E+02  0.00000E+00  9.000E+00
      25     1     1     2     0     0  4.525297849E+01  4.821989572E+01 -2.533803048E+02  2.901716203E+02  1.250000000E+02  0.00000E+00  9.000E+00
      21     1     1     2   512   501  3.114562409E+01 -2.159438323E+00 -2.344568542E+02  2.365263824E+02  0.000000000E+00  0.00000E+00  9.000E+00
#rwgt            1           1   2.9605034690492919E-002           1      241309           0
</event>
<event>
      5   9999  3.19816E-02  1.70287E+01 -1.00000E+00  1.72346E-01
      21    -1     0     0   511   501  0.000000000E+00  0.000000000E+00  5.050127215E+02  5.050127215E+02  0.000000000E+00  0.00000E+00  9.000E+00
      21    -1     0     0   501   502  0.000000000E+00  0.000000000E+00 -4.891455742E+02  4.891455742E+02  0.000000000E+00  0.00000E+00  9.000E+00
      25     1     1     2     0     0  2.847429518E+02 -3.520474910E+02 -1.992299306E+01  4.701466900E+02  1.250000000E+02  0.00000E+00  9.000E+00
      25     1     1     2     0     0 -2.902966701E+02  3.681451383E+02  9.250046352E-01  4.852101145E+02  1.250000000E+02  0.00000E+00  9.000E+00
      21     1     1     2   511   502  5.553718269E+00 -1.609764735E+01  3.486513563E+01  3.880149120E+01  4.768371582E-07  0.00000E+00  9.000E+00
#rwgt            1           1   2.8675560332363299E-002           1      241454           0
</event>
<event>
      5   9999  3.19816E-02  4.33049E+01 -1.00000E+00  1.42734E-01
      21    -1     0     0   502   501  0.000000000E+00  0.000000000E+00  4.613694686E+02  4.613694686E+02  0.000000000E+00  0.00000E+00  9.000E+00
      21    -1     0     0   512   502  0.000000000E+00  0.000000000E+00 -4.118712213E+02  4.118712213E+02  0.000000000E+00  0.00000E+00  9.000E+00
      25     1     1     2     0     0  1.849957404E+02  1.789586647E+02  2.227044972E+02  3.625905690E+02  1.250000000E+02  0.00000E+00  9.000E+00
      25     1     1     2     0     0 -1.465386403E+02 -1.988675983E+02  5.167857303E+01  2.816337509E+02  1.250000000E+02  0.00000E+00  9.000E+00
      21     1     1     2   512   501 -3.845710012E+01  1.990893354E+01 -2.248848229E+02  2.290163701E+02  3.814697266E-06  0.00000E+00  9.000E+00
#rwgt            1           1   2.9704552172160427E-002           1      241624           0
</event>
<event>
      5   9999  3.19816E-02  1.26380E+01 -1.00000E+00  1.84693E-01
      21    -1     0     0   502   501  0.000000000E+00  0.000000000E+00  5.293241679E+02  5.293241679E+02  0.000000000E+00  0.00000E+00  9.000E+00
      21    -1     0     0   501   511  0.000000000E+00  0.000000000E+00 -4.340828942E+02  4.340828942E+02  0.000000000E+00  0.00000E+00  9.000E+00
      25     1     1     2     0     0  2.271266506E+02  2.212658905E+02  3.694129861E+02  5.026291516E+02  1.250000000E+02  0.00000E+00  9.000E+00
      25     1     1     2     0     0 -2.380170444E+02 -2.276781591E+02 -2.453718339E+02  4.293271415E+02  1.250000000E+02  0.00000E+00  9.000E+00
      21     1     1     2   502   511  1.089039379E+01  6.412268660E+00 -2.879987859E+01  3.145076904E+01  0.000000000E+00  0.00000E+00  9.000E+00
#rwgt            1           1   2.4750731099735256E-002           1      241743           0
</event>
<event>
      5   9999  3.19816E-02  9.97465E+01 -1.00000E+00  1.23878E-01
      21    -1     0     0   502   501  0.000000000E+00  0.000000000E+00  2.542644228E+02  2.542644228E+02  0.000000000E+00  0.00000E+00  9.000E+00
      21    -1     0     0   512   502  0.000000000E+00  0.000000000E+00 -8.435561899E+02  8.435561899E+02  0.000000000E+00  0.00000E+00  9.000E+00
      25     1     1     2     0     0  2.101054586E+02  1.533250223E+02  6.415714363E+01  2.956247711E+02  1.250000000E+02  0.00000E+00  9.000E+00
      25     1     1     2     0     0 -3.097048299E+02 -1.479092966E+02 -5.250085510E+02  6.395726858E+02  1.250000000E+02  0.00000E+00  9.000E+00
      21     1     1     2   512   501  9.959937129E+01 -5.415725628E+00 -1.284403597E+02  1.626231559E+02  0.000000000E+00  0.00000E+00  9.000E+00
#rwgt            1           1   2.6617742208016666E-002           1      241983           0
</event>
<event>
      5   9999  3.19816E-02  2.22097E+02 -1.00000E+00  1.10016E-01
       5    -1     0     0   502     0  0.000000000E+00  0.000000000E+00  4.578504320E+02  4.578504320E+02  0.000000000E+00  0.00000E+00  9.000E+00
      21    -1     0     0   501   502  0.000000000E+00  0.000000000E+00 -4.991819382E+02  4.991819382E+02  0.000000000E+00  0.00000E+00  9.000E+00
      25     1     1     2     0     0  6.823861401E+01  1.567446769E+02 -3.458495581E+02  4.055395406E+02  1.250000000E+02  0.00000E+00  9.000E+00
      25     1     1     2     0     0  1.525487096E+02 -1.326617260E+02  1.553792034E+02  2.839682010E+02  1.250000000E+02  0.00000E+00  9.000E+00
       5     1     1     2   501     0 -2.207873236E+02 -2.408295091E+01  1.491388484E+02  2.675246285E+02  3.814697266E-06  0.00000E+00  9.000E+00
#rwgt            1           1   2.7430766974128256E-002           1      242071           0
</event>
<event>
      5   9999  3.19816E-02  6.84213E+00 -1.00000E+00  2.16963E-01
      21    -1     0     0   502   501  0.000000000E+00  0.000000000E+00  8.862864928E+02  8.862864928E+02  0.000000000E+00  0.00000E+00  9.000E+00
      21    -1     0     0   501   511  0.000000000E+00  0.000000000E+00 -5.535102804E+01  5.535102804E+01  0.000000000E+00  0.00000E+00  9.000E+00
      25     1     1     2     0     0 -1.194222350E+02 -1.576048321E+01  6.487302937E+02  6.715549546E+02  1.250000000E+02  0.00000E+00  9.000E+00
      25     1     1     2     0     0  1.180255722E+02  9.062415291E+00  1.921636725E+02  2.580000777E+02  1.250000000E+02  0.00000E+00  9.000E+00
      21     1     1     2   502   511  1.396662803E+00  6.698067922E+00 -9.958501404E+00  1.208248861E+01  2.064765462E-07  0.00000E+00  9.000E+00
#rwgt            1           1   2.0119409405567019E-002           1      242100           0
</event>
<event>
      5   9999  3.19816E-02  1.03554E+02 -1.00000E+00  1.23150E-01
       2    -1     0     0   502     0  0.000000000E+00  0.000000000E+00  2.123461033E+03  2.123461033E+03  0.000000000E+00  0.00000E+00  9.000E+00
      21    -1     0     0   501   502  0.000000000E+00  0.000000000E+00 -7.869368581E+02  7.869368581E+02  0.000000000E+00  0.00000E+00  9.000E+00
      25     1     1     2     0     0 -3.915384237E+02  4.607381585E+02  6.565528580E+02  9.012594761E+02  1.250000000E+02  0.00000E+00  9.000E+00
      25     1     1     2     0     0  3.751681913E+02 -3.584863281E+02 -5.548976803E+02  7.699350978E+02  1.250000000E+02  0.00000E+00  9.000E+00
       2     1     1     2   501     0  1.637023235E+01 -1.022518304E+02  1.234868997E+03  1.239203317E+03  1.525878906E-05  0.00000E+00  9.000E+00
#rwgt            1           1   2.7882301611781596E-002           1      242305           0
</event>
<event>
      5   9999  3.19816E-02  8.98496E+00 -1.00000E+00  2.01289E-01
      21    -1     0     0   502   501  0.000000000E+00  0.000000000E+00  1.495363658E+02  1.495363658E+02  0.000000000E+00  0.00000E+00  9.000E+00
       1    -1     0     0   501     0  0.000000000E+00  0.000000000E+00 -1.713890284E+03  1.713890284E+03  0.000000000E+00  0.00000E+00  9.000E+00
      25     1     1     2     0     0  1.808407860E+02  4.159611001E+02 -6.112560525E+02  7.713533486E+02  1.250000000E+02  0.00000E+00  9.000E+00
      25     1     1     2     0     0 -1.806208222E+02 -4.249433676E+02 -7.550825340E+02  8.938542276E+02  1.250000000E+02  0.00000E+00  9.000E+00
       1     1     1     2   502     0 -2.199638236E-01  8.982267508E+00 -1.980153320E+02  1.982190738E+02  2.697398305E-06  0.00000E+00  9.000E+00
#rwgt            1           1   2.7741154830620146E-002           1      242442           0
</event>
<event>
      5   9999  3.19816E-02  7.55962E+01 -1.00000E+00  1.29551E-01
      21    -1     0     0   502   501  0.000000000E+00  0.000000000E+00  2.399695315E+03  2.399695315E+03  0.000000000E+00  0.00000E+00  9.000E+00
      21    -1     0     0   511   502  0.000000000E+00  0.000000000E+00 -1.629327041E+02  1.629327041E+02  0.000000000E+00  0.00000E+00  9.000E+00
      25     1     1     2     0     0 -1.815407403E+02  9.493550829E+01  1.303275683E+03  1.325187646E+03  1.250000000E+02  0.00000E+00  9.000E+00
      25     1     1     2     0     0  2.472233671E+02 -5.751121162E+01  1.056129167E+03  1.093371278E+03  1.250000000E+02  0.00000E+00  9.000E+00
      21     1     1     2   511   501 -6.568262677E+01 -3.742429667E+01 -1.226422393E+02  1.440690956E+02  5.722045898E-06  0.00000E+00  9.000E+00
#rwgt            1           1   5.8728707776032493E-002           1      242785           0
</event>
<event>
      5   9999  3.19816E-02  1.94012E+02 -1.00000E+00  1.12131E-01
      21    -1     0     0   502   501  0.000000000E+00  0.000000000E+00  1.488672210E+02  1.488672210E+02  0.000000000E+00  0.00000E+00  9.000E+00
      21    -1     0     0   512   502  0.000000000E+00  0.000000000E+00 -8.748257752E+02  8.748257752E+02  0.000000000E+00  0.00000E+00  9.000E+00
      25     1     1     2     0     0  2.011789394E+02  2.342650333E+02 -2.793196037E+02  4.347384415E+02  1.250000000E+02  0.00000E+00  9.000E+00
      25     1     1     2     0     0 -3.312715453E+01 -1.373159655E+02 -2.441183931E+02  3.084993883E+02  1.250000000E+02  0.00000E+00  9.000E+00
      21     1     1     2   512   501 -1.680517849E+02 -9.694906780E+01 -2.025205574E+02  2.804551663E+02  2.697398305E-06  0.00000E+00  9.000E+00
#rwgt            1           1   2.8119171955735524E-002           1      242867           0
</event>
<event>
      5   9999  3.19816E-02  2.06906E+01 -1.00000E+00  1.65162E-01
      21    -1     0     0   502   501  0.000000000E+00  0.000000000E+00  1.156169641E+03  1.156169641E+03  0.000000000E+00  0.00000E+00  9.000E+00
      21    -1     0     0   511   502  0.000000000E+00  0.000000000E+00 -1.745772170E+03  1.745772170E+03  0.000000000E+00  0.00000E+00  9.000E+00
      25     1     1     2     0     0  1.041102025E+03  8.354676254E+02 -3.802017051E+02  1.393584557E+03  1.250000000E+02  0.00000E+00  9.000E+00
      25     1     1     2     0     0 -1.051272373E+03 -8.174491667E+02 -4.046088152E+01  1.338155008E+03  1.250000000E+02  0.00000E+00  9.000E+00
      21     1     1     2   511   501  1.017034785E+01 -1.801845870E+01 -1.689399422E+02  1.702022470E+02  1.907348633E-06  0.00000E+00  9.000E+00
#rwgt            1           1   4.4940079470230390E-002           1      242934           0
</event>
<event>
      5   9999  3.19816E-02  5.58242E+02 -1.00000E+00  9.75113E-02
      21    -1     0     0   502   501  0.000000000E+00  0.000000000E+00  3.897979004E+02  3.897979004E+02  0.000000000E+00  0.00000E+00  9.000E+00
       2    -1     0     0   501     0  0.000000000E+00  0.000000000E+00 -1.055663571E+03  1.055663571E+03  0.000000000E+00  0.00000E+00  9.000E+00
      25     1     1     2     0     0  1.209504689E+02 -1.013463633E+02 -1.999132917E+02  2.837083458E+02  1.250000000E+02  0.00000E+00  9.000E+00
      25     1     1     2     0     0  4.353251779E+02  1.481630439E+02 -8.029932166E+01  4.832528108E+02  1.250000000E+02  0.00000E+00  9.000E+00
       2     1     1     2   502     0 -5.562756468E+02 -4.681668053E+01 -3.856530575E+02  6.785003151E+02  5.394796609E-06  0.00000E+00  9.000E+00
#rwgt            2          13   9.7689898680743733E-004           1      243307           0
</event>
<event>
      5   9999  3.19816E-02  2.74095E+02 -1.00000E+00  1.06882E-01
       1    -1     0     0   502     0  0.000000000E+00  0.000000000E+00  1.504877474E+03  1.504877474E+03  0.000000000E+00  0.00000E+00  9.000E+00
      21    -1     0     0   501   502  0.000000000E+00  0.000000000E+00 -1.491797485E+02  1.491797485E+02  0.000000000E+00  0.00000E+00  9.000E+00
      25     1     1     2     0     0  4.822525159E+01 -7.100179286E+01  6.747827036E+02  6.916094465E+02  1.250000000E+02  0.00000E+00  9.000E+00
      25     1     1     2     0     0  6.401962560E+01 -1.790560346E+02 -9.398449093E-01  2.275641872E+02  1.250000000E+02  0.00000E+00  9.000E+00
       1     1     1     2   501     0 -1.122448772E+02  2.500578275E+02  6.818548665E+02  7.348835884E+02  1.078959322E-05  0.00000E+00  9.000E+00
#rwgt            2          17   5.4281208095605755E-004           1      243386           0
</event>
<event>
      5   9999  3.19816E-02  7.62342E+02 -1.00000E+00  9.39124E-02
       2    -1     0     0   502     0  0.000000000E+00  0.000000000E+00  6.710138542E+02  6.710138542E+02  0.000000000E+00  0.00000E+00  9.000E+00
      21    -1     0     0   501   502  0.000000000E+00  0.000000000E+00 -1.671063351E+03  1.671063351E+03  0.000000000E+00  0.00000E+00  9.000E+00
      25     1     1     2     0     0  2.801098514E+02 -2.691159971E+02 -9.512495840E+02  1.035077640E+03  1.250000000E+02  0.00000E+00  9.000E+00
      25     1     1     2     0     0  4.803898501E+02  2.161552266E+02 -5.880746275E+01  5.445923317E+02  1.250000000E+02  0.00000E+00  9.000E+00
       2     1     1     2   501     0 -7.604997015E+02  5.296077048E+01  1.000755008E+01  7.624072339E+02  4.136407750E-06  0.00000E+00  9.000E+00
#rwgt            2          18   3.4949001070120093E-004           1      243405           0
</event>
<event>
      5   9999  3.19816E-02  9.36438E+01 -1.00000E+00  1.25124E-01
      21    -1     0     0   502   501  0.000000000E+00  0.000000000E+00  3.575512899E+02  3.575512899E+02  0.000000000E+00  0.00000E+00  9.000E+00
      21    -1     0     0   501   511  0.000000000E+00  0.000000000E+00 -1.679907742E+03  1.679907742E+03  0.000000000E+00  0.00000E+00  9.000E+00
      25     1     1     2     0     0  3.804806600E+02  1.868323796E+02  1.269935042E+02  4.598088960E+02  1.250000000E+02  0.00000E+00  9.000E+00
      25     1     1     2     0     0 -4.732081097E+02 -1.999009024E+02 -1.259480841E+03  1.365944096E+03  1.250000000E+02  0.00000E+00  9.000E+00
      21     1     1     2   502   511  9.272744967E+01  1.306852276E+01 -1.898691149E+02  2.117060392E+02  2.697398305E-06  0.00000E+00  9.000E+00
#rwgt            1           1   3.3372130630318672E-002           1      243424           0
</event>
<event>
      5   9999  3.19816E-02  2.76056E+01 -1.00000E+00  1.55592E-01
      21    -1     0     0   512   501  0.000000000E+00  0.000000000E+00  1.789371504E+02  1.789371504E+02  0.000000000E+00  0.00000E+00  9.000E+00
      21    -1     0     0   501   502  0.000000000E+00  0.000000000E+00 -9.802530633E+02  9.802530633E+02  0.000000000E+00  0.00000E+00  9.000E+00
      25     1     1     2     0     0 -1.292650346E+02 -8.131978400E+01  5.190957449E+01  2.040636184E+02  1.250000000E+02  0.00000E+00  9.000E+00
      25     1     1     2     0     0  1.536416082E+02  6.836395619E+01 -8.870530893E+02  9.114645125E+02  1.250000000E+02  0.00000E+00  9.000E+00
      21     1     1     2   512   502 -2.437657353E+01  1.295582781E+01  3.382760200E+01  4.366208273E+01  6.743495762E-07  0.00000E+00  9.000E+00
#rwgt            1           1   2.8314788502409569E-002           1      243523           0
</event>
<event>
      5   9999  3.19816E-02  3.37359E+02 -1.00000E+00  1.03962E-01
       1    -1     0     0   502     0  0.000000000E+00  0.000000000E+00  2.552252029E+03  2.552252029E+03  0.000000000E+00  0.00000E+00  9.000E+00
      21    -1     0     0   501   502  0.000000000E+00  0.000000000E+00 -3.830422233E+02  3.830422233E+02  0.000000000E+00  0.00000E+00  9.000E+00
      25     1     1     2     0     0 -1.961695987E+02  2.135380183E+02 -2.837874242E+02  4.245483469E+02  1.250000000E+02  0.00000E+00  9.000E+00
      25     1     1     2     0     0 -1.160779766E+02 -8.581786788E+01  6.997844838E+02  7.253703377E+02  1.250000000E+02  0.00000E+00  9.000E+00
       1     1     1     2   501     0  3.122475753E+02 -1.277201505E+02  1.753212746E+03  1.785375568E+03  2.157918644E-05  0.00000E+00  9.000E+00
#rwgt            2          17   5.7167682205017220E-004           1      243661           0
</event>
<event>
      5   9999  3.19816E-02  6.08378E+02 -1.00000E+00  9.64903E-02
      21    -1     0     0   502   501  0.000000000E+00  0.000000000E+00  1.231737614E+03  1.231737614E+03  0.000000000E+00  0.00000E+00  9.000E+00
      21    -1     0     0   511   502  0.000000000E+00  0.000000000E+00 -5.122136560E+02  5.122136560E+02  0.000000000E+00  0.00000E+00  9.000E+00
      25     1     1     2     0     0  1.830992927E+02 -4.454646744E+02  4.495666341E+02  6.705962166E+02  1.250000000E+02  0.00000E+00  9.000E+00
      25     1     1     2     0     0 -3.922229851E+02 -1.258420488E+02  1.140742533E+02  4.453235078E+02  1.250000000E+02  0.00000E+00  9.000E+00
      21     1     1     2   511   501  2.091236924E+02  5.713067232E+02  1.558830708E+02  6.280315458E+02  3.814697266E-06  0.00000E+00  9.000E+00
#rwgt            2          11   2.1271783278716018E-003           1      243695           0
</event>
<event>
      5   9999  3.19816E-02  1.19245E+02 -1.00000E+00  1.20485E-01
      21    -1     0     0   502   501  0.000000000E+00  0.000000000E+00  1.469509005E+03  1.469509005E+03  0.000000000E+00  0.00000E+00  9.000E+00
      21    -1     0     0   501   512  0.000000000E+00  0.000000000E+00 -1.205737110E+03  1.205737110E+03  0.000000000E+00  0.00000E+00  9.000E+00
      25     1     1     2     0     0  9.702691896E+02 -1.943391171E+02  9.353278656E+02  1.367352628E+03  1.250000000E+02  0.00000E+00  9.000E+00
      25     1     1     2     0     0 -8.626913171E+02  1.428957171E+02 -3.247162247E+02  9.411275797E+02  1.250000000E+02  0.00000E+00  9.000E+00
      21     1     1     2   502   512 -1.075778725E+02  5.144339998E+01 -3.468397455E+02  3.667659078E+02  3.814697266E-06  0.00000E+00  9.000E+00
#rwgt            1           1   1.9863305967853642E-002           1      243745           0
</event>
<event>
      5   9999  3.19816E-02  5.49614E+02 -1.00000E+00  9.76986E-02
      21    -1     0     0   502   511  0.000000000E+00  0.000000000E+00  2.197410240E+03  2.197410240E+03  0.000000000E+00  0.00000E+00  9.000E+00
      21    -1     0     0   501   502  0.000000000E+00  0.000000000E+00 -1.186242617E+03  1.186242617E+03  0.000000000E+00  0.00000E+00  9.000E+00
      25     1     1     2     0     0  2.860734638E+01 -1.198496306E+03  1.257296501E+03  1.741732260E+03  1.250000000E+02  0.00000E+00  9.000E+00
      25     1     1     2     0     0  3.738374753E+02  8.241791236E+02 -4.944507135E+02  1.038812877E+03  1.250000000E+02  0.00000E+00  9.000E+00
      21     1     1     2   501   511 -4.024448217E+02  3.743171825E+02  2.483218358E+02  6.031077198E+02  3.814697266E-06  0.00000E+00  9.000E+00
#rwgt            2          11   2.8841299262075794E-003           1      243854           0
</event>
<event>
      5   9999  3.19816E-02  3.33673E+01 -1.00000E+00  1.49899E-01
      21    -1     0     0   502   512  0.000000000E+00  0.000000000E+00  2.005237354E+02  2.005237354E+02  0.000000000E+00  0.00000E+00  9.000E+00
      21    -1     0     0   501   502  0.000000000E+00  0.000000000E+00 -5.983366489E+02  5.983366489E+02  0.000000000E+00  0.00000E+00  9.000E+00
      25     1     1     2     0     0 -2.178308891E+02 -6.906630736E+00  5.608856029E+01  2.574275129E+02  1.250000000E+02  0.00000E+00  9.000E+00
      25     1     1     2     0     0  1.881304136E+02  2.211371525E+01 -4.545516111E+02  5.080592840E+02  1.250000000E+02  0.00000E+00  9.000E+00
      21     1     1     2   501   512  2.970047547E+01 -1.520708452E+01  6.501372800E-01  3.337358748E+01  2.978369011E-07  0.00000E+00  9.000E+00
#rwgt            1           1   2.6307933155662135E-002           1      243874           0
</event>
<event>
      5   9999  3.19816E-02  3.70471E+01 -1.00000E+00  1.46936E-01
      21    -1     0     0   511   501  0.000000000E+00  0.000000000E+00  4.444909928E+02  4.444909928E+02  0.000000000E+00  0.00000E+00  9.000E+00
      21    -1     0     0   501   502  0.000000000E+00  0.000000000E+00 -1.597027638E+03  1.597027638E+03  0.000000000E+00  0.00000E+00  9.000E+00
      25     1     1     2     0     0  4.729273307E+02  1.378661135E+02 -1.317566356E+03  1.412187462E+03  1.250000000E+02  0.00000E+00  9.000E+00
      25     1     1     2     0     0 -4.426280645E+02 -1.591837427E+02  2.814358793E+01  4.875203882E+02  1.250000000E+02  0.00000E+00  9.000E+00
      21     1     1     2   511   502 -3.029926619E+01  2.131762923E+01  1.368861229E+02  1.418107806E+02  1.907348633E-06  0.00000E+00  9.000E+00
#rwgt            1           1   2.6730638559051965E-002           1      244012           0
</event>
<event>
      5   9999  3.19816E-02  1.78234E+01 -1.00000E+00  1.70606E-01
      21    -1     0     0   502   501  0.000000000E+00  0.000000000E+00  6.620821510E+02  6.620821510E+02  0.000000000E+00  0.00000E+00  9.000E+00
      21    -1     0     0   512   502  0.000000000E+00  0.000000000E+00 -1.469374721E+02  1.469374721E+02  0.000000000E+00  0.00000E+00  9.000E+00
      25     1     1     2     0     0 -3.333279044E+01 -5.831946217E+01 -7.890875518E+01  1.623694129E+02  1.250000000E+02  0.00000E+00  9.000E+00
      25     1     1     2     0     0  2.131571084E+01  7.148243932E+01  6.072627742E+02  6.244655119E+02  1.250000000E+02  0.00000E+00  9.000E+00
      21     1     1     2   512   501  1.201707960E+01 -1.316297716E+01 -1.320934018E+01  2.218469828E+01  3.371747881E-07  0.00000E+00  9.000E+00
#rwgt            1           1   2.4857240389294100E-002           1      244182           0
</event>
<event>
      5   9999  3.19816E-02  3.67544E+01 -1.00000E+00  1.47157E-01
      21    -1     0     0   502   501  0.000000000E+00  0.000000000E+00  6.173168461E+02  6.173168461E+02  0.000000000E+00  0.00000E+00  9.000E+00
      21    -1     0     0   501   511  0.000000000E+00  0.000000000E+00 -6.621695302E+02  6.621695302E+02  0.000000000E+00  0.00000E+00  9.000E+00
      25     1     1     2     0     0 -4.982722526E+01 -5.747339504E+02  1.212953662E+02  6.026105143E+02  1.250000000E+02  0.00000E+00  9.000E+00
      25     1     1     2     0     0  2.530413870E+01  6.021110404E+02 -1.384405075E+02  6.308476667E+02  1.250000000E+02  0.00000E+00  9.000E+00
      21     1     1     2   502   511  2.452308656E+01 -2.737709005E+01 -2.770754282E+01  4.602819531E+01  6.743495762E-07  0.00000E+00  9.000E+00
#rwgt            1           1   3.0239680676527561E-002           1      244338           0
</event>
<event>
      5   9999  3.19816E-02  2.43594E+02 -1.00000E+00  1.08617E-01
      21    -1     0     0   512   501  0.000000000E+00  0.000000000E+00  1.570571732E+03  1.570571732E+03  0.000000000E+00  0.00000E+00  9.000E+00
      21    -1     0     0   501   502  0.000000000E+00  0.000000000E+00 -4.795201476E+02  4.795201476E+02  0.000000000E+00  0.00000E+00  9.000E+00
      25     1     1     2     0     0 -1.848184074E+02  2.666436007E+02  2.388547273E+02  4.218213297E+02  1.250000000E+02  0.00000E+00  9.000E+00
      25     1     1     2     0     0  4.889206098E+01 -4.687870309E+02 -2.155132909E+02  5.331254004E+02  1.250000000E+02  0.00000E+00  9.000E+00
      21     1     1     2   512   502  1.359263464E+02  2.021434302E+02  1.067710148E+03  1.095145149E+03  0.000000000E+00  0.00000E+00  9.000E+00
#rwgt            1           1   3.2251483555570996E-002           1      244514           0
</event>
<event>
      5   9999  3.19816E-02  2.80042E+02 -1.00000E+00  1.06573E-01
      21    -1     0     0   511   501  0.000000000E+00  0.000000000E+00  2.143823849E+03  2.143823849E+03  0.000000000E+00  0.00000E+00  9.000E+00
      21    -1     0     0   501   502  0.000000000E+00  0.000000000E+00 -1.763690210E+02  1.763690210E+02  0.000000000E+00  0.00000E+00  9.000E+00
      25     1     1     2     0     0  4.191039291E+02  2.804532002E+02  9.302281749E+02  1.065481843E+03  1.250000000E+02  0.00000E+00  9.000E+00
      25     1     1     2     0     0 -1.766440157E+02 -1.403227027E+02  1.001327725E+02  2.766679260E+02  1.250000000E+02  0.00000E+00  9.000E+00
      21     1     1     2   511   502 -2.424599134E+02 -1.401304975E+02  9.370938810E+02  9.780431012E+02  1.525878906E-05  0.00000E+00  9.000E+00
#rwgt            1           1   2.8658756978368775E-002           1      244611           0
</event>
<event>
      5   9999  3.19816E-02  1.58303E+02 -1.00000E+00  1.15474E-01
      21    -1     0     0   502   501  0.000000000E+00  0.000000000E+00  7.989839806E+02  7.989839806E+02  0.000000000E+00  0.00000E+00  9.000E+00
      21    -1     0     0   501   512  0.000000000E+00  0.000000000E+00 -4.008235015E+02  4.008235015E+02  0.000000000E+00  0.00000E+00  9.000E+00
      25     1     1     2     0     0 -4.071705635E+02 -1.313606835E+02  3.315812651E+02  5.555309463E+02  1.250000000E+02  0.00000E+00  9.000E+00
      25     1     1     2     0     0  3.406722839E+02 -1.229833463E+01  2.194127638E+02  4.242355654E+02  1.250000000E+02  0.00000E+00  9.000E+00
      21     1     1     2   502   512  6.649827958E+01  1.436590181E+02 -1.528335499E+02  2.200409704E+02  5.722045898E-06  0.00000E+00  9.000E+00
#rwgt            1           1   2.7503943354795161E-002           1      244645           0
</event>
<event>
      5   9999  3.19816E-02  6.77882E+01 -1.00000E+00  1.31931E-01
      21    -1     0     0   511   501  0.000000000E+00  0.000000000E+00  1.128806727E+03  1.128806727E+03  0.000000000E+00  0.00000E+00  9.000E+00
      21    -1     0     0   501   502  0.000000000E+00  0.000000000E+00 -2.977513027E+03  2.977513027E+03  0.000000000E+00  0.00000E+00  9.000E+00
      25     1     1     2     0     0 -1.094493699E+02 -1.202462351E+03 -2.310423799E+03  2.609899998E+03  1.250000000E+02  0.00000E+00  9.000E+00
      25     1     1     2     0     0  1.096471858E+02  1.134674413E+03  1.257327015E+02  1.153664700E+03  1.250000000E+02  0.00000E+00  9.000E+00
      21     1     1     2   511   502 -1.978159553E-01  6.778793796E+01  3.359847977E+02  3.427550554E+02  9.344061824E-06  0.00000E+00  9.000E+00
#rwgt            1           1   3.5751110870909701E-002           1      244681           0
</event>
<event>
      5   9999  3.19816E-02  8.78894E+02 -1.00000E+00  9.23575E-02
       2    -1     0     0   502     0  0.000000000E+00  0.000000000E+00  1.279038484E+03  1.279038484E+03  0.000000000E+00  0.00000E+00  9.000E+00
      21    -1     0     0   501   502  0.000000000E+00  0.000000000E+00 -1.158952173E+03  1.158952173E+03  0.000000000E+00  0.00000E+00  9.000E+00
      25     1     1     2     0     0  9.996782591E+02 -2.970217097E+01 -4.884127338E+02  1.120004839E+03  1.250000000E+02  0.00000E+00  9.000E+00
      25     1     1     2     0     0 -1.273956900E+02 -7.789830503E+01 -7.076404160E+01  2.071964221E+02  1.250000000E+02  0.00000E+00  9.000E+00
       2     1     1     2   501     0 -8.722825691E+02  1.076004760E+02  6.792630857E+02  1.110789396E+03  7.629394531E-06  0.00000E+00  9.000E+00
#rwgt            2          18   9.7679404323781699E-004           1      244846           0
</event>
<event>
      5   9999  3.19816E-02  1.69262E+02 -1.00000E+00  1.14351E-01
      21    -1     0     0   511   501  0.000000000E+00  0.000000000E+00  8.464429746E+02  8.464429746E+02  0.000000000E+00  0.00000E+00  9.000E+00
      21    -1     0     0   501   502  0.000000000E+00  0.000000000E+00 -1.570313893E+02  1.570313893E+02  0.000000000E+00  0.00000E+00  9.000E+00
      25     1     1     2     0     0 -1.670156844E+01  3.010942846E+01 -2.563893389E+01  1.321660887E+02  1.250000000E+02  0.00000E+00  9.000E+00
      25     1     1     2     0     0 -1.506210472E+02 -5.565777095E+01  8.780871183E+01  2.216300007E+02  1.250000000E+02  0.00000E+00  9.000E+00
      21     1     1     2   511   502  1.673226156E+02  2.554834248E+01  6.272418073E+02  6.496782745E+02  7.629394531E-06  0.00000E+00  9.000E+00
#rwgt            1           1   5.2044710165288624E-002           1      244865           0
</event>
<event>
      5   9999  3.19816E-02  7.92606E+01 -1.00000E+00  1.28545E-01
      21    -1     0     0   512   501  0.000000000E+00  0.000000000E+00  2.276296888E+02  2.276296888E+02  0.000000000E+00  0.00000E+00  9.000E+00
      21    -1     0     0   501   502  0.000000000E+00  0.000000000E+00 -2.817907426E+02  2.817907426E+02  0.000000000E+00  0.00000E+00  9.000E+00
      25     1     1     2     0     0 -1.429529776E+02 -4.531779055E+00 -1.194915608E+02  2.244088321E+02  1.250000000E+02  0.00000E+00  9.000E+00
      25     1     1     2     0     0  6.871630279E+01 -2.323802438E+01 -4.299725697E+01  1.507836203E+02  1.250000000E+02  0.00000E+00  9.000E+00
      21     1     1     2   512   502  7.423667484E+01  2.776980344E+01  1.083277640E+02  1.342279789E+02  1.907348633E-06  0.00000E+00  9.000E+00
#rwgt            1           1   3.4411914390608186E-002           1      244922           0
</event>
<event>
      5   9999  3.19816E-02  9.25674E+01 -1.00000E+00  1.25356E-01
      21    -1     0     0   502   511  0.000000000E+00  0.000000000E+00  1.424543246E+02  1.424543246E+02  0.000000000E+00  0.00000E+00  9.000E+00
      21    -1     0     0   501   502  0.000000000E+00  0.000000000E+00 -8.389475984E+02  8.389475984E+02  0.000000000E+00  0.00000E+00  9.000E+00
      25     1     1     2     0     0  2.139013517E+02  8.126009225E+01 -9.057971529E+01  2.760193393E+02  1.250000000E+02  0.00000E+00  9.000E+00
      25     1     1     2     0     0 -1.437243060E+02 -1.416248918E+02 -5.453436960E+02  5.947596430E+02  1.250000000E+02  0.00000E+00  9.000E+00
      21     1     1     2   501   511 -7.017704564E+01  6.036479960E+01 -6.056986257E+01  1.106229407E+02  2.023048729E-06  0.00000E+00  9.000E+00
#rwgt            1           1   2.9656400953344982E-002           1      245008           0
</event>
<event>
      5   9999  3.19816E-02  6.77713E+01 -1.00000E+00  1.31936E-01
       2    -1     0     0   502     0  0.000000000E+00  0.000000000E+00  1.827557631E+03  1.827557631E+03  0.000000000E+00  0.00000E+00  9.000E+00
      21    -1     0     0   501   502  0.000000000E+00  0.000000000E+00 -1.273264641E+02  1.273264641E+02  0.000000000E+00  0.00000E+00  9.000E+00
      25     1     1     2     0     0 -2.562384604E+02 -2.016683102E+01  3.897884992E+02  4.833476221E+02  1.250000000E+02  0.00000E+00  9.000E+00
      25     1     1     2     0     0  3.014012798E+02  7.069673764E+01  2.713294412E+02  4.302155574E+02  1.250000000E+02  0.00000E+00  9.000E+00
       2     1     1     2   501     0 -4.516281936E+01 -5.052990662E+01  1.039113227E+03  1.041320916E+03  1.525878906E-05  0.00000E+00  9.000E+00
#rwgt            1           1   3.0936437598457329E-002           1      245060           0
</event>
<event>
      5   9999  3.19816E-02  1.16460E+02 -1.00000E+00  1.20923E-01
      21    -1     0     0   502   501  0.000000000E+00  0.000000000E+00  3.146031900E+02  3.146031900E+02  0.000000000E+00  0.00000E+00  9.000E+00
      21    -1     0     0   511   502  0.000000000E+00  0.000000000E+00 -1.732704451E+03  1.732704451E+03  0.000000000E+00  0.00000E+00  9.000E+00
      25     1     1     2     0     0 -4.075082554E+02  3.058305073E+02 -5.615172336E+01  5.276109300E+02  1.250000000E+02  0.00000E+00  9.000E+00
      25     1     1     2     0     0  3.508630778E+02 -2.040749998E+02 -5.278063727E+02  6.774629673E+02  1.250000000E+02  0.00000E+00  9.000E+00
      21     1     1     2   511   501  5.664517753E+01 -1.017555075E+02 -8.341431647E+02  8.422337435E+02  0.000000000E+00  0.00000E+00  9.000E+00
#rwgt            1           1   2.5463499652813210E-002           1      245155           0
</event>
<event>
      5   9999  3.19816E-02  2.42263E+01 -1.00000E+00  1.59780E-01
      21    -1     0     0   502   501  0.000000000E+00  0.000000000E+00  3.378017249E+01  3.378017249E+01  0.000000000E+00  0.00000E+00  9.000E+00
      21    -1     0     0   501   512  0.000000000E+00  0.000000000E+00 -1.959273546E+03  1.959273546E+03  0.000000000E+00  0.00000E+00  9.000E+00
      25     1     1     2     0     0  1.205883696E+02 -6.657881509E+01 -3.736506321E+02  4.173896122E+02  1.250000000E+02  0.00000E+00  9.000E+00
      25     1     1     2     0     0 -9.679694120E+01  7.114840074E+01 -6.276472996E+02  6.511511924E+02  1.250000000E+02  0.00000E+00  9.000E+00
      21     1     1     2   502   512 -2.379142840E+01 -4.569585651E+00 -9.241954415E+02  9.245129135E+02  0.000000000E+00  0.00000E+00  9.000E+00
#rwgt            1           1   2.8847170212062744E-002           1      245211           0
</event>
<event>
      5   9999  3.19816E-02  5.55372E+02 -1.00000E+00  9.75732E-02
       1    -1     0     0   502     0  0.000000000E+00  0.000000000E+00  3.929276191E+03  3.929276191E+03  0.000000000E+00  0.00000E+00  9.000E+00
      21    -1     0     0   501   502  0.000000000E+00  0.000000000E+00 -2.465807407E+03  2.465807407E+03  0.000000000E+00  0.00000E+00  9.000E+00
      25     1     1     2     0     0 -1.211821311E+03  1.223298800E+02  2.565108984E+03  2.842337873E+03  1.250000000E+02  0.00000E+00  9.000E+00
      25     1     1     2     0     0  1.631310046E+03 -4.862900097E+02 -1.916662938E+03  2.566490261E+03  1.250000000E+02  0.00000E+00  9.000E+00
       1     1     1     2   501     0 -4.194887350E+02  3.639601298E+02  8.150227392E+02  9.862554640E+02  1.078959322E-05  0.00000E+00  9.000E+00
#rwgt            2          17   8.2203086422895274E-005           1      245636           0
</event>
<event>
      5   9999  3.19816E-02  2.04447E+01 -1.00000E+00  1.65585E-01
      21    -1     0     0   502   501  0.000000000E+00  0.000000000E+00  6.925598081E+02  6.925598081E+02  0.000000000E+00  0.00000E+00  9.000E+00
      21    -1     0     0   501   511  0.000000000E+00  0.000000000E+00 -1.350506286E+02  1.350506286E+02  0.000000000E+00  0.00000E+00  9.000E+00
      25     1     1     2     0     0 -2.482314546E+02 -8.649059917E+01  2.034622558E+02  3.551357041E+02  1.250000000E+02  0.00000E+00  9.000E+00
      25     1     1     2     0     0  2.289465242E+02  7.970252281E+01  3.595537672E+02  4.513013568E+02  1.250000000E+02  0.00000E+00  9.000E+00
      21     1     1     2   502   511  1.928493031E+01  6.788076362E+00 -5.506843514E+00  2.117337581E+01  4.256623047E-07  0.00000E+00  9.000E+00
#rwgt            1           1   2.7252818643928804E-002           1      245655           0
</event>
<event>
      5   9999  3.19816E-02  4.77107E+01 -1.00000E+00  1.40247E-01
      21    -1     0     0   502   501  0.000000000E+00  0.000000000E+00  1.574824143E+03  1.574824143E+03  0.000000000E+00  0.00000E+00  9.000E+00
      21    -1     0     0   512   502  0.000000000E+00  0.000000000E+00 -8.810479635E+02  8.810479635E+02  0.000000000E+00  0.00000E+00  9.000E+00
      25     1     1     2     0     0 -4.901593975E+02 -4.749778137E+02  5.585578147E+02  8.907704479E+02  1.250000000E+02  0.00000E+00  9.000E+00
      25     1     1     2     0     0  5.134408066E+02  5.166225693E+02  6.883380879E+02  1.009928049E+03  1.250000000E+02  0.00000E+00  9.000E+00
      21     1     1     2   512   501 -2.328140904E+01 -4.164475560E+01 -5.531197227E+02  5.551736100E+02  7.629394531E-06  0.00000E+00  9.000E+00
#rwgt            1           1   2.2588785817573839E-002           1      245816           0
</event>
<event>
      5   9999  3.19816E-02  2.28647E+01 -1.00000E+00  1.61711E-01
      21    -1     0     0   502   501  0.000000000E+00  0.000000000E+00  9.879497651E+01  9.879497651E+01  0.000000000E+00  0.00000E+00  9.000E+00
      21    -1     0     0   511   502  0.000000000E+00  0.000000000E+00 -1.246017390E+03  1.246017390E+03  0.000000000E+00  0.00000E+00  9.000E+00
      25     1     1     2     0     0 -1.726666098E+02  2.400270117E+02 -5.475033045E+02  6.346743991E+02  1.250000000E+02  0.00000E+00  9.000E+00
      25     1     1     2     0     0  1.640813480E+02 -2.188352996E+02 -3.589045885E+02  4.682404092E+02  1.250000000E+02  0.00000E+00  9.000E+00
      21     1     1     2   511   501  8.585261850E+00 -2.119171208E+01 -2.408145205E+02  2.418975582E+02  2.697398305E-06  0.00000E+00  9.000E+00
#rwgt            1           1   2.9250030658914249E-002           1      245974           0
</event>
<event>
      5   9999  3.19816E-02  3.50677E+01 -1.00000E+00  1.48476E-01
      21    -1     0     0   502   501  0.000000000E+00  0.000000000E+00  1.942575720E+02  1.942575720E+02  0.000000000E+00  0.00000E+00  9.000E+00
      21    -1     0     0   501   512  0.000000000E+00  0.000000000E+00 -4.959590692E+02  4.959590692E+02  0.000000000E+00  0.00000E+00  9.000E+00
      25     1     1     2     0     0 -5.953644231E+01  2.298815135E+02 -7.474447758E+01  2.785710594E+02  1.250000000E+02  0.00000E+00  9.000E+00
      25     1     1     2     0     0  5.152425756E+01 -1.957413623E+02 -6.595585297E+01  2.468696104E+02  1.250000000E+02  0.00000E+00  9.000E+00
      21     1     1     2   502   512  8.012184759E+00 -3.414015125E+01 -1.610011667E+02  1.647759713E+02  2.697398305E-06  0.00000E+00  9.000E+00
#rwgt            1           1   2.8734400470679770E-002           1      246096           0
</event>
<event>
      5   9999  3.19816E-02  1.18600E+02 -1.00000E+00  1.20585E-01
      -1    -1     0     0     0   501  0.000000000E+00  0.000000000E+00  1.720446018E+02  1.720446018E+02  0.000000000E+00  0.00000E+00  9.000E+00
      21    -1     0     0   501   502  0.000000000E+00  0.000000000E+00 -1.096031293E+03  1.096031293E+03  0.000000000E+00  0.00000E+00  9.000E+00
      25     1     1     2     0     0 -6.624534079E+01  1.518790717E+02 -7.024150369E+02  7.324394730E+02  1.250000000E+02  0.00000E+00  9.000E+00
      25     1     1     2     0     0 -2.327751024E+01 -7.408702630E+01 -3.384902989E+02  3.690953974E+02  1.250000000E+02  0.00000E+00  9.000E+00
      -1     1     1     2     0   502  8.952285104E+01 -7.779204541E+01  1.169186449E+02  1.665410241E+02  0.000000000E+00  0.00000E+00  9.000E+00
#rwgt            1           1   3.9628403301171358E-002           1      246238           0
</event>
<event>
      5   9999  3.19816E-02  1.46676E+02 -1.00000E+00  1.16781E-01
      21    -1     0     0   511   501  0.000000000E+00  0.000000000E+00  1.505015748E+03  1.505015748E+03  0.000000000E+00  0.00000E+00  9.000E+00
      21    -1     0     0   501   502  0.000000000E+00  0.000000000E+00 -3.993447592E+02  3.993447592E+02  0.000000000E+00  0.00000E+00  9.000E+00
      25     1     1     2     0     0  4.237175407E+02  5.990849282E+01  6.580634203E+02  7.948572494E+02  1.250000000E+02  0.00000E+00  9.000E+00
      25     1     1     2     0     0 -4.061894486E+02  8.571592594E+01 -1.767185809E+02  4.681789668E+02  1.250000000E+02  0.00000E+00  9.000E+00
      21     1     1     2   511   502 -1.752809210E+01 -1.456244188E+02  6.243261493E+02  6.413242909E+02  1.078959322E-05  0.00000E+00  9.000E+00
#rwgt            1           1   3.0078131366779538E-002           1      246297           0
</event>
<event>
      5   9999  3.19816E-02  1.85823E+02 -1.00000E+00  1.12823E-01
       2    -1     0     0   502     0  0.000000000E+00  0.000000000E+00  5.165635664E+02  5.165635664E+02  0.000000000E+00  0.00000E+00  9.000E+00
      21    -1     0     0   501   502  0.000000000E+00  0.000000000E+00 -3.526916376E+02  3.526916376E+02  0.000000000E+00  0.00000E+00  9.000E+00
      25     1     1     2     0     0 -3.094568229E+02  4.551999836E+01  1.181888215E+02  3.569722581E+02  1.250000000E+02  0.00000E+00  9.000E+00
      25     1     1     2     0     0  1.318603996E+02 -1.001984243E+02 -1.394345420E+02  2.499877611E+02  1.250000000E+02  0.00000E+00  9.000E+00
       2     1     1     2   501     0  1.775964234E+02  5.467842592E+01  1.851176494E+02  2.622951848E+02  3.814697266E-06  0.00000E+00  9.000E+00
#rwgt            2          18   3.3137572151283501E-004           1      246374           0
</event>
<event>
      5   9999  3.19816E-02  1.32981E+02 -1.00000E+00  1.18505E-01
      -1    -1     0     0     0   501  0.000000000E+00  0.000000000E+00  1.790770738E+03  1.790770738E+03  0.000000000E+00  0.00000E+00  9.000E+00
      21    -1     0     0   501   502  0.000000000E+00  0.000000000E+00 -1.404462975E+02  1.404462975E+02  0.000000000E+00  0.00000E+00  9.000E+00
      25     1     1     2     0     0  1.443820424E+02  5.812411860E+01 -5.180695933E+01  2.062366319E+02  1.250000000E+02  0.00000E+00  9.000E+00
      25     1     1     2     0     0 -2.519816851E+01  8.595206338E-01  5.206302890E+02  5.360192015E+02  1.250000000E+02  0.00000E+00  9.000E+00
      -1     1     1     2     0   502 -1.191838739E+02 -5.898363924E+01  1.181501111E+03  1.188961202E+03  3.051757812E-05  0.00000E+00  9.000E+00
#rwgt            2           5   5.6950461415478120E-005           1      246468           0
</event>
<event>
      5   9999  3.19816E-02  5.94950E+01 -1.00000E+00  1.34900E-01
      21    -1     0     0   502   501  0.000000000E+00  0.000000000E+00  1.174117365E+02  1.174117365E+02  0.000000000E+00  0.00000E+00  9.000E+00
      21    -1     0     0   511   502  0.000000000E+00  0.000000000E+00 -7.914969808E+02  7.914969808E+02  0.000000000E+00  0.00000E+00  9.000E+00
      25     1     1     2     0     0 -1.336725912E+02 -6.622396969E+01  7.382770754E-01  1.946266191E+02  1.250000000E+02  0.00000E+00  9.000E+00
      25     1     1     2     0     0  8.001637814E+01  9.192745686E+01 -5.093096798E+02  5.384000632E+02  1.250000000E+02  0.00000E+00  9.000E+00
      21     1     1     2   511   501  5.365621311E+01 -2.570348717E+01 -1.655138417E+02  1.758820350E+02  3.303624740E-06  0.00000E+00  9.000E+00
#rwgt            1           1   2.8978401761886648E-002           1      246487           0
</event>
<event>
      5   9999  3.19816E-02  6.02361E+01 -1.00000E+00  1.34612E-01
      21    -1     0     0   502   501  0.000000000E+00  0.000000000E+00  8.289492816E+02  8.289492816E+02  0.000000000E+00  0.00000E+00  9.000E+00
      -2    -1     0     0     0   502  0.000000000E+00  0.000000000E+00 -2.640295575E+02  2.640295575E+02  0.000000000E+00  0.00000E+00  9.000E+00
      25     1     1     2     0     0  2.192927722E+02 -1.709216342E+02  4.012641462E+02  5.039260264E+02  1.250000000E+02  0.00000E+00  9.000E+00
      25     1     1     2     0     0 -2.781141517E+02  1.838996323E+02  2.833479791E+02  4.550578352E+02  1.250000000E+02  0.00000E+00  9.000E+00
      -2     1     1     2     0   501  5.882137948E+01 -1.297799802E+01 -1.196924012E+02  1.339949776E+02  1.348699152E-06  0.00000E+00  9.000E+00
#rwgt            1           1   3.3344409494690648E-002           1      246537           0
</event>
<event>
      5   9999  3.19816E-02  4.23583E+01 -1.00000E+00  1.43314E-01
      21    -1     0     0   502   501  0.000000000E+00  0.000000000E+00  2.167492476E+02  2.167492476E+02  0.000000000E+00  0.00000E+00  9.000E+00
      21    -1     0     0   501   511  0.000000000E+00  0.000000000E+00 -1.020712190E+03  1.020712190E+03  0.000000000E+00  0.00000E+00  9.000E+00
      25     1     1     2     0     0  4.026230733E+01 -2.104021207E+02 -2.825414156E+02  3.759584516E+02  1.250000000E+02  0.00000E+00  9.000E+00
      25     1     1     2     0     0 -7.961167542E+01  2.260817870E+02  6.134519248E+01  2.771988923E+02  1.250000000E+02  0.00000E+00  9.000E+00
      21     1     1     2   502   511  3.934936809E+01 -1.567966625E+01 -5.827667189E+02  5.843040933E+02  0.000000000E+00  0.00000E+00  9.000E+00
#rwgt            2          11   2.0797793238312634E-003           1      246659           0
</event>
<event>
      5   9999  3.19816E-02  5.44664E+01 -1.00000E+00  1.36988E-01
      21    -1     0     0   502   501  0.000000000E+00  0.000000000E+00  7.597713168E+02  7.597713168E+02  0.000000000E+00  0.00000E+00  9.000E+00
      21    -1     0     0   501   512  0.000000000E+00  0.000000000E+00 -1.686240081E+03  1.686240081E+03  0.000000000E+00  0.00000E+00  9.000E+00
      25     1     1     2     0     0  2.884395235E+02  8.916326562E+02 -1.088070167E+03  1.441432565E+03  1.250000000E+02  0.00000E+00  9.000E+00
      25     1     1     2     0     0 -3.174170800E+02 -8.455143876E+02  2.055117199E+02  9.346166323E+02  1.250000000E+02  0.00000E+00  9.000E+00
      21     1     1     2   502   512  2.897755647E+01 -4.611826861E+01 -4.391031710E+01  6.996219998E+01  6.743495762E-07  0.00000E+00  9.000E+00
#rwgt            1           1   2.4555471116085335E-002           1      246694           0
</event>
<event>
      5   9999  3.19816E-02  1.10528E+01 -1.00000E+00  1.90862E-01
      21    -1     0     0   502   501  0.000000000E+00  0.000000000E+00  6.999050960E+01  6.999050960E+01  0.000000000E+00  0.00000E+00  9.000E+00
      21    -1     0     0   511   502  0.000000000E+00  0.000000000E+00 -8.291914201E+02  8.291914201E+02  0.000000000E+00  0.00000E+00  9.000E+00
      25     1     1     2     0     0  4.741466241E+01  1.311990485E+02 -1.188414943E+02  2.218324623E+02  1.250000000E+02  0.00000E+00  9.000E+00
      25     1     1     2     0     0 -3.774296814E+01 -1.258489976E+02 -4.297049761E+02  4.664052619E+02  1.250000000E+02  0.00000E+00  9.000E+00
      21     1     1     2   511   501 -9.671694270E+00 -5.350050932E+00 -2.106544401E+02  2.109442055E+02  2.697398305E-06  0.00000E+00  9.000E+00
#rwgt            1           1   2.6620786149995385E-002           1      246835           0
</event>
<event>
      5   9999  3.19816E-02  2.14713E+01 -1.00000E+00  1.63865E-01
      21    -1     0     0   502   501  0.000000000E+00  0.000000000E+00  5.259778939E+02  5.259778939E+02  0.000000000E+00  0.00000E+00  9.000E+00
      21    -1     0     0   501   512  0.000000000E+00  0.000000000E+00 -6.504288963E+02  6.504288963E+02  0.000000000E+00  0.00000E+00  9.000E+00
      25     1     1     2     0     0 -1.841885751E+02  4.719565491E+02  5.863501378E+01  5.251014000E+02  1.250000000E+02  0.00000E+00  9.000E+00
      25     1     1     2     0     0  1.680582799E+02 -4.861279533E+02 -6.735201724E+01  5.335965392E+02  1.250000000E+02  0.00000E+00  9.000E+00
      21     1     1     2   502   512  1.613029525E+01  1.417140422E+01 -1.157339989E+02  1.177088511E+02  0.000000000E+00  0.00000E+00  9.000E+00
#rwgt            1           1   3.0303144398193073E-002           1      247021           0
</event>
<event>
      5   9999  3.19816E-02  8.02201E+01 -1.00000E+00  1.28292E-01
      21    -1     0     0   502   511  0.000000000E+00  0.000000000E+00  1.196303593E+03  1.196303593E+03  0.000000000E+00  0.00000E+00  9.000E+00
      21    -1     0     0   501   502  0.000000000E+00  0.000000000E+00 -1.218039053E+03  1.218039053E+03  0.000000000E+00  0.00000E+00  9.000E+00
      25     1     1     2     0     0  2.066633799E+02 -1.232333321E+02  2.956690007E+02  4.011749802E+02  1.250000000E+02  0.00000E+00  9.000E+00
      25     1     1     2     0     0 -1.861353031E+02  2.007824587E+02 -1.143877521E+03  1.182810521E+03  1.250000000E+02  0.00000E+00  9.000E+00
      21     1     1     2   501   511 -2.052807682E+01 -7.754912665E+01  8.264730596E+02  8.303571444E+02  1.078959322E-05  0.00000E+00  9.000E+00
#rwgt            1           1   3.2296266234580193E-002           1      247189           0
</event>
<event>
      5   9999  3.19816E-02  2.95983E+01 -1.00000E+00  1.53448E-01
      21    -1     0     0   502   501  0.000000000E+00  0.000000000E+00  2.002751772E+01  2.002751772E+01  0.000000000E+00  0.00000E+00  9.000E+00
      21    -1     0     0   512   502  0.000000000E+00  0.000000000E+00 -4.354831342E+03  4.354831342E+03  0.000000000E+00  0.00000E+00  9.000E+00
      25     1     1     2     0     0 -1.225315244E+02 -1.362547129E+02 -8.296212380E+02  8.587640653E+02  1.250000000E+02  0.00000E+00  9.000E+00
      25     1     1     2     0     0  1.389994700E+02  1.608486809E+02 -3.052686130E+03  3.062631345E+03  1.250000000E+02  0.00000E+00  9.000E+00
      21     1     1     2   512   501 -1.646794558E+01 -2.459396792E+01 -4.524964568E+02  4.534634494E+02  7.629394531E-06  0.00000E+00  9.000E+00
#rwgt            1           1   6.6741401974076981E-003           1      247299           0
</event>
<event>
      5   9999  3.19816E-02  3.01636E+01 -1.00000E+00  1.52876E-01
      21    -1     0     0   502   501  0.000000000E+00  0.000000000E+00  1.676358553E+03  1.676358553E+03  0.000000000E+00  0.00000E+00  9.000E+00
      21    -1     0     0   511   502  0.000000000E+00  0.000000000E+00 -6.561325687E+01  6.561325687E+01  0.000000000E+00  0.00000E+00  9.000E+00
      25     1     1     2     0     0  2.356278305E+01 -1.794065450E+02  1.139134900E+03  1.160170347E+03  1.250000000E+02  0.00000E+00  9.000E+00
      25     1     1     2     0     0 -1.456253087E+00  1.999283338E+02  4.918688558E+02  5.454662507E+02  1.250000000E+02  0.00000E+00  9.000E+00
      21     1     1     2   511   501 -2.210652996E+01 -2.052178882E+01 -2.025845957E+01  3.633521250E+01  1.892388805E-06  0.00000E+00  9.000E+00
#rwgt            1           1   3.7470972794784639E-002           1      247417           0
</event>
<event>
      5   9999  3.19816E-02  4.05558E+01 -1.00000E+00  1.44469E-01
      21    -1     0     0   502   512  0.000000000E+00  0.000000000E+00  1.396690181E+03  1.396690181E+03  0.000000000E+00  0.00000E+00  9.000E+00
      21    -1     0     0   501   502  0.000000000E+00  0.000000000E+00 -8.807463941E+01  8.807463941E+01  0.000000000E+00  0.00000E+00  9.000E+00
      25     1     1     2     0     0  9.311286922E+01 -9.951355926E+01  5.499124964E+01  1.929300195E+02  1.250000000E+02  0.00000E+00  9.000E+00
      25     1     1     2     0     0 -7.301851667E+01  1.347412796E+02  5.084514721E+02  5.455591770E+02  1.250000000E+02  0.00000E+00  9.000E+00
      21     1     1     2   501   512 -2.009435255E+01 -3.522772030E+01  7.451728202E+02  7.462756242E+02  0.000000000E+00  0.00000E+00  9.000E+00
#rwgt            1           1   3.0210407778204405E-002           1      247515           0
</event>
<event>
      5   9999  3.19816E-02  2.76374E+02 -1.00000E+00  1.06763E-01
      21    -1     0     0   502   501  0.000000000E+00  0.000000000E+00  6.597739819E+02  6.597739819E+02  0.000000000E+00  0.00000E+00  9.000E+00
      21    -1     0     0   501   511  0.000000000E+00  0.000000000E+00 -5.612483578E+02  5.612483578E+02  0.000000000E+00  0.00000E+00  9.000E+00
      25     1     1     2     0     0  4.703340920E+02  9.759074946E+01  2.456320657E+02  5.538034166E+02  1.250000000E+02  0.00000E+00  9.000E+00
      25     1     1     2     0     0 -3.049346015E+02  1.238271055E+02  4.314475490E+00  3.520822034E+02  1.250000000E+02  0.00000E+00  9.000E+00
      21     1     1     2   502   511 -1.653994906E+02 -2.214178550E+02 -1.514209172E+02  3.151367198E+02  4.264961200E-06  0.00000E+00  9.000E+00
#rwgt            2          11   3.2830550138714643E-003           1      247645           0
</event>
<event>
      5   9999  3.19816E-02  6.02167E+02 -1.00000E+00  9.66110E-02
       1    -1     0     0   502     0  0.000000000E+00  0.000000000E+00  3.390008745E+03  3.390008745E+03  0.000000000E+00  0.00000E+00  9.000E+00
      21    -1     0     0   501   502  0.000000000E+00  0.000000000E+00 -1.929669549E+02  1.929669549E+02  0.000000000E+00  0.00000E+00  9.000E+00
      25     1     1     2     0     0  4.142000582E+02  2.318097602E+02  2.147125574E+03  2.202514627E+03  1.250000000E+02  0.00000E+00  9.000E+00
      25     1     1     2     0     0  1.791115033E+02 -1.289203290E+02  5.190468098E+02  5.776988598E+02  1.250000000E+02  0.00000E+00  9.000E+00
       1     1     1     2   501     0 -5.933115616E+02 -1.028894313E+02  5.308694069E+02  8.027622135E+02  0.000000000E+00  0.00000E+00  9.000E+00
#rwgt            2          17   1.4431676861504570E-003           1      247665           0
</event>
<event>
      5   9999  3.19816E-02  8.61258E+01 -1.00000E+00  1.26817E-01
      21    -1     0     0   502   501  0.000000000E+00  0.000000000E+00  7.588610044E+02  7.588610044E+02  0.000000000E+00  0.00000E+00  9.000E+00
       2    -1     0     0   501     0  0.000000000E+00  0.000000000E+00 -4.128853011E+02  4.128853011E+02  0.000000000E+00  0.00000E+00  9.000E+00
      25     1     1     2     0     0  2.634432749E+02  1.399696774E+02  3.992867485E+02  5.138567672E+02  1.250000000E+02  0.00000E+00  9.000E+00
      25     1     1     2     0     0 -1.881628241E+02 -9.813069822E+01  2.449983622E+02  3.473961424E+02  1.250000000E+02  0.00000E+00  9.000E+00
       2     1     1     2   502     0 -7.528045081E+01 -4.183897914E+01 -2.983094073E+02  3.104933960E+02  7.629394531E-06  0.00000E+00  9.000E+00
#rwgt            1           1   2.8829447598125092E-002           1      247684           0
</event>
<event>
      5   9999  3.19816E-02  6.14206E+01 -1.00000E+00  1.34163E-01
      21    -1     0     0   502   501  0.000000000E+00  0.000000000E+00  1.677427935E+02  1.677427935E+02  0.000000000E+00  0.00000E+00  9.000E+00
       1    -1     0     0   501     0  0.000000000E+00  0.000000000E+00 -3.964930765E+02  3.964930765E+02  0.000000000E+00  0.00000E+00  9.000E+00
      25     1     1     2     0     0 -1.538499859E+02  3.288680935E+01 -6.141596622E+01  2.101149240E+02  1.250000000E+02  0.00000E+00  9.000E+00
      25     1     1     2     0     0  2.151995544E+02 -2.993390804E+01 -1.353840964E+02  2.848872420E+02  1.250000000E+02  0.00000E+00  9.000E+00
       1     1     1     2   502     0 -6.134956856E+01 -2.952901305E+00 -3.195022037E+01  6.923370401E+01  6.743495762E-07  0.00000E+00  9.000E+00
#rwgt            1           1   2.4788489592280836E-002           1      247770           0
</event>
<event>
      5   9999  3.19816E-02  1.07248E+02 -1.00000E+00  1.22476E-01
      21    -1     0     0   511   501  0.000000000E+00  0.000000000E+00  5.508728278E+02  5.508728278E+02  0.000000000E+00  0.00000E+00  9.000E+00
      21    -1     0     0   501   502  0.000000000E+00  0.000000000E+00 -1.254246929E+02  1.254246929E+02  0.000000000E+00  0.00000E+00  9.000E+00
      25     1     1     2     0     0 -9.464983257E+01  4.780220961E+01  2.009123195E+02  2.592959741E+02  1.250000000E+02  0.00000E+00  9.000E+00
      25     1     1     2     0     0  4.691485337E+01 -1.438413532E+02  3.518120586E+01  1.993841909E+02  1.250000000E+02  0.00000E+00  9.000E+00
      21     1     1     2   511   502  4.773497921E+01  9.603914357E+01  1.893546095E+02  2.176173556E+02  0.000000000E+00  0.00000E+00  9.000E+00
#rwgt            1           1   2.4617746479864835E-002           1      247847           0
</event>
<event>
      5   9999  3.19816E-02  1.52991E+01 -1.00000E+00  1.76580E-01
      21    -1     0     0   502   512  0.000000000E+00  0.000000000E+00  9.911516720E+02  9.911516720E+02  0.000000000E+00  0.00000E+00  9.000E+00
      21    -1     0     0   501   502  0.000000000E+00  0.000000000E+00 -1.008668219E+03  1.008668219E+03  0.000000000E+00  0.00000E+00  9.000E+00
      25     1     1     2     0     0  6.091041950E+02 -1.937422294E+02  4.291731820E+02  7.799734559E+02  1.250000000E+02  0.00000E+00  9.000E+00
      25     1     1     2     0     0 -6.114760133E+02  2.088563734E+02 -7.030496073E+02  9.630304511E+02  1.250000000E+02  0.00000E+00  9.000E+00
      21     1     1     2   501   512  2.371818299E+00 -1.511414392E+01  2.563598779E+02  2.568159844E+02  0.000000000E+00  0.00000E+00  9.000E+00
#rwgt            1           1   2.9204096370090138E-002           1      247893           0
</event>
<event>
      5   9999  3.19816E-02  4.18187E+02 -1.00000E+00  1.01108E-01
      21    -1     0     0   502   501  0.000000000E+00  0.000000000E+00  2.993030622E+02  2.993030622E+02  0.000000000E+00  0.00000E+00  9.000E+00
       3    -1     0     0   501     0  0.000000000E+00  0.000000000E+00 -1.502526547E+03  1.502526547E+03  0.000000000E+00  0.00000E+00  9.000E+00
      25     1     1     2     0     0  2.168171597E+02  1.193180329E+02  1.055243715E+02  2.966595130E+02  1.250000000E+02  0.00000E+00  9.000E+00
      25     1     1     2     0     0  1.918202163E+02 -3.046030157E+01 -1.554901211E+02  2.784331215E+02  1.250000000E+02  0.00000E+00  9.000E+00
       3     1     1     2   502     0 -4.086373760E+02 -8.885773134E+01 -1.153257735E+03  1.226736975E+03  2.157918644E-05  0.00000E+00  9.000E+00
#rwgt            1           1   3.1525088296439734E-002           1      248182           0
</event>
<event>
      5   9999  3.19816E-02  1.77573E+02 -1.00000E+00  1.13561E-01
      21    -1     0     0   502   501  0.000000000E+00  0.000000000E+00  1.951643774E+02  1.951643774E+02  0.000000000E+00  0.00000E+00  9.000E+00
       2    -1     0     0   501     0  0.000000000E+00  0.000000000E+00 -1.159125422E+03  1.159125422E+03  0.000000000E+00  0.00000E+00  9.000E+00
      25     1     1     2     0     0 -3.541920154E+01  3.167784731E+02 -3.062136574E+02  4.593418387E+02  1.250000000E+02  0.00000E+00  9.000E+00
      25     1     1     2     0     0  2.092445998E+02 -3.530657036E+02 -4.527429226E+02  6.237305889E+02  1.250000000E+02  0.00000E+00  9.000E+00
       2     1     1     2   502     0 -1.738253983E+02  3.628723044E+01 -2.050044646E+02  2.712173716E+02  0.000000000E+00  0.00000E+00  9.000E+00
#rwgt            1           1   2.5377854128725966E-002           1      248225           0
</event>
<event>
      5   9999  3.19816E-02  9.56622E+01 -1.00000E+00  1.24700E-01
      21    -1     0     0   502   511  0.000000000E+00  0.000000000E+00  1.332566441E+02  1.332566441E+02  0.000000000E+00  0.00000E+00  9.000E+00
      21    -1     0     0   501   502  0.000000000E+00  0.000000000E+00 -8.698059896E+02  8.698059896E+02  0.000000000E+00  0.00000E+00  9.000E+00
      25     1     1     2     0     0 -4.598201554E+01 -1.626967664E+02 -4.098042441E+02  4.605964633E+02  1.250000000E+02  0.00000E+00  9.000E+00
      25     1     1     2     0     0  1.388578625E+02  1.856167671E+02 -3.556375757E+02  4.425360725E+02  1.250000000E+02  0.00000E+00  9.000E+00
      21     1     1     2   501   511 -9.287584694E+01 -2.292000074E+01  2.889247429E+01  9.993009782E+01  1.545128989E-06  0.00000E+00  9.000E+00
#rwgt            1           1   2.8881946273396752E-002           1      248264           0
</event>
<event>
      5   9999  3.75209E-02  2.08362E+01 -1.00000E+00  1.64915E-01
      21    -1     0     0   512   501  0.000000000E+00  0.000000000E+00  3.628376589E+01  3.628376589E+01  0.000000000E+00  0.00000E+00  9.000E+00
      21    -1     0     0   501   502  0.000000000E+00  0.000000000E+00 -1.961303753E+03  1.961303753E+03  0.000000000E+00  0.00000E+00  9.000E+00
      25     1     1     2     0     0  1.756087572E+02  5.400619405E+01 -1.428471547E+03  1.445652471E+03  1.250000000E+02  0.00000E+00  9.000E+00
      25     1     1     2     0     0 -1.730469127E+02 -3.332805919E+01 -4.756645469E+02  5.224344501E+02  1.250000000E+02  0.00000E+00  9.000E+00
      21     1     1     2   512   502 -2.561844540E+00 -2.067813486E+01 -2.088389334E+01  2.950059846E+01  5.331201500E-07  0.00000E+00  9.000E+00
#rwgt            1           1  0.11603488651261433                1      248335           0
</event>
<event>
      5   9999  3.19816E-02  5.97311E+01 -1.00000E+00  1.34808E-01
      21    -1     0     0   502   511  0.000000000E+00  0.000000000E+00  8.076139310E+02  8.076139310E+02  0.000000000E+00  0.00000E+00  9.000E+00
      21    -1     0     0   501   502  0.000000000E+00  0.000000000E+00 -2.568386402E+02  2.568386402E+02  0.000000000E+00  0.00000E+00  9.000E+00
      25     1     1     2     0     0  1.366398076E+02 -3.545610074E+02  5.162765591E+01  4.033290962E+02  1.250000000E+02  0.00000E+00  9.000E+00
      25     1     1     2     0     0 -1.727594900E+02  3.069881779E+02  4.295010563E+02  5.693713552E+02  1.250000000E+02  0.00000E+00  9.000E+00
      21     1     1     2   501   511  3.611968237E+01  4.757282953E+01  6.964657864E+01  9.175211976E+01  9.536743164E-07  0.00000E+00  9.000E+00
#rwgt            1           1   3.0465010127490227E-002           1      248505           0
</event>
<event>
      5   9999  3.19816E-02  1.92463E+01 -1.00000E+00  1.67757E-01
      21    -1     0     0   502   512  0.000000000E+00  0.000000000E+00  2.076750712E+02  2.076750712E+02  0.000000000E+00  0.00000E+00  9.000E+00
      21    -1     0     0   501   502  0.000000000E+00  0.000000000E+00 -1.975162745E+02  1.975162745E+02  0.000000000E+00  0.00000E+00  9.000E+00
      25     1     1     2     0     0 -7.266934277E+01 -9.804791182E+01 -6.710463760E+01  1.871423490E+02  1.250000000E+02  0.00000E+00  9.000E+00
      25     1     1     2     0     0  6.521924020E+01  1.157937678E+02  5.962393123E+01  1.919420723E+02  1.250000000E+02  0.00000E+00  9.000E+00
      21     1     1     2   501   512  7.450102564E+00 -1.774585600E+01  1.763950310E+01  2.610692442E+01  5.331201500E-07  0.00000E+00  9.000E+00
#rwgt            1           1   3.0779429773671766E-002           1      248617           0
</event>
<event>
      5   9999  3.19816E-02  3.59198E+01 -1.00000E+00  1.47799E-01
      21    -1     0     0   511   501  0.000000000E+00  0.000000000E+00  5.592995195E+02  5.592995195E+02  0.000000000E+00  0.00000E+00  9.000E+00
      21    -1     0     0   501   502  0.000000000E+00  0.000000000E+00 -3.111781660E+02  3.111781660E+02  0.000000000E+00  0.00000E+00  9.000E+00
      25     1     1     2     0     0 -6.836019503E+01 -3.464261875E+02  1.557518084E+02  4.056696261E+02  1.250000000E+02  0.00000E+00  9.000E+00
      25     1     1     2     0     0  7.918764634E+01  3.121771290E+02 -2.077848447E+01  3.460953462E+02  1.250000000E+02  0.00000E+00  9.000E+00
      21     1     1     2   511   502 -1.082745130E+01  3.424905851E+01  1.131480296E+02  1.187127133E+02  1.907348633E-06  0.00000E+00  9.000E+00
#rwgt            1           1   2.6441992630138727E-002           1      248790           0
</event>
<event>
      5   9999  3.19816E-02  1.15081E+02 -1.00000E+00  1.21145E-01
      21    -1     0     0   502   501  0.000000000E+00  0.000000000E+00  1.915335207E+03  1.915335207E+03  0.000000000E+00  0.00000E+00  9.000E+00
      21    -1     0     0   512   502  0.000000000E+00  0.000000000E+00 -3.880811886E+02  3.880811886E+02  0.000000000E+00  0.00000E+00  9.000E+00
      25     1     1     2     0     0 -6.140412593E+02 -4.035308991E+02  2.851669154E+02  7.980156792E+02  1.250000000E+02  0.00000E+00  9.000E+00
      25     1     1     2     0     0  5.113767166E+02  4.555284130E+02  1.190899266E+03  1.379448565E+03  1.250000000E+02  0.00000E+00  9.000E+00
      21     1     1     2   512   501  1.026645427E+02 -5.199751386E+01  5.118783694E+01  1.259521513E+02  2.523185073E-06  0.00000E+00  9.000E+00
#rwgt            1           1   2.9715343324773980E-002           1      248938           0
</event>
<event>
      5   9999  3.19816E-02  6.77544E+01 -1.00000E+00  1.31942E-01
      21    -1     0     0   502   501  0.000000000E+00  0.000000000E+00  7.741756426E+02  7.741756426E+02  0.000000000E+00  0.00000E+00  9.000E+00
      21    -1     0     0   511   502  0.000000000E+00  0.000000000E+00 -8.233013234E+02  8.233013234E+02  0.000000000E+00  0.00000E+00  9.000E+00
      25     1     1     2     0     0 -4.268432088E+02  1.359106811E+02  5.828512029E+02  7.456590125E+02  1.250000000E+02  0.00000E+00  9.000E+00
      25     1     1     2     0     0  3.611368138E+02 -1.524432598E+02 -2.904416239E+02  5.036269280E+02  1.250000000E+02  0.00000E+00  9.000E+00
      21     1     1     2   511   501  6.570639503E+01  1.653257866E+01 -3.415352599E+02  3.481910255E+02  6.607249480E-06  0.00000E+00  9.000E+00
#rwgt            1           1   2.9444624064593746E-002           1      249032           0
</event>
<event>
      5   9999  3.63679E-02  5.32664E+01 -1.00000E+00  1.37525E-01
      21    -1     0     0   502   512  0.000000000E+00  0.000000000E+00  3.249021752E+02  3.249021752E+02  0.000000000E+00  0.00000E+00  9.000E+00
      21    -1     0     0   501   502  0.000000000E+00  0.000000000E+00 -3.404321564E+02  3.404321564E+02  0.000000000E+00  0.00000E+00  9.000E+00
      25     1     1     2     0     0  1.349618740E+02 -2.235988872E+02 -1.272702425E+02  3.162813374E+02  1.250000000E+02  0.00000E+00  9.000E+00
      25     1     1     2     0     0 -1.654475789E+02  1.799190133E+02  7.583509477E+01  2.848152283E+02  1.250000000E+02  0.00000E+00  9.000E+00
      21     1     1     2   501   512  3.048570483E+01  4.367987392E+01  3.590516647E+01  6.423776587E+01  0.000000000E+00  0.00000E+00  9.000E+00
#rwgt            1           1   3.3995231393303578E-002           1      249123           0
</event>
<event>
      5   9999  3.19816E-02  2.28062E+01 -1.00000E+00  1.61798E-01
      21    -1     0     0   511   501  0.000000000E+00  0.000000000E+00  7.522446909E+02  7.522446909E+02  0.000000000E+00  0.00000E+00  9.000E+00
      21    -1     0     0   501   502  0.000000000E+00  0.000000000E+00 -7.791243934E+02  7.791243934E+02  0.000000000E+00  0.00000E+00  9.000E+00
      25     1     1     2     0     0 -4.178770874E+02 -3.438945676E+02  4.828316986E+02  7.359593623E+02  1.250000000E+02  0.00000E+00  9.000E+00
      25     1     1     2     0     0  4.153962114E+02  3.665654013E+02 -5.203280465E+02  7.702535179E+02  1.250000000E+02  0.00000E+00  9.000E+00
      21     1     1     2   511   502  2.480875983E+00 -2.267083376E+01  1.061664537E+01  2.515620416E+01  4.915124924E-07  0.00000E+00  9.000E+00
#rwgt            1           1   3.0738380549111897E-002           1      249238           0
</event>
<event>
      5   9999  3.19816E-02  1.20277E+01 -1.00000E+00  1.86923E-01
      21    -1     0     0   502   501  0.000000000E+00  0.000000000E+00  7.971030702E+02  7.971030702E+02  0.000000000E+00  0.00000E+00  9.000E+00
      21    -1     0     0   501   512  0.000000000E+00  0.000000000E+00 -4.684951567E+02  4.684951567E+02  0.000000000E+00  0.00000E+00  9.000E+00
      25     1     1     2     0     0  8.643426077E+01  3.585259889E+02  6.376161112E+02  7.471218584E+02  1.250000000E+02  0.00000E+00  9.000E+00
      25     1     1     2     0     0 -9.417187434E+01 -3.677344677E+02 -2.826476302E+02  4.895014438E+02  1.250000000E+02  0.00000E+00  9.000E+00
      21     1     1     2   502   512  7.737613567E+00  9.208478781E+00 -2.636056741E+01  2.897492466E+01  5.840038640E-07  0.00000E+00  9.000E+00
#rwgt            2          11   5.4730977597686773E-003           1      249641           0
</event>
<event>
      5   9999  3.19816E-02  3.33082E+01 -1.00000E+00  1.49950E-01
      21    -1     0     0   502   501  0.000000000E+00  0.000000000E+00  3.159243063E+02  3.159243063E+02  0.000000000E+00  0.00000E+00  9.000E+00
      21    -1     0     0   501   511  0.000000000E+00  0.000000000E+00 -7.120606799E+02  7.120606799E+02  0.000000000E+00  0.00000E+00  9.000E+00
      25     1     1     2     0     0 -2.238476696E+02  3.743721836E+02 -2.740932677E+02  5.301079423E+02  1.250000000E+02  0.00000E+00  9.000E+00
      25     1     1     2     0     0  1.905617221E+02 -3.755900434E+02 -8.394788917E+01  4.472738521E+02  1.250000000E+02  0.00000E+00  9.000E+00
      21     1     1     2   502   511  3.328594745E+01  1.217859773E+00 -3.809521683E+01  5.060319185E+01  6.743495762E-07  0.00000E+00  9.000E+00
#rwgt            1           1   2.7290446359994436E-002           1      249691           0
</event>
<event>
      5   9999  3.19816E-02  1.43670E+01 -1.00000E+00  1.79166E-01
      21    -1     0     0   502   501  0.000000000E+00  0.000000000E+00  9.596743360E+02  9.596743360E+02  0.000000000E+00  0.00000E+00  9.000E+00
      21    -1     0     0   512   502  0.000000000E+00  0.000000000E+00 -4.442174054E+01  4.442174054E+01  0.000000000E+00  0.00000E+00  9.000E+00
      25     1     1     2     0     0 -2.959564319E+01  1.387300402E+02  4.884517496E+02  5.237671599E+02  1.250000000E+02  0.00000E+00  9.000E+00
      25     1     1     2     0     0  2.166453286E+01 -1.507094984E+02  4.210462944E+02  4.648523280E+02  1.250000000E+02  0.00000E+00  9.000E+00
      21     1     1     2   512   501  7.931110338E+00  1.197945828E+01  5.754551605E+00  1.547658865E+01  0.000000000E+00  0.00000E+00  9.000E+00
#rwgt            1           1   3.2239480499359277E-002           1      249896           0
</event>
<event>
      5   9999  3.19816E-02  7.48920E+01 -1.00000E+00  1.29752E-01
      21    -1     0     0   502   511  0.000000000E+00  0.000000000E+00  3.363607062E+02  3.363607062E+02  0.000000000E+00  0.00000E+00  9.000E+00
      21    -1     0     0   501   502  0.000000000E+00  0.000000000E+00 -6.480353854E+02  6.480353854E+02  0.000000000E+00  0.00000E+00  9.000E+00
      25     1     1     2     0     0 -2.094641171E+02 -1.552679912E+02 -2.331266948E+02  3.714248528E+02  1.250000000E+02  0.00000E+00  9.000E+00
      25     1     1     2     0     0  2.440069667E+02  2.217179695E+02 -2.457341428E+02  4.297772989E+02  1.250000000E+02  0.00000E+00  9.000E+00
      21     1     1     2   501   511 -3.454284955E+01 -6.644997828E+01  1.671861584E+02  1.831939399E+02  1.907348633E-06  0.00000E+00  9.000E+00
#rwgt            1           1   2.9484083318775337E-002           1      250016           0
</event>
<event>
      5   9999  3.19816E-02  1.53560E+02 -1.00000E+00  1.15991E-01
      21    -1     0     0   502   501  0.000000000E+00  0.000000000E+00  2.715924114E+02  2.715924114E+02  0.000000000E+00  0.00000E+00  9.000E+00
      21    -1     0     0   501   512  0.000000000E+00  0.000000000E+00 -6.326380308E+02  6.326380308E+02  0.000000000E+00  0.00000E+00  9.000E+00
      25     1     1     2     0     0 -1.012863629E+02  1.126020865E+02  1.608997234E+02  2.538737446E+02  1.250000000E+02  0.00000E+00  9.000E+00
      25     1     1     2     0     0  1.982110162E+02  6.504691130E+00 -3.136339680E+02  3.915624903E+02  1.250000000E+02  0.00000E+00  9.000E+00
      21     1     1     2   502   512 -9.692465323E+01 -1.191067777E+02 -2.083113748E+02  2.587942073E+02  3.814697266E-06  0.00000E+00  9.000E+00
#rwgt            2          11   3.0103088223065906E-003           1      250076           0
</event>
<event>
      5   9999  3.19816E-02  7.15884E+01 -1.00000E+00  1.30729E-01
      21    -1     0     0   502   501  0.000000000E+00  0.000000000E+00  5.037693535E+02  5.037693535E+02  0.000000000E+00  0.00000E+00  9.000E+00
      21    -1     0     0   501   511  0.000000000E+00  0.000000000E+00 -1.899138080E+02  1.899138080E+02  0.000000000E+00  0.00000E+00  9.000E+00
      25     1     1     2     0     0 -2.350744903E+01 -1.178650904E+02  3.351752692E+02  3.773754639E+02  1.250000000E+02  0.00000E+00  9.000E+00
      25     1     1     2     0     0  4.438391490E+01  4.938826466E+01  1.014819195E+02  1.741628909E+02  1.250000000E+02  0.00000E+00  9.000E+00
      21     1     1     2   502   511 -2.087646587E+01  6.847682569E+01 -1.228016432E+02  1.421448066E+02  1.907348633E-06  0.00000E+00  9.000E+00
#rwgt            1           1   2.5507372879526251E-002           1      250096           0
</event>
<event>
      5   9999  3.19816E-02  1.88115E+02 -1.00000E+00  1.12625E-01
      21    -1     0     0   502   501  0.000000000E+00  0.000000000E+00  9.982243803E+02  9.982243803E+02  0.000000000E+00  0.00000E+00  9.000E+00
      21    -1     0     0   512   502  0.000000000E+00  0.000000000E+00 -3.474794113E+02  3.474794113E+02  0.000000000E+00  0.00000E+00  9.000E+00
      25     1     1     2     0     0  2.173342794E+02  1.301152043E+02  6.005358035E+02  6.636508168E+02  1.250000000E+02  0.00000E+00  9.000E+00
      25     1     1     2     0     0 -3.720875162E+02 -2.370663468E+02  1.316274745E+02  4.770747998E+02  1.250000000E+02  0.00000E+00  9.000E+00
      21     1     1     2   512   501  1.547532369E+02  1.069511425E+02 -8.141830892E+01  2.049781750E+02  1.651812370E-06  0.00000E+00  9.000E+00
#rwgt            1           1   3.2990237135288418E-002           1      250200           0
</event>
<event>
      5   9999  3.19816E-02  2.36647E+01 -1.00000E+00  1.60557E-01
      21    -1     0     0   511   501  0.000000000E+00  0.000000000E+00  5.735560862E+01  5.735560862E+01  0.000000000E+00  0.00000E+00  9.000E+00
      21    -1     0     0   501   502  0.000000000E+00  0.000000000E+00 -6.189419892E+02  6.189419892E+02  0.000000000E+00  0.00000E+00  9.000E+00
      25     1     1     2     0     0  1.362083398E+01 -5.779893113E+01 -1.443242529E+02  1.999518280E+02  1.250000000E+02  0.00000E+00  9.000E+00
      25     1     1     2     0     0 -2.999856676E+01  4.071708447E+01 -4.291691159E+02  4.498543376E+02  1.250000000E+02  0.00000E+00  9.000E+00
      21     1     1     2   511   502  1.637773277E+01  1.708184665E+01  1.190698818E+01  2.649143227E+01  9.536743164E-07  0.00000E+00  9.000E+00
#rwgt            1           1   6.1726891984322435E-002           1      250252           0
</event>
<event>
      5   9999  3.19816E-02  9.24164E+01 -1.00000E+00  1.25388E-01
      21    -1     0     0   502   501  0.000000000E+00  0.000000000E+00  2.936883813E+02  2.936883813E+02  0.000000000E+00  0.00000E+00  9.000E+00
      21    -1     0     0   512   502  0.000000000E+00  0.000000000E+00 -1.158331570E+03  1.158331570E+03  0.000000000E+00  0.00000E+00  9.000E+00
      25     1     1     2     0     0  2.481279898E+02 -4.840621471E+02 -5.693960308E+02  7.973208272E+02  1.250000000E+02  0.00000E+00  9.000E+00
      25     1     1     2     0     0 -2.213222778E+02  3.956187211E+02 -1.721197691E+02  5.007473795E+02  1.250000000E+02  0.00000E+00  9.000E+00
      21     1     1     2   512   501 -2.680571207E+01  8.844342595E+01 -1.231273884E+02  1.539517443E+02  1.348699152E-06  0.00000E+00  9.000E+00
#rwgt            1           1   3.0113196188592640E-002           1      250362           0
</event>
<event>
      5   9999  3.19816E-02  5.17735E+01 -1.00000E+00  1.38217E-01
      21    -1     0     0   502   501  0.000000000E+00  0.000000000E+00  4.860636837E+02  4.860636837E+02  0.000000000E+00  0.00000E+00  9.000E+00
      21    -1     0     0   511   502  0.000000000E+00  0.000000000E+00 -4.069772707E+02  4.069772707E+02  0.000000000E+00  0.00000E+00  9.000E+00
      25     1     1     2     0     0 -1.151995819E+02 -1.099917641E+02  2.567280154E+02  3.269608627E+02  1.250000000E+02  0.00000E+00  9.000E+00
      25     1     1     2     0     0  1.615036895E+02  8.683093692E+01  1.279306205E+02  2.561528782E+02  1.250000000E+02  0.00000E+00  9.000E+00
      21     1     1     2   511   501 -4.630410760E+01  2.316082719E+01 -3.055722228E+02  3.099272135E+02  5.394796609E-06  0.00000E+00  9.000E+00
#rwgt            1           1   3.4211278716778024E-002           1      250431           0
</event>
<event>
      5   9999  3.19816E-02  1.25036E+02 -1.00000E+00  1.19615E-01
      21    -1     0     0   512   501  0.000000000E+00  0.000000000E+00  7.990898767E+01  7.990898767E+01  0.000000000E+00  0.00000E+00  9.000E+00
      21    -1     0     0   501   502  0.000000000E+00  0.000000000E+00 -3.135773026E+03  3.135773026E+03  0.000000000E+00  0.00000E+00  9.000E+00
      25     1     1     2     0     0  3.925219527E+02 -2.572023079E+02 -1.585734924E+03  1.658435033E+03  1.250000000E+02  0.00000E+00  9.000E+00
      25     1     1     2     0     0 -2.675963215E+02  2.519424620E+02 -1.134661419E+03  1.199234894E+03  1.250000000E+02  0.00000E+00  9.000E+00
      21     1     1     2   512   502 -1.249256311E+02  5.259845890E+00 -3.354676949E+02  3.580120859E+02  6.607249480E-06  0.00000E+00  9.000E+00
#rwgt            1           1   7.2476865148165703E-002           1      250526           0
</event>
<event>
      5   9999  3.19816E-02  5.73604E+01 -1.00000E+00  1.35756E-01
      21    -1     0     0   502   501  0.000000000E+00  0.000000000E+00  3.346795957E+01  3.346795957E+01  0.000000000E+00  0.00000E+00  9.000E+00
       2    -1     0     0   501     0  0.000000000E+00  0.000000000E+00 -2.683036450E+03  2.683036450E+03  0.000000000E+00  0.00000E+00  9.000E+00
      25     1     1     2     0     0 -6.114687817E+01  1.055607843E+01 -1.510466523E+02  2.056464506E+02  1.250000000E+02  0.00000E+00  9.000E+00
      25     1     1     2     0     0  5.507104198E+01  4.648158890E+01 -9.157562381E+02  9.270533132E+02  1.250000000E+02  0.00000E+00  9.000E+00
       2     1     1     2   502     0  6.075836190E+00 -5.703766733E+01 -1.582765600E+03  1.583804645E+03  0.000000000E+00  0.00000E+00  9.000E+00
#rwgt            1           1   3.3953125737383107E-002           1      250602           0
</event>
<event>
      5   9999  3.19816E-02  3.87075E+02 -1.00000E+00  1.02117E-01
      21    -1     0     0   502   501  0.000000000E+00  0.000000000E+00  1.172281065E+03  1.172281065E+03  0.000000000E+00  0.00000E+00  9.000E+00
      21    -1     0     0   501   511  0.000000000E+00  0.000000000E+00 -2.278867684E+02  2.278867684E+02  0.000000000E+00  0.00000E+00  9.000E+00
      25     1     1     2     0     0  5.496887408E+01 -3.765035205E+01  3.776858500E+02  4.033741779E+02  1.250000000E+02  0.00000E+00  9.000E+00
      25     1     1     2     0     0  3.046110787E+02  1.809301642E+02  4.626393122E+02  5.959729581E+02  1.250000000E+02  0.00000E+00  9.000E+00
      21     1     1     2   502   511 -3.595799528E+02 -1.432798122E+02  1.040691349E+02  4.008206979E+02  1.000222061E-05  0.00000E+00  9.000E+00
#rwgt            1           1   2.6818084129009705E-002           1      250682           0
</event>
<event>
      5   9999  3.19816E-02  2.37089E+01 -1.00000E+00  1.60495E-01
      21    -1     0     0   502   501  0.000000000E+00  0.000000000E+00  6.634629952E+01  6.634629952E+01  0.000000000E+00  0.00000E+00  9.000E+00
      21    -1     0     0   501   512  0.000000000E+00  0.000000000E+00 -1.921281567E+03  1.921281567E+03  0.000000000E+00  0.00000E+00  9.000E+00
      25     1     1     2     0     0 -4.653112826E+01  3.077171467E+02 -6.375502971E+02  7.203820997E+02  1.250000000E+02  0.00000E+00  9.000E+00
      25     1     1     2     0     0  2.341463531E+01 -3.024505164E+02 -1.144595235E+03  1.190692156E+03  1.250000000E+02  0.00000E+00  9.000E+00
      21     1     1     2   502   512  2.311649295E+01 -5.266630335E+00 -7.278973575E+01  7.655361045E+01  0.000000000E+00  0.00000E+00  9.000E+00
#rwgt            1           1   3.0905444329530886E-002           1      250714           0
</event>
<event>
      5   9999  3.19816E-02  2.32996E+02 -1.00000E+00  1.09286E-01
      21    -1     0     0   502   501  0.000000000E+00  0.000000000E+00  4.657788018E+02  4.657788018E+02  0.000000000E+00  0.00000E+00  9.000E+00
      21    -1     0     0   511   502  0.000000000E+00  0.000000000E+00 -4.565017915E+02  4.565017915E+02  0.000000000E+00  0.00000E+00  9.000E+00
      25     1     1     2     0     0  1.211693013E+02  2.642039058E+02  2.687050532E+02  4.151061419E+02  1.250000000E+02  0.00000E+00  9.000E+00
      25     1     1     2     0     0 -1.430900271E+02 -3.224129374E+01 -6.398256804E+01  2.030591685E+02  1.250000000E+02  0.00000E+00  9.000E+00
      21     1     1     2   511   501  2.192072588E+01 -2.319626121E+02 -1.954454749E+02  3.041152829E+02  4.672030912E-06  0.00000E+00  9.000E+00
#rwgt            2          11   3.8149687260621611E-003           1      250831           0
</event>
<event>
      5   9999  3.19816E-02  3.74790E+01 -1.00000E+00  1.46616E-01
      21    -1     0     0   512   501  0.000000000E+00  0.000000000E+00  6.632215507E+01  6.632215507E+01  0.000000000E+00  0.00000E+00  9.000E+00
      21    -1     0     0   501   502  0.000000000E+00  0.000000000E+00 -1.383332238E+03  1.383332238E+03  0.000000000E+00  0.00000E+00  9.000E+00
      25     1     1     2     0     0 -1.331580568E+01  1.146659854E+02 -1.193831684E+03  1.205895803E+03  1.250000000E+02  0.00000E+00  9.000E+00
      25     1     1     2     0     0 -1.734725749E+01 -9.311481208E+01 -1.323042047E+02  2.051845466E+02  1.250000000E+02  0.00000E+00  9.000E+00
      21     1     1     2   512   502  3.066306317E+01 -2.155117333E+01  9.125805317E+00  3.857404357E+01  1.099055345E-06  0.00000E+00  9.000E+00
#rwgt            1           1   2.9695515098344359E-002           1      250881           0
</event>
<event>
      5   9999  3.19816E-02  4.15803E+01 -1.00000E+00  1.43804E-01
      21    -1     0     0   502   501  0.000000000E+00  0.000000000E+00  1.054507174E+02  1.054507174E+02  0.000000000E+00  0.00000E+00  9.000E+00
       1    -1     0     0   501     0  0.000000000E+00  0.000000000E+00 -7.534566992E+02  7.534566992E+02  0.000000000E+00  0.00000E+00  9.000E+00
      25     1     1     2     0     0  1.185784903E+02  7.398768247E+01 -3.673036847E+02  4.123979054E+02  1.250000000E+02  0.00000E+00  9.000E+00
      25     1     1     2     0     0 -1.599060866E+02 -6.941002774E+01 -6.114593445E+01  2.230505184E+02  1.250000000E+02  0.00000E+00  9.000E+00
       1     1     1     2   502     0  4.132759626E+01 -4.577654735E+00 -2.195563626E+02  2.234589929E+02  2.697398305E-06  0.00000E+00  9.000E+00
#rwgt            1           1   2.3483602235804001E-002           1      251011           0
</event>
<event>
      5   9999  3.19816E-02  1.20788E+02 -1.00000E+00  1.20248E-01
      21    -1     0     0   502   501  0.000000000E+00  0.000000000E+00  6.980545487E+01  6.980545487E+01  0.000000000E+00  0.00000E+00  9.000E+00
      21    -1     0     0   501   511  0.000000000E+00  0.000000000E+00 -1.084697434E+03  1.084697434E+03  0.000000000E+00  0.00000E+00  9.000E+00
      25     1     1     2     0     0 -2.073233640E+01 -1.126597039E+02 -4.962647652E+02  5.244289807E+02  1.250000000E+02  0.00000E+00  9.000E+00
      25     1     1     2     0     0  6.104420921E+01 -1.202628735E+00 -5.272825459E+01  1.487720089E+02  1.250000000E+02  0.00000E+00  9.000E+00
      21     1     1     2   502   511 -4.031187282E+01  1.138623327E+02 -4.658989590E+02  4.813018990E+02  5.394796609E-06  0.00000E+00  9.000E+00
#rwgt            1           1   3.0252967256187476E-002           1      251109           0
</event>
<event>
      5   9999  3.19816E-02  5.05510E+01 -1.00000E+00  1.38805E-01
      21    -1     0     0   502   512  0.000000000E+00  0.000000000E+00  8.066728480E+02  8.066728480E+02  0.000000000E+00  0.00000E+00  9.000E+00
      21    -1     0     0   501   502  0.000000000E+00  0.000000000E+00 -1.446213128E+03  1.446213128E+03  0.000000000E+00  0.00000E+00  9.000E+00
      25     1     1     2     0     0 -7.453232393E+01  3.571896011E+02 -1.153572057E+03  1.216344100E+03  1.250000000E+02  0.00000E+00  9.000E+00
      25     1     1     2     0     0  8.534093349E+01 -3.078076786E+02 -1.472881617E+02  3.732927062E+02  1.250000000E+02  0.00000E+00  9.000E+00
      21     1     1     2   501   512 -1.080860957E+01 -4.938192253E+01  6.613199386E+02  6.632491700E+02  1.078959322E-05  0.00000E+00  9.000E+00
#rwgt            2          11   6.5000029033522927E-003           1      251147           0
</event>
<event>
      5   9999  3.19816E-02  1.58584E+01 -1.00000E+00  1.75137E-01
      21    -1     0     0   502   501  0.000000000E+00  0.000000000E+00  3.204482128E+02  3.204482128E+02  0.000000000E+00  0.00000E+00  9.000E+00
      21    -1     0     0   511   502  0.000000000E+00  0.000000000E+00 -3.179519981E+02  3.179519981E+02  0.000000000E+00  0.00000E+00  9.000E+00
      25     1     1     2     0     0  1.677272522E+02  1.360529892E+02  8.593432639E+01  2.639177059E+02  1.250000000E+02  0.00000E+00  9.000E+00
      25     1     1     2     0     0 -1.823600594E+02 -1.421660735E+02  2.578504649E+01  2.641140896E+02  1.250000000E+02  0.00000E+00  9.000E+00
      21     1     1     2   511   501  1.463280713E+01  6.113084273E+00 -1.092231582E+02  1.103684154E+02  1.348699152E-06  0.00000E+00  9.000E+00
#rwgt            1           1   2.6142843535460206E-002           1      251167           0
</event>
<event>
      5   9999  3.19816E-02  1.21893E+02 -1.00000E+00  1.20080E-01
      21    -1     0     0   502   501  0.000000000E+00  0.000000000E+00  1.220807380E+02  1.220807380E+02  0.000000000E+00  0.00000E+00  9.000E+00
      21    -1     0     0   512   502  0.000000000E+00  0.000000000E+00 -8.095249654E+02  8.095249654E+02  0.000000000E+00  0.00000E+00  9.000E+00
      25     1     1     2     0     0 -1.031281873E+02 -6.545148062E+00 -1.085377338E+01  1.625455825E+02  1.250000000E+02  0.00000E+00  9.000E+00
      25     1     1     2     0     0  1.861265246E+02 -8.272524434E+01 -5.037395636E+02  5.575527753E+02  1.250000000E+02  0.00000E+00  9.000E+00
      21     1     1     2   512   501 -8.299833731E+01  8.927039240E+01 -1.728508903E+02  2.115073456E+02  2.697398305E-06  0.00000E+00  9.000E+00
#rwgt            1           1   2.7036312514749705E-002           1      251373           0
</event>
<event>
      5   9999  3.19816E-02  1.63316E+02 -1.00000E+00  1.14948E-01
      21    -1     0     0   511   501  0.000000000E+00  0.000000000E+00  8.947872721E+02  8.947872721E+02  0.000000000E+00  0.00000E+00  9.000E+00
      21    -1     0     0   501   502  0.000000000E+00  0.000000000E+00 -9.379340379E+02  9.379340379E+02  0.000000000E+00  0.00000E+00  9.000E+00
      25     1     1     2     0     0 -6.902612784E+01 -1.210064849E+02 -1.746609489E+02  2.560051226E+02  1.250000000E+02  0.00000E+00  9.000E+00
      25     1     1     2     0     0 -9.326064056E+01  1.027025113E+02 -7.024831017E+02  7.268788490E+02  1.250000000E+02  0.00000E+00  9.000E+00
      21     1     1     2   511   502  1.622867684E+02  1.830397365E+01  8.339972848E+02  8.498373384E+02  1.078959322E-05  0.00000E+00  9.000E+00
#rwgt            1           1   3.3052181606364160E-002           1      251428           0
</event>
<event>
      5   9999  3.19816E-02  3.32762E+01 -1.00000E+00  1.49978E-01
      21    -1     0     0   502   501  0.000000000E+00  0.000000000E+00  1.775777063E+03  1.775777063E+03  0.000000000E+00  0.00000E+00  9.000E+00
      21    -1     0     0   512   502  0.000000000E+00  0.000000000E+00 -1.074021708E+03  1.074021708E+03  0.000000000E+00  0.00000E+00  9.000E+00
      25     1     1     2     0     0  1.343430412E+02  4.765171049E+02  1.128879043E+03  1.238995359E+03  1.250000000E+02  0.00000E+00  9.000E+00
      25     1     1     2     0     0 -1.664276866E+02 -4.676919263E+02  4.807813024E+02  7.022888106E+02  1.250000000E+02  0.00000E+00  9.000E+00
      21     1     1     2   512   501  3.208464544E+01 -8.825178629E+00 -9.079049915E+02  9.085146019E+02  1.525878906E-05  0.00000E+00  9.000E+00
#rwgt            1           1   2.8254726414981422E-002           1      251499           0
</event>
<event>
      5   9999  3.19816E-02  5.96943E+01 -1.00000E+00  1.34822E-01
      21    -1     0     0   502   501  0.000000000E+00  0.000000000E+00  4.441964986E+03  4.441964986E+03  0.000000000E+00  0.00000E+00  9.000E+00
      -1    -1     0     0     0   502  0.000000000E+00  0.000000000E+00 -9.707015394E+00  9.707015394E+00  0.000000000E+00  0.00000E+00  9.000E+00
      25     1     1     2     0     0  8.569243623E+00  1.537771360E+02  2.169431941E+03  2.178481302E+03  1.250000000E+02  0.00000E+00  9.000E+00
      25     1     1     2     0     0 -6.936342288E+00 -9.410522254E+01  1.565817227E+03  1.573630355E+03  1.250000000E+02  0.00000E+00  9.000E+00
      -1     1     1     2     0   501 -1.632901335E+00 -5.967191342E+01  6.970088031E+02  6.995603442E+02  1.078959322E-05  0.00000E+00  9.000E+00
#rwgt            1           1   6.8543607845786827E-003           1      251595           0
</event>
<event>
      5   9999  3.19816E-02  2.61348E+01 -1.00000E+00  1.57320E-01
      21    -1     0     0   511   501  0.000000000E+00  0.000000000E+00  1.542243400E+02  1.542243400E+02  0.000000000E+00  0.00000E+00  9.000E+00
      21    -1     0     0   501   502  0.000000000E+00  0.000000000E+00 -9.550100534E+02  9.550100534E+02  0.000000000E+00  0.00000E+00  9.000E+00
      25     1     1     2     0     0 -1.255787130E+02  2.803705179E+02 -5.892336745E+02  6.761648938E+02  1.250000000E+02  0.00000E+00  9.000E+00
      25     1     1     2     0     0  1.501265425E+02 -2.893388490E+02 -2.088026881E+02  4.067904999E+02  1.250000000E+02  0.00000E+00  9.000E+00
      21     1     1     2   511   502 -2.454782948E+01  8.968331049E+00 -2.749350835E+00  2.627899967E+01  3.851308818E-07  0.00000E+00  9.000E+00
#rwgt            1           1   2.9015233338264928E-002           1      251648           0
</event>
<event>
      5   9999  3.19816E-02  4.00020E+02 -1.00000E+00  1.01685E-01
      -3    -1     0     0     0   501  0.000000000E+00  0.000000000E+00  3.207823714E+02  3.207823714E+02  0.000000000E+00  0.00000E+00  9.000E+00
      21    -1     0     0   501   502  0.000000000E+00  0.000000000E+00 -1.918484119E+03  1.918484119E+03  0.000000000E+00  0.00000E+00  9.000E+00
      25     1     1     2     0     0  2.861175086E+02  4.998185196E+02 -6.263168119E+02  8.599880988E+02  1.250000000E+02  0.00000E+00  9.000E+00
      25     1     1     2     0     0 -8.248415027E+01 -1.555084950E+02 -9.548107392E+02  9.789152542E+02  1.250000000E+02  0.00000E+00  9.000E+00
      -3     1     1     2     0   502 -2.036333583E+02 -3.443100246E+02 -1.657419624E+01  4.003631372E+02  2.466220959E-06  0.00000E+00  9.000E+00
#rwgt            1           1   2.8676680793881203E-002           1      251772           0
</event>
<event>
      5   9999  3.19816E-02  1.58910E+02 -1.00000E+00  1.15409E-01
      21    -1     0     0   511   501  0.000000000E+00  0.000000000E+00  1.627118719E+03  1.627118719E+03  0.000000000E+00  0.00000E+00  9.000E+00
      21    -1     0     0   501   502  0.000000000E+00  0.000000000E+00 -1.806890759E+02  1.806890759E+02  0.000000000E+00  0.00000E+00  9.000E+00
      25     1     1     2     0     0  4.190521185E+02  6.852707863E+01  2.816750171E+02  5.246584163E+02  1.250000000E+02  0.00000E+00  9.000E+00
      25     1     1     2     0     0 -3.053451237E+02 -1.795360311E+02  8.849415248E+02  9.613611877E+02  1.250000000E+02  0.00000E+00  9.000E+00
      21     1     1     2   511   502 -1.137069948E+02  1.110089524E+02  2.798131012E+02  3.217881909E+02  5.394796609E-06  0.00000E+00  9.000E+00
#rwgt            2          11   4.4185653385333664E-003           1      251844           0
</event>
<event>
      5   9999  3.19816E-02  8.77851E+01 -1.00000E+00  1.26427E-01
       2    -1     0     0   502     0  0.000000000E+00  0.000000000E+00  2.477865470E+03  2.477865470E+03  0.000000000E+00  0.00000E+00  9.000E+00
      21    -1     0     0   501   502  0.000000000E+00  0.000000000E+00 -1.442708611E+02  1.442708611E+02  0.000000000E+00  0.00000E+00  9.000E+00
      25     1     1     2     0     0  7.084651191E+01  1.508023056E+02  8.834204449E+01  2.262518076E+02  1.250000000E+02  0.00000E+00  9.000E+00
      25     1     1     2     0     0 -1.471610468E+02 -1.941879376E+02  1.776511287E+02  3.264203613E+02  1.250000000E+02  0.00000E+00  9.000E+00
       2     1     1     2   501     0  7.631453485E+01  4.338563197E+01  2.067601436E+03  2.069464162E+03  3.051757812E-05  0.00000E+00  9.000E+00
#rwgt            1           1   2.9205251681790251E-002           1      251879           0
</event>
<event>
      5   9999  3.19816E-02  2.18702E+01 -1.00000E+00  1.63228E-01
       2    -1     0     0   502     0  0.000000000E+00  0.000000000E+00  2.364391592E+02  2.364391592E+02  0.000000000E+00  0.00000E+00  9.000E+00
      21    -1     0     0   501   502  0.000000000E+00  0.000000000E+00 -5.723381076E+02  5.723381076E+02  0.000000000E+00  0.00000E+00  9.000E+00
      25     1     1     2     0     0  1.133217653E+02  1.938816561E+02  8.183584915E+00  2.571456594E+02  1.250000000E+02  0.00000E+00  9.000E+00
      25     1     1     2     0     0 -1.095419184E+02 -2.154227104E+02 -4.044335383E+02  4.874401122E+02  1.250000000E+02  0.00000E+00  9.000E+00
       2     1     1     2   501     0 -3.779846929E+00  2.154105426E+01  6.035100498E+01  6.419149526E+01  1.168007728E-06  0.00000E+00  9.000E+00
#rwgt            1           1   3.0418589440839167E-002           1      251946           0
</event>
<event>
      5   9999  3.19816E-02  1.05265E+02 -1.00000E+00  1.22834E-01
      21    -1     0     0   511   501  0.000000000E+00  0.000000000E+00  1.126531372E+03  1.126531372E+03  0.000000000E+00  0.00000E+00  9.000E+00
      21    -1     0     0   501   502  0.000000000E+00  0.000000000E+00 -2.472611151E+02  2.472611151E+02  0.000000000E+00  0.00000E+00  9.000E+00
      25     1     1     2     0     0 -1.095670249E+01  1.678808079E+02  9.536516685E+02  9.764120645E+02  1.250000000E+02  0.00000E+00  9.000E+00
      25     1     1     2     0     0  5.393263898E+01 -7.178867648E+01 -1.876882451E+02  2.427225185E+02  1.250000000E+02  0.00000E+00  9.000E+00
      21     1     1     2   511   502 -4.297593649E+01 -9.609213141E+01  1.133068339E+02  1.546579046E+02  2.697398305E-06  0.00000E+00  9.000E+00
#rwgt            2          11   5.2616892070136744E-003           1      252181           0
</event>
<event>
      5   9999  3.19816E-02  1.84792E+02 -1.00000E+00  1.12913E-01
       2    -1     0     0   502     0  0.000000000E+00  0.000000000E+00  2.261414421E+03  2.261414421E+03  0.000000000E+00  0.00000E+00  9.000E+00
      21    -1     0     0   501   502  0.000000000E+00  0.000000000E+00 -4.889802827E+02  4.889802827E+02  0.000000000E+00  0.00000E+00  9.000E+00
      25     1     1     2     0     0 -7.576130778E+02  6.023515104E+02  6.596870405E+02  1.177971523E+03  1.250000000E+02  0.00000E+00  9.000E+00
      25     1     1     2     0     0  5.898366305E+02 -6.798061020E+02  1.018716516E+03  1.365083121E+03  1.250000000E+02  0.00000E+00  9.000E+00
       2     1     1     2   501     0  1.677764473E+02  7.745459161E+01  9.403058159E+01  2.073400596E+02  2.336015456E-06  0.00000E+00  9.000E+00
#rwgt            1           1   3.5242212624331248E-002           1      252231           0
</event>
<event>
      5   9999  3.19816E-02  9.05715E+00 -1.00000E+00  2.00864E-01
      21    -1     0     0   502   511  0.000000000E+00  0.000000000E+00  4.587295446E+02  4.587295446E+02  0.000000000E+00  0.00000E+00  9.000E+00
      21    -1     0     0   501   502  0.000000000E+00  0.000000000E+00 -8.750514391E+01  8.750514391E+01  0.000000000E+00  0.00000E+00  9.000E+00
      25     1     1     2     0     0 -4.516027465E+01  8.950617623E+01  2.771154652E+02  3.201074617E+02  1.250000000E+02  0.00000E+00  9.000E+00
      25     1     1     2     0     0  3.960911302E+01 -9.666275412E+01  3.537648546E+01  1.667005267E+02  1.250000000E+02  0.00000E+00  9.000E+00
      21     1     1     2   501   511  5.551161625E+00  7.156577889E+00  5.873244999E+01  5.942670010E+01  6.743495762E-07  0.00000E+00  9.000E+00
#rwgt            1           1   3.0174294123003209E-002           1      252284           0
</event>
<event>
      5   9999  3.19816E-02  3.93533E+01 -1.00000E+00  1.45281E-01
      21    -1     0     0   502   501  0.000000000E+00  0.000000000E+00  3.448551257E+02  3.448551257E+02  0.000000000E+00  0.00000E+00  9.000E+00
      21    -1     0     0   501   512  0.000000000E+00  0.000000000E+00 -2.652819018E+02  2.652819018E+02  0.000000000E+00  0.00000E+00  9.000E+00
      25     1     1     2     0     0 -2.124523167E+01  1.365431077E+02  2.570185549E+02  3.174569540E+02  1.250000000E+02  0.00000E+00  9.000E+00
      25     1     1     2     0     0  2.458372849E+01 -9.733169474E+01 -6.403559089E+01  1.726365413E+02  1.250000000E+02  0.00000E+00  9.000E+00
      21     1     1     2   502   512 -3.338496822E+00 -3.921141292E+01 -1.134097401E+02  1.200435321E+02  0.000000000E+00  0.00000E+00  9.000E+00
#rwgt            1           1   2.7259227555210111E-002           1      252505           0
</event>
<event>
      5   9999  3.19816E-02  3.46584E+01 -1.00000E+00  1.48810E-01
      21    -1     0     0   502   501  0.000000000E+00  0.000000000E+00  9.011578879E+01  9.011578879E+01  0.000000000E+00  0.00000E+00  9.000E+00
      21    -1     0     0   511   502  0.000000000E+00  0.000000000E+00 -8.003670835E+02  8.003670835E+02  0.000000000E+00  0.00000E+00  9.000E+00
      25     1     1     2     0     0  1.364419729E+02  6.884074868E+01 -3.183455452E+02  3.745989145E+02  1.250000000E+02  0.00000E+00  9.000E+00
      25     1     1     2     0     0 -1.595388507E+02 -4.300014152E+01 -1.152877625E+02  2.371031953E+02  1.250000000E+02  0.00000E+00  9.000E+00
      21     1     1     2   511   501  2.309687778E+01 -2.584060716E+01 -2.766179870E+02  2.787807624E+02  3.814697266E-06  0.00000E+00  9.000E+00
#rwgt            1           1   2.8460850633661119E-002           1      252595           0
</event>
<event>
      5   9999  3.19816E-02  2.21059E+02 -1.00000E+00  1.10088E-01
      21    -1     0     0   502   501  0.000000000E+00  0.000000000E+00  6.818089759E+02  6.818089759E+02  0.000000000E+00  0.00000E+00  9.000E+00
      21    -1     0     0   512   502  0.000000000E+00  0.000000000E+00 -7.587894615E+02  7.587894615E+02  0.000000000E+00  0.00000E+00  9.000E+00
      25     1     1     2     0     0  4.835755393E+01  1.564397269E+02  4.997750665E+02  5.405663311E+02  1.250000000E+02  0.00000E+00  9.000E+00
      25     1     1     2     0     0 -8.616246311E+01 -3.742422109E+02 -1.722484404E+02  4.390623278E+02  1.250000000E+02  0.00000E+00  9.000E+00
      21     1     1     2   512   501  3.780490918E+01  2.178024840E+02 -4.045071118E+02  4.609697785E+02  0.000000000E+00  0.00000E+00  9.000E+00
#rwgt            1           1   3.3129250310816372E-002           1      252706           0
</event>
<event>
      5   9999  3.19816E-02  8.76323E+01 -1.00000E+00  1.26463E-01
       2    -1     0     0   502     0  0.000000000E+00  0.000000000E+00  8.004997616E+02  8.004997616E+02  0.000000000E+00  0.00000E+00  9.000E+00
      21    -1     0     0   501   502  0.000000000E+00  0.000000000E+00 -2.842424856E+02  2.842424856E+02  0.000000000E+00  0.00000E+00  9.000E+00
      25     1     1     2     0     0  2.369991975E+02 -3.141455585E+02  1.457706239E+01  4.131507501E+02  1.250000000E+02  0.00000E+00  9.000E+00
      25     1     1     2     0     0 -1.557433982E+02  2.813292861E+02  3.231254161E+02  4.726914510E+02  1.250000000E+02  0.00000E+00  9.000E+00
       2     1     1     2   501     0 -8.125579926E+01  3.281627244E+01  1.785547975E+02  1.989000462E+02  1.907348633E-06  0.00000E+00  9.000E+00
#rwgt            1           1   2.8289845554232560E-002           1      252777           0
</event>
<event>
      5   9999  3.19816E-02  3.81380E+01 -1.00000E+00  1.46136E-01
      21    -1     0     0   502   501  0.000000000E+00  0.000000000E+00  3.404245929E+02  3.404245929E+02  0.000000000E+00  0.00000E+00  9.000E+00
      21    -1     0     0   511   502  0.000000000E+00  0.000000000E+00 -7.561923247E+02  7.561923247E+02  0.000000000E+00  0.00000E+00  9.000E+00
      25     1     1     2     0     0 -1.434630633E+02  5.857310045E+01  8.518358856E+01  2.165495380E+02  1.250000000E+02  0.00000E+00  9.000E+00
      25     1     1     2     0     0  1.108514259E+02 -7.834648365E+01  1.439521233E+02  2.340372277E+02  1.250000000E+02  0.00000E+00  9.000E+00
      21     1     1     2   511   501  3.261163738E+01  1.977338320E+01 -6.449034437E+02  6.460301519E+02  1.321449896E-05  0.00000E+00  9.000E+00
#rwgt            1           1   2.5963033863191987E-002           1      252834           0
</event>
<event>
      5   9999  3.19816E-02  3.14342E+01 -1.00000E+00  1.51644E-01
      21    -1     0     0   502   512  0.000000000E+00  0.000000000E+00  1.381576888E+02  1.381576888E+02  0.000000000E+00  0.00000E+00  9.000E+00
      21    -1     0     0   501   502  0.000000000E+00  0.000000000E+00 -8.464117032E+02  8.464117032E+02  0.000000000E+00  0.00000E+00  9.000E+00
      25     1     1     2     0     0 -1.271920258E+02  1.028969291E+02 -5.633710856E+02  5.998146127E+02  1.250000000E+02  0.00000E+00  9.000E+00
      25     1     1     2     0     0  1.066266769E+02 -7.912354434E+01 -2.302888545E+02  2.937477490E+02  1.250000000E+02  0.00000E+00  9.000E+00
      21     1     1     2   501   512  2.056534882E+01 -2.377338481E+01  8.540592586E+01  9.100703033E+01  1.651812370E-06  0.00000E+00  9.000E+00
#rwgt            1           1   2.7952491080002945E-002           1      252912           0
</event>
<event>
      5   9999  3.19816E-02  5.21224E+01 -1.00000E+00  1.38053E-01
      21    -1     0     0   511   501  0.000000000E+00  0.000000000E+00  1.589636848E+03  1.589636848E+03  0.000000000E+00  0.00000E+00  9.000E+00
      21    -1     0     0   501   502  0.000000000E+00  0.000000000E+00 -9.878265918E+02  9.878265918E+02  0.000000000E+00  0.00000E+00  9.000E+00
      25     1     1     2     0     0  6.958771196E+02 -4.002507999E+02 -2.458319571E+02  8.488250818E+02  1.250000000E+02  0.00000E+00  9.000E+00
      25     1     1     2     0     0 -7.047713623E+02  4.516087717E+02 -3.249823753E+01  8.469558969E+02  1.250000000E+02  0.00000E+00  9.000E+00
      21     1     1     2   511   502  8.894242709E+00 -5.135797180E+01  8.801404512E+02  8.816824613E+02  1.078959322E-05  0.00000E+00  9.000E+00
#rwgt            1           1   2.8965667416694835E-002           1      253008           0
</event>
<event>
      5   9999  3.19816E-02  9.25728E+01 -1.00000E+00  1.25354E-01
      21    -1     0     0   502   501  0.000000000E+00  0.000000000E+00  1.498097605E+02  1.498097605E+02  0.000000000E+00  0.00000E+00  9.000E+00
      21    -1     0     0   512   502  0.000000000E+00  0.000000000E+00 -1.955480880E+03  1.955480880E+03  0.000000000E+00  0.00000E+00  9.000E+00
      25     1     1     2     0     0  6.403724238E+01  4.431419579E+02 -6.392798794E+02  7.904298372E+02  1.250000000E+02  0.00000E+00  9.000E+00
      25     1     1     2     0     0  1.098117363E+01 -3.889020314E+02 -5.174592712E+02  6.593591385E+02  1.250000000E+02  0.00000E+00  9.000E+00
      21     1     1     2   512   501 -7.501841601E+01 -5.423992649E+01 -6.489319691E+02  6.555016650E+02  7.629394531E-06  0.00000E+00  9.000E+00
#rwgt            1           1   2.7692954044164796E-002           1      253154           0
</event>
<event>
      5   9999  3.19816E-02  2.26268E+02 -1.00000E+00  1.09731E-01
      21    -1     0     0   502   501  0.000000000E+00  0.000000000E+00  4.343929298E+02  4.343929298E+02  0.000000000E+00  0.00000E+00  9.000E+00
      21    -1     0     0   501   511  0.000000000E+00  0.000000000E+00 -2.219283532E+03  2.219283532E+03  0.000000000E+00  0.00000E+00  9.000E+00
      25     1     1     2     0     0 -6.324266402E+02  4.848931705E+02 -7.424688144E+02  1.096343825E+03  1.250000000E+02  0.00000E+00  9.000E+00
      25     1     1     2     0     0  4.062424692E+02 -4.910374458E+02 -1.918607566E+02  6.771899784E+02  1.250000000E+02  0.00000E+00  9.000E+00
      21     1     1     2   502   511  2.261841710E+02  6.144275336E+00 -8.505610311E+02  8.801426583E+02  1.078959322E-05  0.00000E+00  9.000E+00
#rwgt            1           1   2.8380833725867426E-002           1      253240           0
</event>
<event>
      5   9999  3.19816E-02  2.29409E+01 -1.00000E+00  1.61599E-01
      21    -1     0     0   512   501  0.000000000E+00  0.000000000E+00  2.482926142E+02  2.482926142E+02  0.000000000E+00  0.00000E+00  9.000E+00
      21    -1     0     0   501   502  0.000000000E+00  0.000000000E+00 -3.440654493E+02  3.440654493E+02  0.000000000E+00  0.00000E+00  9.000E+00
      25     1     1     2     0     0  1.802421302E+02  5.801545001E+00  7.438385597E+01  2.316869471E+02  1.250000000E+02  0.00000E+00  9.000E+00
      25     1     1     2     0     0 -1.780771773E+02  1.703695823E+01 -2.174691496E+02  3.080901979E+02  1.250000000E+02  0.00000E+00  9.000E+00
      21     1     1     2   512   502 -2.164952932E+00 -2.283850323E+01  4.731245854E+01  5.258091844E+01  9.536743164E-07  0.00000E+00  9.000E+00
#rwgt            1           1   2.8372284838182882E-002           1      253297           0
</event>
<event>
      5   9999  3.19816E-02  1.37439E+02 -1.00000E+00  1.17919E-01
      21    -1     0     0   502   501  0.000000000E+00  0.000000000E+00  5.595567575E+02  5.595567575E+02  0.000000000E+00  0.00000E+00  9.000E+00
      21    -1     0     0   501   511  0.000000000E+00  0.000000000E+00 -3.465164940E+02  3.465164940E+02  0.000000000E+00  0.00000E+00  9.000E+00
      25     1     1     2     0     0  1.887188391E+02 -4.112082883E+01  4.690353068E+02  5.224220916E+02  1.250000000E+02  0.00000E+00  9.000E+00
      25     1     1     2     0     0 -6.666193331E+01 -2.205858341E+01 -9.509407101E+01  1.720414973E+02  1.250000000E+02  0.00000E+00  9.000E+00
      21     1     1     2   502   511 -1.220569058E+02  6.317941224E+01 -1.609009724E+02  2.116096625E+02  0.000000000E+00  0.00000E+00  9.000E+00
#rwgt            1           1   3.1403501170544461E-002           1      253463           0
</event>
<event>
      5   9999  3.19816E-02  5.46763E+01 -1.00000E+00  1.36896E-01
      21    -1     0     0   502   501  0.000000000E+00  0.000000000E+00  5.480108083E+01  5.480108083E+01  0.000000000E+00  0.00000E+00  9.000E+00
      21    -1     0     0   512   502  0.000000000E+00  0.000000000E+00 -1.053810748E+03  1.053810748E+03  0.000000000E+00  0.00000E+00  9.000E+00
      25     1     1     2     0     0  1.355222284E+02 -6.399025586E+01 -2.083740812E+02  2.854921802E+02  1.250000000E+02  0.00000E+00  9.000E+00
      25     1     1     2     0     0 -8.728179923E+01  3.825398276E+01 -4.195480232E+02  4.480256951E+02  1.250000000E+02  0.00000E+00  9.000E+00
      21     1     1     2   512   501 -4.824042915E+01  2.573627309E+01 -3.710875629E+02  3.750939537E+02  5.394796609E-06  0.00000E+00  9.000E+00
#rwgt            1           1   3.9922591217230331E-002           1      253501           0
</event>
<event>
      5   9999  3.19816E-02  7.33836E+00 -1.00000E+00  2.12696E-01
      21    -1     0     0   502   501  0.000000000E+00  0.000000000E+00  1.067787240E+03  1.067787240E+03  0.000000000E+00  0.00000E+00  9.000E+00
      21    -1     0     0   501   511  0.000000000E+00  0.000000000E+00 -1.612334110E+02  1.612334110E+02  0.000000000E+00  0.00000E+00  9.000E+00
      25     1     1     2     0     0 -3.284807347E+02 -1.314856980E+02  7.139906128E+02  8.065951134E+02  1.250000000E+02  0.00000E+00  9.000E+00
      25     1     1     2     0     0  3.216254026E+02  1.288673236E+02  1.862809906E+02  4.127654227E+02  1.250000000E+02  0.00000E+00  9.000E+00
      21     1     1     2   502   511  6.855332069E+00  2.618374460E+00  6.282225932E+00  9.660115178E+00  0.000000000E+00  0.00000E+00  9.000E+00
#rwgt            2          11   1.9287730951213730E-003           1      253580           0
</event>
<event>
      5   9999  3.19816E-02  4.16470E+01 -1.00000E+00  1.43762E-01
      21    -1     0     0   502   501  0.000000000E+00  0.000000000E+00  1.561400283E+03  1.561400283E+03  0.000000000E+00  0.00000E+00  9.000E+00
      21    -1     0     0   512   502  0.000000000E+00  0.000000000E+00 -6.303527402E+01  6.303527402E+01  0.000000000E+00  0.00000E+00  9.000E+00
      25     1     1     2     0     0 -4.892938402E+01 -1.919102046E+02  1.064728408E+03  1.090181266E+03  1.250000000E+02  0.00000E+00  9.000E+00
      25     1     1     2     0     0  3.489653179E+01  2.311218244E+02  3.349770796E+02  4.271647334E+02  1.250000000E+02  0.00000E+00  9.000E+00
      21     1     1     2   512   501  1.403285223E+01 -3.921161979E+01  9.865952199E+01  1.070895576E+02  1.348699152E-06  0.00000E+00  9.000E+00
#rwgt            1           1   2.6649307085541033E-002           1      253600           0
</event>
<event>
      5   9999  3.20001E-02  2.98491E+02 -1.00000E+00  1.05663E-01
      21    -1     0     0   502   501  0.000000000E+00  0.000000000E+00  1.795024518E+03  1.795024518E+03  0.000000000E+00  0.00000E+00  9.000E+00
      21    -1     0     0   511   502  0.000000000E+00  0.000000000E+00 -1.202398751E+03  1.202398751E+03  0.000000000E+00  0.00000E+00  9.000E+00
      25     1     1     2     0     0 -2.171794845E+02 -1.896992450E+02 -7.074618280E+02  7.741317525E+02  1.250000000E+02  0.00000E+00  9.000E+00
      25     1     1     2     0     0  1.608826466E+01  4.102874020E+02  1.683520700E+03  1.737372018E+03  1.250000000E+02  0.00000E+00  9.000E+00
      21     1     1     2   511   501  2.010912199E+02 -2.205881571E+02 -3.834331037E+02  4.859194982E+02  5.394796609E-06  0.00000E+00  9.000E+00
#rwgt            1           1   7.3756258461843180E-002           1      253705           0
</event>
<event>
      5   9999  3.19816E-02  1.39705E+02 -1.00000E+00  1.17631E-01
      21    -1     0     0   502   512  0.000000000E+00  0.000000000E+00  1.599099157E+02  1.599099157E+02  0.000000000E+00  0.00000E+00  9.000E+00
      21    -1     0     0   501   502  0.000000000E+00  0.000000000E+00 -1.065486720E+03  1.065486720E+03  0.000000000E+00  0.00000E+00  9.000E+00
      25     1     1     2     0     0  1.431194443E+01  1.967755993E+02 -7.881546609E+02  8.220329906E+02  1.250000000E+02  0.00000E+00  9.000E+00
      25     1     1     2     0     0 -1.461372984E+02 -1.505204114E+02 -5.488060343E+01  2.502985914E+02  1.250000000E+02  0.00000E+00  9.000E+00
      21     1     1     2   501   512  1.318253539E+02 -4.625518795E+01 -6.254153949E+01  1.530650532E+02  2.236564522E-06  0.00000E+00  9.000E+00
#rwgt            1           1   2.8426614249548281E-002           1      253811           0
</event>
<event>
      5   9999  3.19816E-02  7.77564E+01 -1.00000E+00  1.28950E-01
      21    -1     0     0   502   501  0.000000000E+00  0.000000000E+00  1.986309300E+03  1.986309300E+03  0.000000000E+00  0.00000E+00  9.000E+00
      21    -1     0     0   501   511  0.000000000E+00  0.000000000E+00 -4.090774972E+02  4.090774972E+02  0.000000000E+00  0.00000E+00  9.000E+00
      25     1     1     2     0     0 -1.997958886E+02  5.291527763E+02  1.175107421E+03  1.310123471E+03  1.250000000E+02  0.00000E+00  9.000E+00
      25     1     1     2     0     0  2.262326119E+02 -4.560284663E+02  6.444819892E+02  8.307377391E+02  1.250000000E+02  0.00000E+00  9.000E+00
      21     1     1     2   502   511 -2.643672336E+01 -7.312430999E+01 -2.423576070E+02  2.545255876E+02  7.629394531E-06  0.00000E+00  9.000E+00
#rwgt            2          11   1.1350254722832291E-002           1      254020           0
</event>
<event>
      5   9999  3.19816E-02  3.39453E+01 -1.00000E+00  1.49404E-01
       2    -1     0     0   502     0  0.000000000E+00  0.000000000E+00  8.697082935E+02  8.697082935E+02  0.000000000E+00  0.00000E+00  9.000E+00
      21    -1     0     0   501   502  0.000000000E+00  0.000000000E+00 -7.888072458E+02  7.888072458E+02  0.000000000E+00  0.00000E+00  9.000E+00
      25     1     1     2     0     0  9.863879163E+01  4.859463966E+02  7.449772798E+01  5.167672814E+02  1.250000000E+02  0.00000E+00  9.000E+00
      25     1     1     2     0     0 -1.031697713E+02 -4.523048400E+02 -4.652886369E+02  6.688364416E+02  1.250000000E+02  0.00000E+00  9.000E+00
       2     1     1     2   501     0  4.530979655E+00 -3.364155663E+01  4.716919566E+02  4.729118164E+02  5.394796609E-06  0.00000E+00  9.000E+00
#rwgt            1           1   3.1295620852230872E-002           1      254055           0
</event>
<event>
      5   9999  3.35294E-02  3.07909E+01 -1.00000E+00  1.52259E-01
      21    -1     0     0   502   501  0.000000000E+00  0.000000000E+00  3.084000236E+01  3.084000236E+01  0.000000000E+00  0.00000E+00  9.000E+00
      21    -1     0     0   501   511  0.000000000E+00  0.000000000E+00 -9.601583141E+02  9.601583141E+02  0.000000000E+00  0.00000E+00  9.000E+00
      25     1     1     2     0     0 -1.832594188E+00  1.028972569E+02 -5.244749343E+02  5.488990441E+02  1.250000000E+02  0.00000E+00  9.000E+00
      25     1     1     2     0     0 -1.173659987E+01 -7.525751347E+01 -3.216602081E+02  3.534002414E+02  1.250000000E+02  0.00000E+00  9.000E+00
      21     1     1     2   502   511  1.356919405E+01 -2.763974344E+01 -8.318316932E+01  8.869903101E+01  9.536743164E-07  0.00000E+00  9.000E+00
#rwgt            1           1   8.7529145114886728E-002           1      254141           0
</event>
<event>
      5   9999  3.19816E-02  5.46453E+01 -1.00000E+00  1.36909E-01
      21    -1     0     0   502   512  0.000000000E+00  0.000000000E+00  2.341990117E+02  2.341990117E+02  0.000000000E+00  0.00000E+00  9.000E+00
      21    -1     0     0   501   502  0.000000000E+00  0.000000000E+00 -1.403680369E+03  1.403680369E+03  0.000000000E+00  0.00000E+00  9.000E+00
      25     1     1     2     0     0 -5.076733706E+01 -2.539189308E+02 -5.716772446E+02  6.399156334E+02  1.250000000E+02  0.00000E+00  9.000E+00
      25     1     1     2     0     0  8.300567016E+01  2.980415237E+02 -7.582731953E+02  8.284454900E+02  1.250000000E+02  0.00000E+00  9.000E+00
      21     1     1     2   501   512 -3.223833311E+01 -4.412259296E+01  1.604690823E+02  1.695182577E+02  2.697398305E-06  0.00000E+00  9.000E+00
#rwgt            1           1   3.5270926510581488E-002           1      254248           0
</event>
<event>
      5   9999  3.19816E-02  5.95155E+01 -1.00000E+00  1.34892E-01
       3    -1     0     0   502     0  0.000000000E+00  0.000000000E+00  1.652170543E+03  1.652170543E+03  0.000000000E+00  0.00000E+00  9.000E+00
      21    -1     0     0   501   502  0.000000000E+00  0.000000000E+00 -5.381935767E+01  5.381935767E+01  0.000000000E+00  0.00000E+00  9.000E+00
      25     1     1     2     0     0 -4.000584649E+01  6.777117468E+01  6.609068773E+02  6.772121532E+02  1.250000000E+02  0.00000E+00  9.000E+00
      25     1     1     2     0     0  5.644998930E+00 -1.163656724E+02  1.191303164E+02  2.083023476E+02  1.250000000E+02  0.00000E+00  9.000E+00
       3     1     1     2   501     0  3.436084756E+01  4.859449772E+01  8.183139915E+02  8.204753998E+02  1.868812365E-05  0.00000E+00  9.000E+00
#rwgt            1           1   3.4608592886406310E-002           1      254380           0
</event>
<event>
      5   9999  3.19816E-02  1.52242E+01 -1.00000E+00  1.76779E-01
      21    -1     0     0   502   501  0.000000000E+00  0.000000000E+00  2.179020149E+02  2.179020149E+02  0.000000000E+00  0.00000E+00  9.000E+00
      21    -1     0     0   501   511  0.000000000E+00  0.000000000E+00 -3.707489606E+02  3.707489606E+02  0.000000000E+00  0.00000E+00  9.000E+00
      25     1     1     2     0     0 -1.307707861E+02 -6.222967495E+01  1.309111849E+02  2.318108481E+02  1.250000000E+02  0.00000E+00  9.000E+00
      25     1     1     2     0     0  1.353511706E+02  7.674848579E+01 -2.507105777E+02  3.204544636E+02  1.250000000E+02  0.00000E+00  9.000E+00
      21     1     1     2   502   511 -4.580384448E+00 -1.451881084E+01 -3.304755281E+01  3.638566388E+01  8.259061849E-07  0.00000E+00  9.000E+00
#rwgt            1           1   2.4261654887827652E-002           1      254451           0
</event>
<event>
      5   9999  3.19816E-02  6.74201E+01 -1.00000E+00  1.32052E-01
       2    -1     0     0   502     0  0.000000000E+00  0.000000000E+00  7.860447117E+02  7.860447117E+02  0.000000000E+00  0.00000E+00  9.000E+00
      21    -1     0     0   501   502  0.000000000E+00  0.000000000E+00 -1.218881334E+02  1.218881334E+02  0.000000000E+00  0.00000E+00  9.000E+00
      25     1     1     2     0     0 -2.342592983E+02  3.881852536E+01  2.850316016E+02  3.914745339E+02  1.250000000E+02  0.00000E+00  9.000E+00
      25     1     1     2     0     0  2.157509938E+02  2.601138770E+01  1.867491932E+02  3.126105321E+02  1.250000000E+02  0.00000E+00  9.000E+00
       2     1     1     2   501     0  1.850830451E+01 -6.482991306E+01  1.923757835E+02  2.038477791E+02  2.697398305E-06  0.00000E+00  9.000E+00
#rwgt            1           1   3.0122667076891648E-002           1      254657           0
</event>
<event>
      5   9999  3.19816E-02  3.86753E+01 -1.00000E+00  1.45753E-01
      21    -1     0     0   502   501  0.000000000E+00  0.000000000E+00  5.074137418E+02  5.074137418E+02  0.000000000E+00  0.00000E+00  9.000E+00
      21    -1     0     0   501   511  0.000000000E+00  0.000000000E+00 -2.160079147E+02  2.160079147E+02  0.000000000E+00  0.00000E+00  9.000E+00
      25     1     1     2     0     0 -2.458801736E+02 -3.225104301E+01  3.276026186E+02  4.294713788E+02  1.250000000E+02  0.00000E+00  9.000E+00
      25     1     1     2     0     0  2.195327976E+02  3.938639609E+00 -2.624859923E+01  2.540160449E+02  1.250000000E+02  0.00000E+00  9.000E+00
      21     1     1     2   502   511  2.634737600E+01  2.831240341E+01 -9.948192225E+00  3.993423265E+01  7.348554138E-07  0.00000E+00  9.000E+00
#rwgt            1           1   2.4229538501818741E-002           1      254736           0
</event>
<event>
      5   9999  3.19816E-02  1.69111E+02 -1.00000E+00  1.14366E-01
      21    -1     0     0   502   512  0.000000000E+00  0.000000000E+00  1.130450058E+03  1.130450058E+03  0.000000000E+00  0.00000E+00  9.000E+00
      21    -1     0     0   501   502  0.000000000E+00  0.000000000E+00 -6.527573334E+02  6.527573334E+02  0.000000000E+00  0.00000E+00  9.000E+00
      25     1     1     2     0     0  2.634785119E+02  4.855753938E+02  2.508468791E+02  6.194784468E+02  1.250000000E+02  0.00000E+00  9.000E+00
      25     1     1     2     0     0 -4.042973326E+02 -5.792157639E+02 -1.657696245E+02  7.362416741E+02  1.250000000E+02  0.00000E+00  9.000E+00
      21     1     1     2   501   512  1.408188207E+02  9.364037009E+01  3.926154705E+02  4.274872710E+02  5.394796609E-06  0.00000E+00  9.000E+00
#rwgt            2          11   3.4723374630945478E-003           1      254951           0
</event>
<event>
      5   9999  3.19816E-02  1.07860E+02 -1.00000E+00  1.22368E-01
      21    -1     0     0   502   511  0.000000000E+00  0.000000000E+00  6.676516274E+02  6.676516274E+02  0.000000000E+00  0.00000E+00  9.000E+00
      21    -1     0     0   501   502  0.000000000E+00  0.000000000E+00 -1.003840024E+02  1.003840024E+02  0.000000000E+00  0.00000E+00  9.000E+00
      25     1     1     2     0     0  1.510842556E+01  7.308553600E-01  2.064393897E+02  2.418078169E+02  1.250000000E+02  0.00000E+00  9.000E+00
      25     1     1     2     0     0 -4.544925424E+01 -1.042355196E+02  2.171408719E+01  1.703736477E+02  1.250000000E+02  0.00000E+00  9.000E+00
      21     1     1     2   501   511  3.034082868E+01  1.035046642E+02  3.391141481E+02  3.558541651E+02  3.814697266E-06  0.00000E+00  9.000E+00
#rwgt            1           1   2.6522649960682862E-002           1      254971           0
</event>
<event>
      5   9999  3.19816E-02  7.54820E+01 -1.00000E+00  1.29583E-01
      21    -1     0     0   502   512  0.000000000E+00  0.000000000E+00  2.106336166E+03  2.106336166E+03  0.000000000E+00  0.00000E+00  9.000E+00
      21    -1     0     0   501   502  0.000000000E+00  0.000000000E+00 -2.467548822E+02  2.467548822E+02  0.000000000E+00  0.00000E+00  9.000E+00
      25     1     1     2     0     0 -1.244550713E+02  2.277473894E+02  8.205962263E+01  2.995274943E+02  1.250000000E+02  0.00000E+00  9.000E+00
      25     1     1     2     0     0  1.534572623E+02 -1.580594634E+02 -2.034974956E+01  2.541083187E+02  1.250000000E+02  0.00000E+00  9.000E+00
      21     1     1     2   501   512 -2.900219099E+01 -6.968792601E+01  1.797871411E+03  1.799455236E+03  2.157918644E-05  0.00000E+00  9.000E+00
#rwgt            1           1   2.8088697904484695E-002           1      255041           0
</event>
<event>
      5   9999  3.19816E-02  6.20424E+01 -1.00000E+00  1.33931E-01
      21    -1     0     0   502   501  0.000000000E+00  0.000000000E+00  4.413560341E+01  4.413560341E+01  0.000000000E+00  0.00000E+00  9.000E+00
       2    -1     0     0   501     0  0.000000000E+00  0.000000000E+00 -3.560068713E+03  3.560068713E+03  0.000000000E+00  0.00000E+00  9.000E+00
      25     1     1     2     0     0 -1.212351359E+02  1.391005409E+02 -1.318490031E+03  1.337194033E+03  1.250000000E+02  0.00000E+00  9.000E+00
      25     1     1     2     0     0  1.705420266E+02 -1.014430038E+02 -3.671101190E+02  4.356261072E+02  1.250000000E+02  0.00000E+00  9.000E+00
       2     1     1     2   502     0 -4.930689069E+01 -3.765753702E+01 -1.830332960E+03  1.831384177E+03  0.000000000E+00  0.00000E+00  9.000E+00
#rwgt            1           1   2.9149814594356213E-002           1      255115           0
</event>
<event>
      5   9999  3.19816E-02  5.99400E+01 -1.00000E+00  1.34727E-01
      21    -1     0     0   502   501  0.000000000E+00  0.000000000E+00  2.311927368E+02  2.311927368E+02  0.000000000E+00  0.00000E+00  9.000E+00
      21    -1     0     0   511   502  0.000000000E+00  0.000000000E+00 -7.886518650E+02  7.886518650E+02  0.000000000E+00  0.00000E+00  9.000E+00
      25     1     1     2     0     0  2.890713757E+02  5.677816172E+01  5.355384544E+01  3.244673084E+02  1.250000000E+02  0.00000E+00  9.000E+00
      25     1     1     2     0     0 -2.362723573E+02 -2.840453564E+01 -5.334906301E+02  5.973848817E+02  1.250000000E+02  0.00000E+00  9.000E+00
      21     1     1     2   511   501 -5.279901835E+01 -2.837362608E+01 -7.752234355E+01  9.799241167E+01  1.651812370E-06  0.00000E+00  9.000E+00
#rwgt            1           1   2.8463628354106776E-002           1      255163           0
</event>
<event>
      5   9999  3.19816E-02  8.41266E+01 -1.00000E+00  1.27301E-01
      21    -1     0     0   502   501  0.000000000E+00  0.000000000E+00  8.091329778E+02  8.091329778E+02  0.000000000E+00  0.00000E+00  9.000E+00
      21    -1     0     0   512   502  0.000000000E+00  0.000000000E+00 -6.628961363E+02  6.628961363E+02  0.000000000E+00  0.00000E+00  9.000E+00
      25     1     1     2     0     0  1.251004798E+02 -1.722930336E+02  2.061567614E+02  3.216529648E+02  1.250000000E+02  0.00000E+00  9.000E+00
      25     1     1     2     0     0 -2.088529827E+02  1.643685204E+02  5.023172926E+02  5.818799200E+02  1.250000000E+02  0.00000E+00  9.000E+00
      21     1     1     2   512   501  8.375250285E+01  7.924513218E+00 -5.622372125E+02  5.684962293E+02  0.000000000E+00  0.00000E+00  9.000E+00
#rwgt            1           1   2.2764692802802591E-002           1      255292           0
</event>
<event>
      5   9999  3.19816E-02  8.11807E+01 -1.00000E+00  1.28042E-01
      21    -1     0     0   502   511  0.000000000E+00  0.000000000E+00  1.398072039E+03  1.398072039E+03  0.000000000E+00  0.00000E+00  9.000E+00
      21    -1     0     0   501   502  0.000000000E+00  0.000000000E+00 -3.193580909E+02  3.193580909E+02  0.000000000E+00  0.00000E+00  9.000E+00
      25     1     1     2     0     0 -5.880270254E+02  1.803449825E+02  4.877596921E+02  7.948802505E+02  1.250000000E+02  0.00000E+00  9.000E+00
      25     1     1     2     0     0  6.062678857E+02 -1.012401667E+02  5.242065787E+02  8.174520522E+02  1.250000000E+02  0.00000E+00  9.000E+00
      21     1     1     2   501   511 -1.824086028E+01 -7.910481580E+01  6.674767756E+01  1.050978274E+02  1.348699152E-06  0.00000E+00  9.000E+00
#rwgt            1           1   2.5017837039863128E-002           1      255351           0
</event>
<event>
      5   9999  3.19816E-02  2.49177E+02 -1.00000E+00  1.08279E-01
      21    -1     0     0   512   501  0.000000000E+00  0.000000000E+00  4.878930078E+02  4.878930078E+02  0.000000000E+00  0.00000E+00  9.000E+00
      21    -1     0     0   501   502  0.000000000E+00  0.000000000E+00 -2.293361051E+02  2.293361051E+02  0.000000000E+00  0.00000E+00  9.000E+00
      25     1     1     2     0     0 -1.245895023E+02  6.913928688E+01  1.076916560E+02  2.180029308E+02  1.250000000E+02  0.00000E+00  9.000E+00
      25     1     1     2     0     0 -1.200177817E+02 -2.163863952E+01 -4.722089837E+01  1.809069150E+02  1.250000000E+02  0.00000E+00  9.000E+00
      21     1     1     2   512   502  2.446072840E+02 -4.750064736E+01  1.980861451E+02  3.183192671E+02  3.814697266E-06  0.00000E+00  9.000E+00
#rwgt            1           1   6.2125504443486544E-002           1      255459           0
</event>
<event>
      5   9999  3.19816E-02  3.66522E+02 -1.00000E+00  1.02841E-01
      21    -1     0     0   502   501  0.000000000E+00  0.000000000E+00  1.385214386E+03  1.385214386E+03  0.000000000E+00  0.00000E+00  9.000E+00
      21    -1     0     0   511   502  0.000000000E+00  0.000000000E+00 -4.825653109E+02  4.825653109E+02  0.000000000E+00  0.00000E+00  9.000E+00
      25     1     1     2     0     0  1.472594184E+02  8.180197782E+01  4.163718119E+02  4.662267534E+02  1.250000000E+02  0.00000E+00  9.000E+00
      25     1     1     2     0     0 -5.057453895E+02 -1.581321682E+02  7.665039283E+02  9.401794796E+02  1.250000000E+02  0.00000E+00  9.000E+00
      21     1     1     2   511   501  3.584859711E+02  7.633019041E+01 -2.802266651E+02  4.613734639E+02  6.607249480E-06  0.00000E+00  9.000E+00
#rwgt            1           1   3.0443315913528116E-002           1      255489           0
</event>
<event>
      5   9999  3.19816E-02  1.47328E+02 -1.00000E+00  1.16704E-01
       2    -1     0     0   502     0  0.000000000E+00  0.000000000E+00  1.874571848E+03  1.874571848E+03  0.000000000E+00  0.00000E+00  9.000E+00
      21    -1     0     0   501   502  0.000000000E+00  0.000000000E+00 -8.584124295E+02  8.584124295E+02  0.000000000E+00  0.00000E+00  9.000E+00
      25     1     1     2     0     0 -2.769626959E+02  1.872539614E+02  1.519826025E+02  3.879382585E+02  1.250000000E+02  0.00000E+00  9.000E+00
      25     1     1     2     0     0  3.012108322E+02 -4.193551887E+01 -7.002996252E+02  7.736479291E+02  1.250000000E+02  0.00000E+00  9.000E+00
       2     1     1     2   501     0 -2.424813640E+01 -1.453184425E+02  1.564476441E+03  1.571398090E+03  0.000000000E+00  0.00000E+00  9.000E+00
#rwgt            1           1   2.4177253208624891E-002           1      255564           0
</event>
<event>
      5   9999  3.19816E-02  5.29334E+01 -1.00000E+00  1.37677E-01
      21    -1     0     0   511   501  0.000000000E+00  0.000000000E+00  4.660271785E+02  4.660271785E+02  0.000000000E+00  0.00000E+00  9.000E+00
      21    -1     0     0   501   502  0.000000000E+00  0.000000000E+00 -9.914113051E+02  9.914113051E+02  0.000000000E+00  0.00000E+00  9.000E+00
      25     1     1     2     0     0  4.445114708E+02  3.243768666E+02  1.036648483E+02  5.737440196E+02  1.250000000E+02  0.00000E+00  9.000E+00
      25     1     1     2     0     0 -3.917161608E+02 -3.281983393E+02 -6.411758930E+02  8.293896709E+02  1.250000000E+02  0.00000E+00  9.000E+00
      21     1     1     2   511   502 -5.279531000E+01  3.821472635E+00  1.212691809E+01  5.430479310E+01  4.129530925E-07  0.00000E+00  9.000E+00
#rwgt            1           1   2.9481773854136879E-002           1      255649           0
</event>
<event>
      5   9999  3.19816E-02  1.28027E+02 -1.00000E+00  1.19187E-01
      21    -1     0     0   512   501  0.000000000E+00  0.000000000E+00  1.812996940E+02  1.812996940E+02  0.000000000E+00  0.00000E+00  9.000E+00
      21    -1     0     0   501   502  0.000000000E+00  0.000000000E+00 -1.155750060E+03  1.155750060E+03  0.000000000E+00  0.00000E+00  9.000E+00
      25     1     1     2     0     0 -3.106001492E+02  1.919903893E+01 -2.600148697E+02  4.243510201E+02  1.250000000E+02  0.00000E+00  9.000E+00
      25     1     1     2     0     0  4.029510489E+02  6.947038770E+01 -6.220076099E+02  7.547941106E+02  1.250000000E+02  0.00000E+00  9.000E+00
      21     1     1     2   512   502 -9.235089972E+01 -8.866942663E+01 -9.242788633E+01  1.579046233E+02  1.907348633E-06  0.00000E+00  9.000E+00
#rwgt            1           1   2.7545580513848863E-002           1      255777           0
</event>
<event>
      5   9999  3.19816E-02  1.38479E+02 -1.00000E+00  1.17786E-01
      21    -1     0     0   511   501  0.000000000E+00  0.000000000E+00  2.295045526E+03  2.295045526E+03  0.000000000E+00  0.00000E+00  9.000E+00
      21    -1     0     0   501   502  0.000000000E+00  0.000000000E+00 -1.523914908E+02  1.523914908E+02  0.000000000E+00  0.00000E+00  9.000E+00
      25     1     1     2     0     0 -1.197670586E+02 -2.827677633E+02  1.181140185E+02  3.519626084E+02  1.250000000E+02  0.00000E+00  9.000E+00
      25     1     1     2     0     0 -1.609879327E+01  3.095405735E+02  8.588375457E+02  9.215755355E+02  1.250000000E+02  0.00000E+00  9.000E+00
      21     1     1     2   511   502  1.358658519E+02 -2.677281020E+01  1.165702471E+03  1.173898873E+03  0.000000000E+00  0.00000E+00  9.000E+00
#rwgt            1           1   2.7823296527679078E-002           1      255823           0
</event>
<event>
      5   9999  3.19816E-02  2.91246E+01 -1.00000E+00  1.53939E-01
       2    -1     0     0   502     0  0.000000000E+00  0.000000000E+00  1.690812020E+03  1.690812020E+03  0.000000000E+00  0.00000E+00  9.000E+00
      21    -1     0     0   501   502  0.000000000E+00  0.000000000E+00 -5.364660625E+02  5.364660625E+02  0.000000000E+00  0.00000E+00  9.000E+00
      25     1     1     2     0     0  3.013881322E+02  4.580312482E+02 -1.555949077E+02  5.834913931E+02  1.250000000E+02  0.00000E+00  9.000E+00
      25     1     1     2     0     0 -2.724279842E+02 -4.611220299E+02  2.868642436E+02  6.202955967E+02  1.250000000E+02  0.00000E+00  9.000E+00
       2     1     1     2   501     0 -2.896014795E+01  3.090781626E+00  1.023076622E+03  1.023491093E+03  1.525878906E-05  0.00000E+00  9.000E+00
#rwgt            1           1   3.1429206265311690E-002           1      255893           0
</event>
<event>
      5   9999  3.19816E-02  4.36026E+01 -1.00000E+00  1.42555E-01
       2    -1     0     0   502     0  0.000000000E+00  0.000000000E+00  2.206104050E+03  2.206104050E+03  0.000000000E+00  0.00000E+00  9.000E+00
      21    -1     0     0   501   502  0.000000000E+00  0.000000000E+00 -3.169513184E+02  3.169513184E+02  0.000000000E+00  0.00000E+00  9.000E+00
      25     1     1     2     0     0  7.525585397E+01  3.590211033E+02  1.197466295E+03  1.258614366E+03  1.250000000E+02  0.00000E+00  9.000E+00
      25     1     1     2     0     0 -7.269050340E+01 -3.154940460E+02 -1.804865872E+02  3.911787450E+02  1.250000000E+02  0.00000E+00  9.000E+00
       2     1     1     2   501     0 -2.565350579E+00 -4.352705725E+01  8.721730239E+02  8.732622569E+02  0.000000000E+00  0.00000E+00  9.000E+00
#rwgt            1           1   2.9641593746649320E-002           1      255986           0
</event>
<event>
      5   9999  3.19816E-02  1.48241E+02 -1.00000E+00  1.16597E-01
      21    -1     0     0   511   501  0.000000000E+00  0.000000000E+00  2.760198233E+03  2.760198233E+03  0.000000000E+00  0.00000E+00  9.000E+00
      21    -1     0     0   501   502  0.000000000E+00  0.000000000E+00 -1.058294930E+02  1.058294930E+02  0.000000000E+00  0.00000E+00  9.000E+00
      25     1     1     2     0     0  3.118509386E+01 -1.109647046E+02  2.817513110E+01  1.723499747E+02  1.250000000E+02  0.00000E+00  9.000E+00
      25     1     1     2     0     0 -3.655410506E+01  2.591087090E+02  6.479273330E+02  7.098650255E+02  1.250000000E+02  0.00000E+00  9.000E+00
      21     1     1     2   511   502  5.369011195E+00 -1.481440043E+02  1.978266276E+03  1.983812726E+03  2.157918644E-05  0.00000E+00  9.000E+00
#rwgt            1           1   2.8152137030222995E-002           1      256125           0
</event>
<event>
      5   9999  3.19816E-02  3.04930E+01 -1.00000E+00  1.52550E-01
      21    -1     0     0   512   501  0.000000000E+00  0.000000000E+00  3.720512389E+02  3.720512389E+02  0.000000000E+00  0.00000E+00  9.000E+00
      21    -1     0     0   501   502  0.000000000E+00  0.000000000E+00 -2.712232220E+02  2.712232220E+02  0.000000000E+00  0.00000E+00  9.000E+00
      25     1     1     2     0     0  1.236295834E+02  1.047014102E+02 -1.782800933E+02  2.713953774E+02  1.250000000E+02  0.00000E+00  9.000E+00
      25     1     1     2     0     0 -1.502214774E+02 -8.977838974E+01  2.394019477E+02  3.218150775E+02  1.250000000E+02  0.00000E+00  9.000E+00
      21     1     1     2   512   502  2.659189392E+01 -1.492302045E+01  3.970616253E+01  5.006400608E+01  8.259061849E-07  0.00000E+00  9.000E+00
#rwgt            1           1   3.0091684818115728E-002           1      256167           0
</event>
<event>
      5   9999  3.19816E-02  3.32733E+02 -1.00000E+00  1.04151E-01
      21    -1     0     0   502   501  0.000000000E+00  0.000000000E+00  9.788226303E+02  9.788226303E+02  0.000000000E+00  0.00000E+00  9.000E+00
      21    -1     0     0   511   502  0.000000000E+00  0.000000000E+00 -4.530754178E+02  4.530754178E+02  0.000000000E+00  0.00000E+00  9.000E+00
      25     1     1     2     0     0  1.165136595E+02  1.887893155E+02 -1.436809059E+02  2.923799604E+02  1.250000000E+02  0.00000E+00  9.000E+00
      25     1     1     2     0     0 -1.805502483E+02 -5.153016102E+02  5.526693560E+02  7.868942487E+02  1.250000000E+02  0.00000E+00  9.000E+00
      21     1     1     2   511   501  6.403658882E+01  3.265122946E+02  1.167587623E+02  3.526238390E+02  5.722045898E-06  0.00000E+00  9.000E+00
#rwgt            1           1   3.2136233954883964E-002           1      256281           0
</event>
<event>
      5   9999  3.19816E-02  4.46711E+01 -1.00000E+00  1.41927E-01
      21    -1     0     0   502   501  0.000000000E+00  0.000000000E+00  1.252898264E+03  1.252898264E+03  0.000000000E+00  0.00000E+00  9.000E+00
      21    -1     0     0   501   512  0.000000000E+00  0.000000000E+00 -1.320668332E+02  1.320668332E+02  0.000000000E+00  0.00000E+00  9.000E+00
      25     1     1     2     0     0  1.209861383E+02 -3.169516821E+02  7.087395139E+02  7.956335294E+02  1.250000000E+02  0.00000E+00  9.000E+00
      25     1     1     2     0     0 -7.639396212E+01  3.196057566E+02  4.157882609E+02  5.445078098E+02  1.250000000E+02  0.00000E+00  9.000E+00
      21     1     1     2   502   512 -4.459217619E+01 -2.654074492E+00 -3.696344325E+00  4.482375765E+01  4.951133646E-07  0.00000E+00  9.000E+00
#rwgt            1           1   2.8543064744381678E-002           1      256357           0
</event>
<event>
      5   9999  3.19816E-02  2.05818E+02 -1.00000E+00  1.11197E-01
      21    -1     0     0   502   511  0.000000000E+00  0.000000000E+00  1.051014485E+03  1.051014485E+03  0.000000000E+00  0.00000E+00  9.000E+00
      21    -1     0     0   501   502  0.000000000E+00  0.000000000E+00 -8.164139930E+02  8.164139930E+02  0.000000000E+00  0.00000E+00  9.000E+00
      25     1     1     2     0     0 -7.498794011E+02  9.832602952E+01 -3.341656016E+02  8.362289002E+02  1.250000000E+02  0.00000E+00  9.000E+00
      25     1     1     2     0     0  5.938770499E+02 -2.325812262E+02  3.857886949E+02  7.558054606E+02  1.250000000E+02  0.00000E+00  9.000E+00
      21     1     1     2   501   511  1.560023512E+02  1.342551967E+02  1.829773988E+02  2.753941174E+02  3.814697266E-06  0.00000E+00  9.000E+00
#rwgt            1           1   2.4734711561922400E-002           1      256437           0
</event>
<event>
      5   9999  3.19816E-02  1.15676E+02 -1.00000E+00  1.21049E-01
      21    -1     0     0   502   501  0.000000000E+00  0.000000000E+00  1.801425563E+03  1.801425563E+03  0.000000000E+00  0.00000E+00  9.000E+00
      21    -1     0     0   512   502  0.000000000E+00  0.000000000E+00 -2.197378134E+02  2.197378134E+02  0.000000000E+00  0.00000E+00  9.000E+00
      25     1     1     2     0     0 -1.781946410E+02  4.678987467E+02  4.404288335E+02  6.784431624E+02  1.250000000E+02  0.00000E+00  9.000E+00
      25     1     1     2     0     0  2.933972734E+02 -4.783567460E+02  1.042941053E+03  1.190906451E+03  1.250000000E+02  0.00000E+00  9.000E+00
      21     1     1     2   512   501 -1.152026324E+02  1.045799932E+01  9.831786314E+01  1.518137624E+02  2.697398305E-06  0.00000E+00  9.000E+00
#rwgt            1           1   2.6972786688654795E-002           1      256532           0
</event>
<event>
      5   9999  3.19816E-02  1.62592E+02 -1.00000E+00  1.15023E-01
      21    -1     0     0   511   501  0.000000000E+00  0.000000000E+00  1.480512885E+03  1.480512885E+03  0.000000000E+00  0.00000E+00  9.000E+00
      21    -1     0     0   501   502  0.000000000E+00  0.000000000E+00 -2.499382003E+02  2.499382003E+02  0.000000000E+00  0.00000E+00  9.000E+00
      25     1     1     2     0     0  2.045424364E+02 -4.297742765E+02  1.283165993E+02  5.085604061E+02  1.250000000E+02  0.00000E+00  9.000E+00
      25     1     1     2     0     0 -8.968396262E+01  3.146924985E+02  8.745509307E+02  9.420928362E+02  1.250000000E+02  0.00000E+00  9.000E+00
      21     1     1     2   511   502 -1.148584738E+02  1.150817780E+02  2.277071550E+02  2.797978432E+02  4.672030912E-06  0.00000E+00  9.000E+00
#rwgt            1           1   2.8781521275502344E-002           1      256606           0
</event>
<event>
      5   9999  3.19816E-02  4.75030E+01 -1.00000E+00  1.40357E-01
      21    -1     0     0   502   501  0.000000000E+00  0.000000000E+00  3.270184687E+02  3.270184687E+02  0.000000000E+00  0.00000E+00  9.000E+00
       5    -1     0     0   501     0  0.000000000E+00  0.000000000E+00 -6.273495494E+02  6.273495494E+02  0.000000000E+00  0.00000E+00  9.000E+00
      25     1     1     2     0     0  2.400364034E+02 -1.332256789E+01  2.423986992E+01  2.720432632E+02  1.250000000E+02  0.00000E+00  9.000E+00
      25     1     1     2     0     0 -2.228304053E+02  5.760001953E+01  8.087062352E+01  2.741098494E+02  1.250000000E+02  0.00000E+00  9.000E+00
       5     1     1     2   502     0 -1.720599809E+01 -4.427745164E+01 -4.054415742E+02  4.082149056E+02  0.000000000E+00  0.00000E+00  9.000E+00
#rwgt            1           1   2.8660600450869520E-002           1      256686           0
</event>
<event>
      5   9999  3.19816E-02  4.90118E+02 -1.00000E+00  9.90989E-02
      21    -1     0     0   511   501  0.000000000E+00  0.000000000E+00  1.479480200E+03  1.479480200E+03  0.000000000E+00  0.00000E+00  9.000E+00
      21    -1     0     0   501   502  0.000000000E+00  0.000000000E+00 -2.995102354E+02  2.995102354E+02  0.000000000E+00  0.00000E+00  9.000E+00
      25     1     1     2     0     0 -2.006027626E+02  9.560189312E+01  6.174625539E+02  6.680315829E+02  1.250000000E+02  0.00000E+00  9.000E+00
      25     1     1     2     0     0 -2.522515191E+02  9.184993689E+01 -7.629399639E+01  3.057989760E+02  1.250000000E+02  0.00000E+00  9.000E+00
      21     1     1     2   511   502  4.528542817E+02 -1.874518300E+02  6.388014071E+02  8.051598765E+02  7.629394531E-06  0.00000E+00  9.000E+00
#rwgt            2          11   1.7924680505003331E-003           1      256799           0
</event>
<event>
      5   9999  3.19816E-02  1.43526E+02 -1.00000E+00  1.17158E-01
      21    -1     0     0   502   501  0.000000000E+00  0.000000000E+00  5.841307209E+02  5.841307209E+02  0.000000000E+00  0.00000E+00  9.000E+00
      21    -1     0     0   501   512  0.000000000E+00  0.000000000E+00 -4.504262832E+02  4.504262832E+02  0.000000000E+00  0.00000E+00  9.000E+00
      25     1     1     2     0     0 -1.134964742E+02 -1.457744259E+02  4.625254290E+02  5.135040461E+02  1.250000000E+02  0.00000E+00  9.000E+00
      25     1     1     2     0     0  1.442715631E+02  5.586517297E+00 -3.256210498E+02  3.774911405E+02  1.250000000E+02  0.00000E+00  9.000E+00
      21     1     1     2   502   512 -3.077508883E+01  1.401879086E+02 -3.199941402E+00  1.435618175E+02  3.259780148E-06  0.00000E+00  9.000E+00
#rwgt            1           1   2.9637019059380064E-002           1      256819           0
</event>
<event>
      5   9999  3.19816E-02  4.41100E+01 -1.00000E+00  1.42254E-01
      21    -1     0     0   511   501  0.000000000E+00  0.000000000E+00  9.200862522E+02  9.200862522E+02  0.000000000E+00  0.00000E+00  9.000E+00
      21    -1     0     0   501   502  0.000000000E+00  0.000000000E+00 -5.262086957E+01  5.262086957E+01  0.000000000E+00  0.00000E+00  9.000E+00
      25     1     1     2     0     0  1.326289572E+01 -3.571522349E+01  5.347742332E+01  1.411960212E+02  1.250000000E+02  0.00000E+00  9.000E+00
      25     1     1     2     0     0 -1.024649187E+01 -8.291477913E+00  6.001225097E+02  6.131441640E+02  1.250000000E+02  0.00000E+00  9.000E+00
      21     1     1     2   511   502 -3.016403847E+00  4.400670140E+01  2.138654496E+02  2.183669366E+02  4.672030912E-06  0.00000E+00  9.000E+00
#rwgt            1           1   3.1520640725794885E-002           1      256894           0
</event>
<event>
      5   9999  3.19816E-02  1.52155E+02 -1.00000E+00  1.16149E-01
      21    -1     0     0   502   501  0.000000000E+00  0.000000000E+00  2.020695081E+02  2.020695081E+02  0.000000000E+00  0.00000E+00  9.000E+00
      21    -1     0     0   501   512  0.000000000E+00  0.000000000E+00 -1.006320131E+03  1.006320131E+03  0.000000000E+00  0.00000E+00  9.000E+00
      25     1     1     2     0     0 -6.132276755E+01  6.916764243E+01  4.348213494E+01  1.614321549E+02  1.250000000E+02  0.00000E+00  9.000E+00
      25     1     1     2     0     0  1.737129481E+02  3.339739372E+01 -3.416062321E+01  2.192795531E+02  1.250000000E+02  0.00000E+00  9.000E+00
      21     1     1     2   502   512 -1.123901805E+02 -1.025650361E+02 -8.135721345E+02  8.276779309E+02  0.000000000E+00  0.00000E+00  9.000E+00
#rwgt            1           1   2.4632599580202454E-002           1      256948           0
</event>
<event>
      5   9999  3.19816E-02  1.94819E+01 -1.00000E+00  1.67315E-01
       2    -1     0     0   502     0  0.000000000E+00  0.000000000E+00  1.541882774E+03  1.541882774E+03  0.000000000E+00  0.00000E+00  9.000E+00
      21    -1     0     0   501   502  0.000000000E+00  0.000000000E+00 -1.474829724E+02  1.474829724E+02  0.000000000E+00  0.00000E+00  9.000E+00
      25     1     1     2     0     0 -1.123476215E+02  9.464382267E+01  8.007528511E+01  2.088456188E+02  1.250000000E+02  0.00000E+00  9.000E+00
      25     1     1     2     0     0  9.735714716E+01 -8.220078684E+01  1.291133014E+01  1.789611296E+02  1.250000000E+02  0.00000E+00  9.000E+00
       2     1     1     2   501     0  1.499047431E+01 -1.244303583E+01  1.301413186E+03  1.301558998E+03  0.000000000E+00  0.00000E+00  9.000E+00
#rwgt            1           1   3.5695328925597292E-002           1      257011           0
</event>
<event>
      5   9999  3.19816E-02  8.93223E+01 -1.00000E+00  1.26075E-01
      21    -1     0     0   502   511  0.000000000E+00  0.000000000E+00  9.999810588E+01  9.999810588E+01  0.000000000E+00  0.00000E+00  9.000E+00
      21    -1     0     0   501   502  0.000000000E+00  0.000000000E+00 -5.964448747E+02  5.964448747E+02  0.000000000E+00  0.00000E+00  9.000E+00
      25     1     1     2     0     0  1.481520906E+01 -8.952626042E+01 -3.568594124E+02  3.888548340E+02  1.250000000E+02  0.00000E+00  9.000E+00
      25     1     1     2     0     0 -1.041013016E+02  8.698330982E+01 -8.723296371E+01  2.040533439E+02  1.250000000E+02  0.00000E+00  9.000E+00
      21     1     1     2   501   511  8.928609258E+01  2.542950601E+00 -5.235439264E+01  1.035348026E+02  6.743495762E-07  0.00000E+00  9.000E+00
#rwgt            2          11   2.4366928417062996E-003           1      257170           0
</event>
<event>
      5   9999  3.19816E-02  1.83717E+01 -1.00000E+00  1.69471E-01
      21    -1     0     0   502   501  0.000000000E+00  0.000000000E+00  2.581315529E+02  2.581315529E+02  0.000000000E+00  0.00000E+00  9.000E+00
      21    -1     0     0   512   502  0.000000000E+00  0.000000000E+00 -3.880307328E+02  3.880307328E+02  0.000000000E+00  0.00000E+00  9.000E+00
      25     1     1     2     0     0 -9.945139024E+00 -1.060018035E+02  2.035645453E+02  2.615316659E+02  1.250000000E+02  0.00000E+00  9.000E+00
      25     1     1     2     0     0 -3.319340073E+00  1.187129199E+02 -2.890781764E+02  3.365931779E+02  1.250000000E+02  0.00000E+00  9.000E+00
      21     1     1     2   512   501  1.326447910E+01 -1.271111642E+01 -4.438554885E+01  4.803744199E+01  0.000000000E+00  0.00000E+00  9.000E+00
#rwgt            1           1   2.7499283112086919E-002           1      257190           0
</event>
<event>
      5   9999  3.19816E-02  2.18794E+01 -1.00000E+00  1.63214E-01
      21    -1     0     0   502   511  0.000000000E+00  0.000000000E+00  8.371311045E+02  8.371311045E+02  0.000000000E+00  0.00000E+00  9.000E+00
      21    -1     0     0   501   502  0.000000000E+00  0.000000000E+00 -1.447183654E+02  1.447183654E+02  0.000000000E+00  0.00000E+00  9.000E+00
      25     1     1     2     0     0  4.283688472E+01 -8.470343255E+01  7.079469243E+02  7.251368959E+02  1.250000000E+02  0.00000E+00  9.000E+00
      25     1     1     2     0     0 -6.099610611E+01  7.249895044E+01 -8.880545988E+01  1.802443688E+02  1.250000000E+02  0.00000E+00  9.000E+00
      21     1     1     2   501   511  1.815922139E+01  1.220448211E+01  7.327127462E+01  7.646820508E+01  9.536743164E-07  0.00000E+00  9.000E+00
#rwgt            1           1   2.7196136640948543E-002           1      257430           0
</event>
<event>
      5   9999  3.19816E-02  5.84637E+01 -1.00000E+00  1.35308E-01
      21    -1     0     0   502   501  0.000000000E+00  0.000000000E+00  1.251741187E+03  1.251741187E+03  0.000000000E+00  0.00000E+00  9.000E+00
      21    -1     0     0   501   512  0.000000000E+00  0.000000000E+00 -4.471946902E+02  4.471946902E+02  0.000000000E+00  0.00000E+00  9.000E+00
      25     1     1     2     0     0 -2.369609713E+02  6.359279152E+02  7.109768284E+02  9.907915350E+02  1.250000000E+02  0.00000E+00  9.000E+00
      25     1     1     2     0     0  1.905193455E+02 -6.004148735E+02  7.378960094E+01  6.464252057E+02  1.250000000E+02  0.00000E+00  9.000E+00
      21     1     1     2   502   512  4.644162581E+01 -3.551304167E+01  1.978006738E+01  6.171913643E+01  1.348699152E-06  0.00000E+00  9.000E+00
#rwgt            1           1   3.3957944174281329E-002           1      257550           0
</event>
<event>
      5   9999  3.19816E-02  1.99062E+02 -1.00000E+00  1.11722E-01
      21    -1     0     0   502   501  0.000000000E+00  0.000000000E+00  1.392192369E+02  1.392192369E+02  0.000000000E+00  0.00000E+00  9.000E+00
      -1    -1     0     0     0   502  0.000000000E+00  0.000000000E+00 -1.201503667E+03  1.201503667E+03  0.000000000E+00  0.00000E+00  9.000E+00
      25     1     1     2     0     0 -2.322099090E+02 -1.431538695E+02 -5.894477592E+02  6.614288572E+02  1.250000000E+02  0.00000E+00  9.000E+00
      25     1     1     2     0     0  1.384959352E+02 -3.246943306E+01 -2.732137092E+01  1.913291548E+02  1.250000000E+02  0.00000E+00  9.000E+00
      -1     1     1     2     0   501  9.371397383E+01  1.756233026E+02 -4.455152997E+02  4.879648917E+02  7.629394531E-06  0.00000E+00  9.000E+00
#rwgt            1           1   3.1257969311728230E-002           1      257676           0
</event>
<event>
      5   9999  3.19816E-02  5.99887E+01 -1.00000E+00  1.34708E-01
       2    -1     0     0   502     0  0.000000000E+00  0.000000000E+00  2.627156684E+03  2.627156684E+03  0.000000000E+00  0.00000E+00  9.000E+00
      21    -1     0     0   501   502  0.000000000E+00  0.000000000E+00 -9.997256442E+01  9.997256442E+01  0.000000000E+00  0.00000E+00  9.000E+00
      25     1     1     2     0     0 -1.943559333E+02  1.441232049E+02  6.465235099E+02  7.015435666E+02  1.250000000E+02  0.00000E+00  9.000E+00
      25     1     1     2     0     0  1.607594755E+02 -1.938214982E+02  2.027822559E+02  3.466352917E+02  1.250000000E+02  0.00000E+00  9.000E+00
       2     1     1     2   501     0  3.359645775E+01  4.969829331E+01  1.677878354E+03  1.678950391E+03  2.157918644E-05  0.00000E+00  9.000E+00
#rwgt            1           1   2.9951955630112524E-002           1      257713           0
</event>
<event>
      5   9999  3.19816E-02  6.94513E+01 -1.00000E+00  1.31394E-01
      21    -1     0     0   502   501  0.000000000E+00  0.000000000E+00  1.573604540E+02  1.573604540E+02  0.000000000E+00  0.00000E+00  9.000E+00
      21    -1     0     0   511   502  0.000000000E+00  0.000000000E+00 -1.916945950E+03  1.916945950E+03  0.000000000E+00  0.00000E+00  9.000E+00
      25     1     1     2     0     0  5.820185041E+01  4.429666039E+02 -4.649694716E+02  6.568321529E+02  1.250000000E+02  0.00000E+00  9.000E+00
      25     1     1     2     0     0 -1.185665222E+02 -4.773118064E+02 -1.153844897E+03  1.260502926E+03  1.250000000E+02  0.00000E+00  9.000E+00
      21     1     1     2   511   501  6.036467178E+01  3.434520250E+01 -1.407711276E+02  1.569713251E+02  2.697398305E-06  0.00000E+00  9.000E+00
#rwgt            1           1   2.8650712578322229E-002           1      257798           0
</event>
<event>
      5   9999  3.19816E-02  4.48499E+02 -1.00000E+00  1.00212E-01
      21    -1     0     0   502   501  0.000000000E+00  0.000000000E+00  1.166476577E+03  1.166476577E+03  0.000000000E+00  0.00000E+00  9.000E+00
       2    -1     0     0   501     0  0.000000000E+00  0.000000000E+00 -1.777769855E+03  1.777769855E+03  0.000000000E+00  0.00000E+00  9.000E+00
      25     1     1     2     0     0 -5.152330024E+02 -4.822650848E+02 -3.448834060E+02  7.953704939E+02  1.250000000E+02  0.00000E+00  9.000E+00
      25     1     1     2     0     0  1.698045533E+02  1.962044982E+02  8.757062989E+02  9.218548223E+02  1.250000000E+02  0.00000E+00  9.000E+00
       2     1     1     2   502     0  3.454284490E+02  2.860605867E+02 -1.142116170E+03  1.227021116E+03  1.525878906E-05  0.00000E+00  9.000E+00
#rwgt            2          13   1.9538756946475017E-003           1      258094           0
</event>
<event>
      5   9999  3.19816E-02  1.95085E+02 -1.00000E+00  1.12043E-01
       1    -1     0     0   502     0  0.000000000E+00  0.000000000E+00  8.986192329E+02  8.986192329E+02  0.000000000E+00  0.00000E+00  9.000E+00
      21    -1     0     0   501   502  0.000000000E+00  0.000000000E+00 -1.600743873E+03  1.600743873E+03  0.000000000E+00  0.00000E+00  9.000E+00
      25     1     1     2     0     0 -1.472081785E+01 -5.366294911E+02 -1.434773715E+03  1.537006352E+03  1.250000000E+02  0.00000E+00  9.000E+00
      25     1     1     2     0     0  6.557474807E+01  3.482897926E+02  2.774917606E+02  4.671536197E+02  1.250000000E+02  0.00000E+00  9.000E+00
       1     1     1     2   501     0 -5.085393022E+01  1.883396985E+02  4.551573137E+02  4.952031346E+02  5.394796609E-06  0.00000E+00  9.000E+00
#rwgt            1           1   2.9774659241020802E-002           1      258113           0
</event>
<event>
      5   9999  3.19816E-02  4.17233E+01 -1.00000E+00  1.43713E-01
      21    -1     0     0   502   501  0.000000000E+00  0.000000000E+00  9.235824821E+02  9.235824821E+02  0.000000000E+00  0.00000E+00  9.000E+00
      21    -1     0     0   511   502  0.000000000E+00  0.000000000E+00 -2.258838059E+02  2.258838059E+02  0.000000000E+00  0.00000E+00  9.000E+00
      25     1     1     2     0     0  3.639822027E+02 -1.082994995E+02  4.720883201E+02  6.186309137E+02  1.250000000E+02  0.00000E+00  9.000E+00
      25     1     1     2     0     0 -3.973087882E+02  1.334027756E+02  2.170285012E+02  4.882386138E+02  1.250000000E+02  0.00000E+00  9.000E+00
      21     1     1     2   511   501  3.332658549E+01 -2.510327610E+01  8.581854929E+00  4.259676050E+01  7.251217997E-07  0.00000E+00  9.000E+00
#rwgt            1           1   2.4003081242350344E-002           1      258200           0
</event>
<event>
      5   9999  3.19816E-02  4.75810E+01 -1.00000E+00  1.40316E-01
      21    -1     0     0   502   512  0.000000000E+00  0.000000000E+00  1.522164773E+02  1.522164773E+02  0.000000000E+00  0.00000E+00  9.000E+00
      21    -1     0     0   501   502  0.000000000E+00  0.000000000E+00 -3.148467643E+02  3.148467643E+02  0.000000000E+00  0.00000E+00  9.000E+00
      25     1     1     2     0     0 -6.321868567E+01  7.888647869E+01 -5.849065207E+01  1.710726019E+02  1.250000000E+02  0.00000E+00  9.000E+00
      25     1     1     2     0     0  8.994934026E+01 -1.182491407E+02 -1.374668651E+02  2.378988905E+02  1.250000000E+02  0.00000E+00  9.000E+00
      21     1     1     2   501   512 -2.673065458E+01  3.936266203E+01  3.332723017E+01  5.809174922E+01  6.743495762E-07  0.00000E+00  9.000E+00
#rwgt            1           1   2.8088111687634018E-002           1      258329           0
</event>
<event>
      5   9999  3.19816E-02  2.07740E+02 -1.00000E+00  1.11051E-01
       2    -1     0     0   502     0  0.000000000E+00  0.000000000E+00  3.477541177E+03  3.477541177E+03  0.000000000E+00  0.00000E+00  9.000E+00
      21    -1     0     0   501   502  0.000000000E+00  0.000000000E+00 -3.073322614E+02  3.073322614E+02  0.000000000E+00  0.00000E+00  9.000E+00
      25     1     1     2     0     0 -2.777446482E+02 -3.185903280E+01  2.520191041E+03  2.538729007E+03  1.250000000E+02  0.00000E+00  9.000E+00
      25     1     1     2     0     0  1.500245488E+02  1.956993649E+02 -2.189681142E+02  3.526721448E+02  1.250000000E+02  0.00000E+00  9.000E+00
       2     1     1     2   501     0  1.277200994E+02 -1.638403321E+02  8.689859888E+02  8.934722866E+02  1.525878906E-05  0.00000E+00  9.000E+00
#rwgt            2          18   2.0170841740668800E-003           1      258401           0
</event>
<event>
      5   9999  3.19816E-02  2.76311E+01 -1.00000E+00  1.55563E-01
      -1    -1     0     0     0   501  0.000000000E+00  0.000000000E+00  1.891172564E+02  1.891172564E+02  0.000000000E+00  0.00000E+00  9.000E+00
      21    -1     0     0   501   502  0.000000000E+00  0.000000000E+00 -1.163603842E+03  1.163603842E+03  0.000000000E+00  0.00000E+00  9.000E+00
      25     1     1     2     0     0  3.217090479E+02 -2.302567376E+02 -4.781382053E+02  6.330529363E+02  1.250000000E+02  0.00000E+00  9.000E+00
      25     1     1     2     0     0 -3.074582737E+02  2.539293097E+02 -5.307634151E+02  6.755334834E+02  1.250000000E+02  0.00000E+00  9.000E+00
      -1     1     1     2     0   502 -1.425077417E+01 -2.367257206E+01  3.441503489E+01  4.413467864E+01  8.259061849E-07  0.00000E+00  9.000E+00
#rwgt            1           1   2.6329941191501796E-002           1      258420           0
</event>
<event>
      5   9999  3.19816E-02  4.23288E+01 -1.00000E+00  1.43332E-01
      21    -1     0     0   511   501  0.000000000E+00  0.000000000E+00  1.583414706E+03  1.583414706E+03  0.000000000E+00  0.00000E+00  9.000E+00
      21    -1     0     0   501   502  0.000000000E+00  0.000000000E+00 -9.708314200E+01  9.708314200E+01  0.000000000E+00  0.00000E+00  9.000E+00
      25     1     1     2     0     0  1.803011630E+01  3.307609077E+02  4.818086921E+02  5.979067477E+02  1.250000000E+02  0.00000E+00  9.000E+00
      25     1     1     2     0     0  1.156253019E+01 -3.004954358E+02  6.652156651E+02  7.406538194E+02  1.250000000E+02  0.00000E+00  9.000E+00
      21     1     1     2   511   502 -2.959264649E+01 -3.026547193E+01  3.393072070E+02  3.419372812E+02  5.394796609E-06  0.00000E+00  9.000E+00
#rwgt            1           1   2.9478956581968380E-002           1      258587           0
</event>
<event>
      5   9999  3.19816E-02  4.42705E+01 -1.00000E+00  1.42160E-01
       2    -1     0     0   502     0  0.000000000E+00  0.000000000E+00  3.510023918E+02  3.510023918E+02  0.000000000E+00  0.00000E+00  9.000E+00
      21    -1     0     0   501   502  0.000000000E+00  0.000000000E+00 -2.089547626E+03  2.089547626E+03  0.000000000E+00  0.00000E+00  9.000E+00
      25     1     1     2     0     0 -6.694218277E+02 -3.165734141E+02 -7.551969984E+02  1.065031369E+03  1.250000000E+02  0.00000E+00  9.000E+00
      25     1     1     2     0     0  7.136804828E+02  3.155486005E+02 -1.038372636E+03  1.304895966E+03  1.250000000E+02  0.00000E+00  9.000E+00
       2     1     1     2   501     0 -4.425865512E+01  1.024813551E+00  5.502440008E+01  7.062268332E+01  6.743495762E-07  0.00000E+00  9.000E+00
#rwgt            1           1   3.0952455027428077E-002           1      258699           0
</event>
<event>
      5   9999  3.19816E-02  1.12576E+02 -1.00000E+00  1.21557E-01
      21    -1     0     0   502   501  0.000000000E+00  0.000000000E+00  2.328102852E+02  2.328102852E+02  0.000000000E+00  0.00000E+00  9.000E+00
      21    -1     0     0   501   511  0.000000000E+00  0.000000000E+00 -7.896295113E+02  7.896295113E+02  0.000000000E+00  0.00000E+00  9.000E+00
      25     1     1     2     0     0  5.300925748E+01  2.772879847E+02 -2.353784402E+02  3.882352611E+02  1.250000000E+02  0.00000E+00  9.000E+00
      25     1     1     2     0     0 -2.645437643E+00 -3.779701785E+02 -1.425988177E+02  4.228804523E+02  1.250000000E+02  0.00000E+00  9.000E+00
      21     1     1     2   502   511 -5.036381983E+01  1.006821938E+02 -1.788419682E+02  2.113240831E+02  3.303624740E-06  0.00000E+00  9.000E+00
#rwgt            1           1   2.4927247237857164E-002           1      258836           0
</event>
<event>
      5   9999  3.19816E-02  1.70898E+01 -1.00000E+00  1.72208E-01
      21    -1     0     0   502   501  0.000000000E+00  0.000000000E+00  7.746304451E+02  7.746304451E+02  0.000000000E+00  0.00000E+00  9.000E+00
      21    -1     0     0   501   512  0.000000000E+00  0.000000000E+00 -1.131600456E+02  1.131600456E+02  0.000000000E+00  0.00000E+00  9.000E+00
      25     1     1     2     0     0  1.173653923E+02 -1.986756651E+02  3.955439764E+02  4.746858882E+02  1.250000000E+02  0.00000E+00  9.000E+00
      25     1     1     2     0     0 -1.337664612E+02  2.034782530E+02  2.795555516E+02  3.912456671E+02  1.250000000E+02  0.00000E+00  9.000E+00
      21     1     1     2   502   512  1.640106895E+01 -4.802587877E+00 -1.362912857E+01  2.185893544E+01  3.371747881E-07  0.00000E+00  9.000E+00
#rwgt            1           1   3.4894399490272246E-002           1      258901           0
</event>
<event>
      5   9999  3.19816E-02  2.13756E+02 -1.00000E+00  1.10606E-01
      21    -1     0     0   502   501  0.000000000E+00  0.000000000E+00  4.751172013E+02  4.751172013E+02  0.000000000E+00  0.00000E+00  9.000E+00
       2    -1     0     0   501     0  0.000000000E+00  0.000000000E+00 -1.824518457E+03  1.824518457E+03  0.000000000E+00  0.00000E+00  9.000E+00
      25     1     1     2     0     0  1.411801497E+02  1.944645955E+02  3.386361887E+02  4.336447647E+02  1.250000000E+02  0.00000E+00  9.000E+00
      25     1     1     2     0     0 -1.763942341E+02 -4.052999650E+02 -5.920541457E+02  7.493571237E+02  1.250000000E+02  0.00000E+00  9.000E+00
       2     1     1     2   502     0  3.521408439E+01  2.108353695E+02 -1.095983299E+03  1.116633770E+03  1.525878906E-05  0.00000E+00  9.000E+00
#rwgt            2          13   1.7648407598916274E-003           1      259127           0
</event>
<event>
      5   9999  3.19816E-02  1.85474E+02 -1.00000E+00  1.12853E-01
      21    -1     0     0   502   511  0.000000000E+00  0.000000000E+00  8.326316088E+02  8.326316088E+02  0.000000000E+00  0.00000E+00  9.000E+00
      21    -1     0     0   501   502  0.000000000E+00  0.000000000E+00 -2.252623503E+02  2.252623503E+02  0.000000000E+00  0.00000E+00  9.000E+00
      25     1     1     2     0     0 -5.340647816E+01  1.986076449E+01 -1.275231861E+02  1.874402968E+02  1.250000000E+02  0.00000E+00  9.000E+00
      25     1     1     2     0     0  1.644985722E+02  1.286624168E+02  5.793237534E+02  6.283747361E+02  1.250000000E+02  0.00000E+00  9.000E+00
      21     1     1     2   501   511 -1.110920941E+02 -1.485231813E+02  1.555686912E+02  2.420789261E+02  3.303624740E-06  0.00000E+00  9.000E+00
#rwgt            2          11   3.7716714731562502E-003           1      259176           0
</event>
<event>
      5   9999  3.19816E-02  3.36955E+01 -1.00000E+00  1.49616E-01
      21    -1     0     0   512   501  0.000000000E+00  0.000000000E+00  1.714606765E+02  1.714606765E+02  0.000000000E+00  0.00000E+00  9.000E+00
      21    -1     0     0   501   502  0.000000000E+00  0.000000000E+00 -2.798545074E+02  2.798545074E+02  0.000000000E+00  0.00000E+00  9.000E+00
      25     1     1     2     0     0 -1.140434296E+02 -2.629952483E+01  6.293426681E+01  1.824370872E+02  1.250000000E+02  0.00000E+00  9.000E+00
      25     1     1     2     0     0  9.422203397E+01  5.354834083E+01 -1.667113290E+02  2.348678005E+02  1.250000000E+02  0.00000E+00  9.000E+00
      21     1     1     2   512   502  1.982139560E+01 -2.724881600E+01 -4.616768754E+00  3.401029624E+01  5.623090942E-07  0.00000E+00  9.000E+00
#rwgt            1           1   2.5133257984208467E-002           1      259196           0
</event>
<event>
      5   9999  3.19816E-02  3.69889E+01 -1.00000E+00  1.46980E-01
      21    -1     0     0   511   501  0.000000000E+00  0.000000000E+00  2.722004721E+02  2.722004721E+02  0.000000000E+00  0.00000E+00  9.000E+00
      21    -1     0     0   501   502  0.000000000E+00  0.000000000E+00 -3.437776275E+02  3.437776275E+02  0.000000000E+00  0.00000E+00  9.000E+00
      25     1     1     2     0     0 -1.682307712E+02 -5.215083800E+01  1.156753114E+01  2.162871010E+02  1.250000000E+02  0.00000E+00  9.000E+00
      25     1     1     2     0     0  1.315902595E+02  4.708611694E+01 -2.017634358E+02  2.754388913E+02  1.250000000E+02  0.00000E+00  9.000E+00
      21     1     1     2   511   502  3.664051171E+01  5.064721066E+00  1.186187493E+02  1.242521074E+02  1.348699152E-06  0.00000E+00  9.000E+00
#rwgt            1           1   2.8414477914363793E-002           1      259266           0
</event>
<event>
      5   9999  3.19816E-02  7.65057E+01 -1.00000E+00  1.29295E-01
      21    -1     0     0   502   501  0.000000000E+00  0.000000000E+00  2.777756744E+02  2.777756744E+02  0.000000000E+00  0.00000E+00  9.000E+00
      21    -1     0     0   501   512  0.000000000E+00  0.000000000E+00 -4.291674574E+02  4.291674574E+02  0.000000000E+00  0.00000E+00  9.000E+00
      25     1     1     2     0     0 -1.771003814E+02  7.585062322E+01 -9.113120349E+01  2.470784458E+02  1.250000000E+02  0.00000E+00  9.000E+00
      25     1     1     2     0     0  2.256701952E+02 -1.673978327E+01  1.040054395E+02  2.786563992E+02  1.250000000E+02  0.00000E+00  9.000E+00
      21     1     1     2   502   512 -4.856981378E+01 -5.911083995E+01 -1.642660190E+02  1.812082868E+02  1.907348633E-06  0.00000E+00  9.000E+00
#rwgt            1           1   2.9021892745000256E-002           1      259386           0
</event>
<event>
      5   9999  3.19816E-02  1.32593E+02 -1.00000E+00  1.18557E-01
      21    -1     0     0   502   501  0.000000000E+00  0.000000000E+00  9.539590619E+02  9.539590619E+02  0.000000000E+00  0.00000E+00  9.000E+00
       2    -1     0     0   501     0  0.000000000E+00  0.000000000E+00 -2.573555850E+03  2.573555850E+03  0.000000000E+00  0.00000E+00  9.000E+00
      25     1     1     2     0     0 -6.487605004E+02 -3.545387529E+00  2.151787065E+02  6.948594336E+02  1.250000000E+02  0.00000E+00  9.000E+00
      25     1     1     2     0     0  6.792673120E+02  1.325808773E+02  2.479514285E+02  7.457121972E+02  1.250000000E+02  0.00000E+00  9.000E+00
       2     1     1     2   502     0 -3.050681155E+01 -1.290354898E+02 -2.082726923E+03  2.086943281E+03  0.000000000E+00  0.00000E+00  9.000E+00
#rwgt            1           1   2.7019252698816273E-002           1      259432           0
</event>
<event>
      5   9999  3.19816E-02  2.32233E+01 -1.00000E+00  1.61187E-01
      21    -1     0     0   502   511  0.000000000E+00  0.000000000E+00  7.210228120E+02  7.210228120E+02  0.000000000E+00  0.00000E+00  9.000E+00
      21    -1     0     0   501   502  0.000000000E+00  0.000000000E+00 -2.961150199E+02  2.961150199E+02  0.000000000E+00  0.00000E+00  9.000E+00
      25     1     1     2     0     0  1.125829178E+02  1.265773476E+02 -2.279367521E+02  3.102851935E+02  1.250000000E+02  0.00000E+00  9.000E+00
      25     1     1     2     0     0 -1.345424190E+02 -1.190207307E+02  4.269704816E+02  4.797878584E+02  1.250000000E+02  0.00000E+00  9.000E+00
      21     1     1     2   501   511  2.195950117E+01 -7.556616890E+00  2.258740626E+02  2.270647800E+02  2.697398305E-06  0.00000E+00  9.000E+00
#rwgt            1           1   2.4853996929189555E-002           1      259522           0
</event>
<event>
      5   9999  3.19816E-02  4.01135E+01 -1.00000E+00  1.44764E-01
      21    -1     0     0   512   501  0.000000000E+00  0.000000000E+00  4.631515881E+02  4.631515881E+02  0.000000000E+00  0.00000E+00  9.000E+00
      21    -1     0     0   501   502  0.000000000E+00  0.000000000E+00 -1.363896355E+03  1.363896355E+03  0.000000000E+00  0.00000E+00  9.000E+00
      25     1     1     2     0     0  9.925192424E+01  1.569338605E+02 -1.276429745E+03  1.295907819E+03  1.250000000E+02  0.00000E+00  9.000E+00
      25     1     1     2     0     0 -9.248007607E+01 -1.173960857E+02  4.753398626E+01  2.005464666E+02  1.250000000E+02  0.00000E+00  9.000E+00
      21     1     1     2   512   502 -6.771848160E+00 -3.953777477E+01  3.281509914E+02  3.305936580E+02  3.814697266E-06  0.00000E+00  9.000E+00
#rwgt            1           1   2.7217906435412123E-002           1      259699           0
</event>
<event>
      5   9999  3.19816E-02  1.50905E+02 -1.00000E+00  1.16290E-01
      21    -1     0     0   502   511  0.000000000E+00  0.000000000E+00  1.768110953E+03  1.768110953E+03  0.000000000E+00  0.00000E+00  9.000E+00
      21    -1     0     0   501   502  0.000000000E+00  0.000000000E+00 -7.262996099E+02  7.262996099E+02  0.000000000E+00  0.00000E+00  9.000E+00
      25     1     1     2     0     0 -2.765576113E+02  7.577027077E+02  7.284747864E+02  1.094028345E+03  1.250000000E+02  0.00000E+00  9.000E+00
      25     1     1     2     0     0  1.484946927E+02 -8.375288318E+02 -1.852502727E+02  8.794588571E+02  1.250000000E+02  0.00000E+00  9.000E+00
      21     1     1     2   501   511  1.280629186E+02  7.982612404E+01  4.985868296E+02  5.209233608E+02  7.629394531E-06  0.00000E+00  9.000E+00
#rwgt            1           1   2.6564463582839846E-002           1      259829           0
</event>
<event>
      5   9999  3.19816E-02  2.19148E+02 -1.00000E+00  1.10221E-01
       2    -1     0     0   502     0  0.000000000E+00  0.000000000E+00  5.758008703E+02  5.758008703E+02  0.000000000E+00  0.00000E+00  9.000E+00
      21    -1     0     0   501   502  0.000000000E+00  0.000000000E+00 -2.150669434E+02  2.150669434E+02  0.000000000E+00  0.00000E+00  9.000E+00
      25     1     1     2     0     0  1.201140125E+02  2.580900202E+02  6.639856777E+01  3.179176062E+02  1.250000000E+02  0.00000E+00  9.000E+00
      25     1     1     2     0     0 -3.897980277E+01 -5.451429237E+01  1.684913504E+02  2.202397972E+02  1.250000000E+02  0.00000E+00  9.000E+00
       2     1     1     2   501     0 -8.113420971E+01 -2.035757278E+02  1.258440087E+02  2.527104103E+02  1.907348633E-06  0.00000E+00  9.000E+00
#rwgt            1           1   3.2840718948004166E-002           1      259976           0
</event>
<event>
      5   9999  3.19816E-02  1.10649E+02 -1.00000E+00  1.21883E-01
      21    -1     0     0   502   501  0.000000000E+00  0.000000000E+00  3.400380530E+02  3.400380530E+02  0.000000000E+00  0.00000E+00  9.000E+00
      21    -1     0     0   511   502  0.000000000E+00  0.000000000E+00 -3.623529244E+02  3.623529244E+02  0.000000000E+00  0.00000E+00  9.000E+00
      25     1     1     2     0     0 -1.229747221E+02  1.141393547E+02  1.505124876E+02  2.577393712E+02  1.250000000E+02  0.00000E+00  9.000E+00
      25     1     1     2     0     0  1.646834624E+01 -1.441329798E+02  4.820573404E+01  1.974697827E+02  1.250000000E+02  0.00000E+00  9.000E+00
      21     1     1     2   511   501  1.065063758E+02  2.999362514E+01 -2.210330930E+02  2.471818235E+02  0.000000000E+00  0.00000E+00  9.000E+00
#rwgt            2          11   2.5806520709944162E-003           1      260052           0
</event>
<event>
      5   9999  3.19816E-02  1.95744E+01 -1.00000E+00  1.67144E-01
      21    -1     0     0   502   501  0.000000000E+00  0.000000000E+00  1.627698557E+02  1.627698557E+02  0.000000000E+00  0.00000E+00  9.000E+00
      21    -1     0     0   512   502  0.000000000E+00  0.000000000E+00 -4.003768946E+02  4.003768946E+02  0.000000000E+00  0.00000E+00  9.000E+00
      25     1     1     2     0     0 -6.559437672E+01 -2.009624020E+02 -1.291953313E+02  2.774976449E+02  1.250000000E+02  0.00000E+00  9.000E+00
      25     1     1     2     0     0  4.799306450E+01  1.923979012E+02 -7.355769370E+01  2.456746241E+02  1.250000000E+02  0.00000E+00  9.000E+00
      21     1     1     2   512   501  1.760131222E+01  8.564500812E+00 -3.485401397E+01  3.997448130E+01  0.000000000E+00  0.00000E+00  9.000E+00
#rwgt            1           1   2.3650279272069360E-002           1      260237           0
</event>
<event>
      5   9999  3.19816E-02  1.34986E+02 -1.00000E+00  1.18238E-01
       2    -1     0     0   502     0  0.000000000E+00  0.000000000E+00  2.730175679E+03  2.730175679E+03  0.000000000E+00  0.00000E+00  9.000E+00
      21    -1     0     0   501   502  0.000000000E+00  0.000000000E+00 -3.130904632E+02  3.130904632E+02  0.000000000E+00  0.00000E+00  9.000E+00
      25     1     1     2     0     0 -4.611754666E+02 -1.281069763E+02  3.626671326E+02  6.133894826E+02  1.250000000E+02  0.00000E+00  9.000E+00
      25     1     1     2     0     0  5.463614927E+02  2.328187936E+02  3.123207761E+02  6.825574983E+02  1.250000000E+02  0.00000E+00  9.000E+00
       2     1     1     2   501     0 -8.518602613E+01 -1.047118173E+02  1.742097307E+03  1.747319161E+03  2.157918644E-05  0.00000E+00  9.000E+00
#rwgt            1           1   2.7350832128353628E-002           1      260359           0
</event>
<event>
      5   9999  3.19816E-02  1.65573E+02 -1.00000E+00  1.14718E-01
      21    -1     0     0   511   501  0.000000000E+00  0.000000000E+00  1.034673820E+03  1.034673820E+03  0.000000000E+00  0.00000E+00  9.000E+00
      21    -1     0     0   501   502  0.000000000E+00  0.000000000E+00 -2.696246644E+02  2.696246644E+02  0.000000000E+00  0.00000E+00  9.000E+00
      25     1     1     2     0     0  5.446858354E+01 -2.241856799E+01 -2.054414655E+02  2.475896091E+02  1.250000000E+02  0.00000E+00  9.000E+00
      25     1     1     2     0     0 -1.523716016E+02 -1.111086125E+02  7.335634487E+02  7.676604471E+02  1.250000000E+02  0.00000E+00  9.000E+00
      21     1     1     2   511   502  9.790301808E+01  1.335271805E+02  2.369271729E+02  2.890484287E+02  2.697398305E-06  0.00000E+00  9.000E+00
#rwgt            1           1   2.7002403226145902E-002           1      260453           0
</event>
<event>
      5   9999  3.19816E-02  1.01049E+02 -1.00000E+00  1.23624E-01
      21    -1     0     0   502   501  0.000000000E+00  0.000000000E+00  1.355657246E+03  1.355657246E+03  0.000000000E+00  0.00000E+00  9.000E+00
      21    -1     0     0   501   512  0.000000000E+00  0.000000000E+00 -5.289560798E+01  5.289560798E+01  0.000000000E+00  0.00000E+00  9.000E+00
      25     1     1     2     0     0 -8.596453922E+01 -2.613895577E+01  7.485279914E+02  7.641938896E+02  1.250000000E+02  0.00000E+00  9.000E+00
      25     1     1     2     0     0  8.553864049E+01 -7.490909079E+01  5.038809226E+02  5.314595140E+02  1.250000000E+02  0.00000E+00  9.000E+00
      21     1     1     2   502   512  4.258987299E-01  1.010480466E+02  5.035272429E+01  1.128994506E+02  6.743495762E-07  0.00000E+00  9.000E+00
#rwgt            2          11   8.0511640550692265E-003           1      260530           0
</event>
<event>
      5   9999  3.19816E-02  6.78445E+01 -1.00000E+00  1.31912E-01
      21    -1     0     0   502   511  0.000000000E+00  0.000000000E+00  1.277611649E+03  1.277611649E+03  0.000000000E+00  0.00000E+00  9.000E+00
      21    -1     0     0   501   502  0.000000000E+00  0.000000000E+00 -3.589415016E+02  3.589415016E+02  0.000000000E+00  0.00000E+00  9.000E+00
      25     1     1     2     0     0 -1.608624180E+02 -5.471498712E+02  1.268899541E+02  5.974744844E+02  1.250000000E+02  0.00000E+00  9.000E+00
      25     1     1     2     0     0  1.892561671E+02  4.855326889E+02  4.781707039E+02  7.182145298E+02  1.250000000E+02  0.00000E+00  9.000E+00
      21     1     1     2   501   511 -2.839374907E+01  6.161718235E+01  3.136094899E+02  3.208641368E+02  0.000000000E+00  0.00000E+00  9.000E+00
#rwgt            1           1   2.8515462563279186E-002           1      260550           0
</event>
<event>
      5   9999  3.19816E-02  1.86183E+01 -1.00000E+00  1.68976E-01
      21    -1     0     0   502   512  0.000000000E+00  0.000000000E+00  1.918486819E+02  1.918486819E+02  0.000000000E+00  0.00000E+00  9.000E+00
      21    -1     0     0   501   502  0.000000000E+00  0.000000000E+00 -6.197088582E+02  6.197088582E+02  0.000000000E+00  0.00000E+00  9.000E+00
      25     1     1     2     0     0  5.269337210E+01  5.098330740E+01 -5.744904434E+02  5.924864207E+02  1.250000000E+02  0.00000E+00  9.000E+00
      25     1     1     2     0     0 -5.972507569E+01 -3.374392422E+01  1.188215134E+02  1.856051969E+02  1.250000000E+02  0.00000E+00  9.000E+00
      21     1     1     2   501   512  7.031703593E+00 -1.723938318E+01  2.780875372E+01  3.346592254E+01  4.768371582E-07  0.00000E+00  9.000E+00
#rwgt            1           1   3.0751053283393386E-002           1      260684           0
</event>
<event>
      5   9999  3.19816E-02  5.11806E+02 -1.00000E+00  9.85649E-02
      21    -1     0     0   511   501  0.000000000E+00  0.000000000E+00  1.508881604E+03  1.508881604E+03  0.000000000E+00  0.00000E+00  9.000E+00
      21    -1     0     0   501   502  0.000000000E+00  0.000000000E+00 -1.058564276E+03  1.058564276E+03  0.000000000E+00  0.00000E+00  9.000E+00
      25     1     1     2     0     0  1.879593782E+02  1.065434169E+03  7.208981327E+02  1.306061949E+03  1.250000000E+02  0.00000E+00  9.000E+00
      25     1     1     2     0     0 -2.809268547E+02 -5.621421597E+02 -3.701635352E+02  7.399795593E+02  1.250000000E+02  0.00000E+00  9.000E+00
      21     1     1     2   511   502  9.296747650E+01 -5.032920091E+02  9.958273046E+01  5.214043712E+02  1.136434106E-05  0.00000E+00  9.000E+00
#rwgt            2          11   3.3131258157816364E-003           1      260810           0
</event>
<event>
      5   9999  3.19816E-02  9.70005E+01 -1.00000E+00  1.24426E-01
      21    -1     0     0   502   501  0.000000000E+00  0.000000000E+00  9.123886794E+02  9.123886794E+02  0.000000000E+00  0.00000E+00  9.000E+00
      -1    -1     0     0     0   502  0.000000000E+00  0.000000000E+00 -3.945380672E+02  3.945380672E+02  0.000000000E+00  0.00000E+00  9.000E+00
      25     1     1     2     0     0 -1.985686172E+02 -2.634355047E+01  1.745069947E+01  2.367551590E+02  1.250000000E+02  0.00000E+00  9.000E+00
      25     1     1     2     0     0  2.681291815E+02  9.394844332E+01  7.449812057E+02  8.070573491E+02  1.250000000E+02  0.00000E+00  9.000E+00
      -1     1     1     2     0   501 -6.956056428E+01 -6.760489285E+01 -2.445812930E+02  2.631142385E+02  0.000000000E+00  0.00000E+00  9.000E+00
#rwgt            1           1   2.5467973844618397E-002           1      260845           0
</event>
<event>
      5   9999  3.19816E-02  1.87772E+01 -1.00000E+00  1.68662E-01
      -1    -1     0     0     0   501  0.000000000E+00  0.000000000E+00  2.749823406E+02  2.749823406E+02  0.000000000E+00  0.00000E+00  9.000E+00
      21    -1     0     0   501   502  0.000000000E+00  0.000000000E+00 -7.049105920E+02  7.049105920E+02  0.000000000E+00  0.00000E+00  9.000E+00
      25     1     1     2     0     0  3.118847726E+01  1.747454106E+02 -3.034699431E+02  3.731322634E+02  1.250000000E+02  0.00000E+00  9.000E+00
      25     1     1     2     0     0 -4.028548023E+01 -1.911718168E+02 -3.294489241E+02  4.029034339E+02  1.250000000E+02  0.00000E+00  9.000E+00
      -1     1     1     2     0   502  9.097002966E+00  1.642640620E+01  2.029906158E+02  2.038572353E+02  2.697398305E-06  0.00000E+00  9.000E+00
#rwgt            1           1   3.1615197782526847E-002           1      260965           0
</event>
<event>
      5   9999  3.19816E-02  2.44328E+02 -1.00000E+00  1.08572E-01
       1    -1     0     0   502     0  0.000000000E+00  0.000000000E+00  1.341149958E+03  1.341149958E+03  0.000000000E+00  0.00000E+00  9.000E+00
      21    -1     0     0   501   502  0.000000000E+00  0.000000000E+00 -7.700547120E+02  7.700547120E+02  0.000000000E+00  0.00000E+00  9.000E+00
      25     1     1     2     0     0 -3.566503304E+02 -4.333729231E+02  2.316252490E+02  6.199087066E+02  1.250000000E+02  0.00000E+00  9.000E+00
      25     1     1     2     0     0  5.022558940E+02  2.371709959E+02 -4.109184442E+02  7.021324890E+02  1.250000000E+02  0.00000E+00  9.000E+00
       1     1     1     2   501     0 -1.456055637E+02  1.962019272E+02  7.503884415E+02  7.891634745E+02  1.078959322E-05  0.00000E+00  9.000E+00
#rwgt            2          17   7.8478464241907493E-004           1      261223           0
</event>
<event>
      5   9999  3.19816E-02  1.04235E+02 -1.00000E+00  1.23023E-01
       4    -1     0     0   502     0  0.000000000E+00  0.000000000E+00  1.173879819E+03  1.173879819E+03  0.000000000E+00  0.00000E+00  9.000E+00
      21    -1     0     0   501   502  0.000000000E+00  0.000000000E+00 -3.397485135E+02  3.397485135E+02  0.000000000E+00  0.00000E+00  9.000E+00
      25     1     1     2     0     0 -3.411428604E+01 -4.570459407E+02  2.834792205E+02  5.532090427E+02  1.250000000E+02  0.00000E+00  9.000E+00
      25     1     1     2     0     0  1.185507822E+01  5.588765766E+02  2.197921334E+02  6.135284449E+02  1.250000000E+02  0.00000E+00  9.000E+00
       4     1     1     2   501     0  2.225920782E+01 -1.018306359E+02  3.308599512E+02  3.468908446E+02  7.629394531E-06  0.00000E+00  9.000E+00
#rwgt            2          20   1.1998636580196006E-005           1      261377           0
</event>
<event>
      5   9999  3.19816E-02  4.77178E+01 -1.00000E+00  1.40243E-01
      21    -1     0     0   502   501  0.000000000E+00  0.000000000E+00  8.214517904E+02  8.214517904E+02  0.000000000E+00  0.00000E+00  9.000E+00
       2    -1     0     0   501     0  0.000000000E+00  0.000000000E+00 -1.441033147E+03  1.441033147E+03  0.000000000E+00  0.00000E+00  9.000E+00
      25     1     1     2     0     0  4.407483176E+02 -4.438045602E+02  6.640650413E+01  6.412927497E+02  1.250000000E+02  0.00000E+00  9.000E+00
      25     1     1     2     0     0 -4.002964568E+02  4.691152981E+02  2.550418390E+02  6.789534269E+02  1.250000000E+02  0.00000E+00  9.000E+00
       2     1     1     2   502     0 -4.045186071E+01 -2.531073795E+01 -9.410296995E+02  9.422387605E+02  0.000000000E+00  0.00000E+00  9.000E+00
#rwgt            1           1   3.5421135871472276E-002           1      261396           0
</event>
<event>
      5   9999  3.19816E-02  6.69918E+01 -1.00000E+00  1.32194E-01
      21    -1     0     0   511   501  0.000000000E+00  0.000000000E+00  1.747761876E+02  1.747761876E+02  0.000000000E+00  0.00000E+00  9.000E+00
      21    -1     0     0   501   502  0.000000000E+00  0.000000000E+00 -8.405509461E+02  8.405509461E+02  0.000000000E+00  0.00000E+00  9.000E+00
      25     1     1     2     0     0 -1.812194874E+02 -1.413545200E+02 -6.830963557E+01  2.703938040E+02  1.250000000E+02  0.00000E+00  9.000E+00
      25     1     1     2     0     0  1.566484147E+02  2.036775357E+02 -6.128564821E+02  6.761962230E+02  1.250000000E+02  0.00000E+00  9.000E+00
      21     1     1     2   511   502  2.457107275E+01 -6.232301567E+01  1.539135914E+01  6.873710668E+01  1.479348379E-06  0.00000E+00  9.000E+00
#rwgt            1           1   2.6120522701836475E-002           1      261586           0
</event>
<event>
      5   9999  3.19816E-02  4.73745E+01 -1.00000E+00  1.40425E-01
      -5    -1     0     0     0   501  0.000000000E+00  0.000000000E+00  3.921027852E+02  3.921027852E+02  0.000000000E+00  0.00000E+00  9.000E+00
      21    -1     0     0   501   502  0.000000000E+00  0.000000000E+00 -6.666601489E+02  6.666601489E+02  0.000000000E+00  0.00000E+00  9.000E+00
      25     1     1     2     0     0  2.211193552E+02  1.687317326E+02 -3.499194948E+02  4.641474116E+02  1.250000000E+02  0.00000E+00  9.000E+00
      25     1     1     2     0     0 -2.629901957E+02 -1.908941648E+02 -1.391338277E+02  3.749501930E+02  1.250000000E+02  0.00000E+00  9.000E+00
      -5     1     1     2     0   502  4.187084058E+01  2.216243217E+01  2.144959588E+02  2.196653296E+02  5.394796609E-06  0.00000E+00  9.000E+00
#rwgt            1           1   2.7521220612233777E-002           1      261668           0
</event>
<event>
      5   9999  3.19816E-02  3.26612E+01 -1.00000E+00  1.50520E-01
      21    -1     0     0   502   501  0.000000000E+00  0.000000000E+00  3.874439895E+02  3.874439895E+02  0.000000000E+00  0.00000E+00  9.000E+00
       1    -1     0     0   501     0  0.000000000E+00  0.000000000E+00 -1.216760129E+03  1.216760129E+03  0.000000000E+00  0.00000E+00  9.000E+00
      25     1     1     2     0     0  2.482306617E+02  1.262229279E+02  8.047937342E+01  3.156780297E+02  1.250000000E+02  0.00000E+00  9.000E+00
      25     1     1     2     0     0 -2.758140516E+02 -1.437131785E+02  4.053776820E+01  3.376317215E+02  1.250000000E+02  0.00000E+00  9.000E+00
       1     1     1     2   502     0  2.758338994E+01  1.749025067E+01 -9.503332816E+02  9.508943677E+02  1.868812365E-05  0.00000E+00  9.000E+00
#rwgt            1           1   2.8157071775006318E-002           1      261750           0
</event>
<event>
      5   9999  3.19816E-02  3.02571E+01 -1.00000E+00  1.52783E-01
      -1    -1     0     0     0   501  0.000000000E+00  0.000000000E+00  9.284005487E+02  9.284005487E+02  0.000000000E+00  0.00000E+00  9.000E+00
      21    -1     0     0   501   502  0.000000000E+00  0.000000000E+00 -1.029067125E+03  1.029067125E+03  0.000000000E+00  0.00000E+00  9.000E+00
      25     1     1     2     0     0 -1.253392796E+02 -1.494183165E+02 -3.347130710E+02  4.070547976E+02  1.250000000E+02  0.00000E+00  9.000E+00
      25     1     1     2     0     0  1.481599565E+02  1.295511107E+02 -6.372646581E+02  6.785765303E+02  1.250000000E+02  0.00000E+00  9.000E+00
      -1     1     1     2     0   502 -2.282067689E+01  1.986720579E+01  8.713111528E+02  8.718363460E+02  1.525878906E-05  0.00000E+00  9.000E+00
#rwgt            1           1   2.8604254245599595E-002           1      261902           0
</event>
<event>
      5   9999  3.19816E-02  1.43286E+01 -1.00000E+00  1.79278E-01
      21    -1     0     0   502   501  0.000000000E+00  0.000000000E+00  2.227945742E+02  2.227945742E+02  0.000000000E+00  0.00000E+00  9.000E+00
      21    -1     0     0   501   511  0.000000000E+00  0.000000000E+00 -1.588157777E+03  1.588157777E+03  0.000000000E+00  0.00000E+00  9.000E+00
      25     1     1     2     0     0  4.561534482E+02  2.502813140E+01 -2.136372499E+02  5.195846901E+02  1.250000000E+02  0.00000E+00  9.000E+00
      25     1     1     2     0     0 -4.549753527E+02 -1.074807686E+01 -7.292425261E+02  8.686413268E+02  1.250000000E+02  0.00000E+00  9.000E+00
      21     1     1     2   502   511 -1.178095470E+00 -1.428005454E+01 -4.224834263E+02  4.227263339E+02  0.000000000E+00  0.00000E+00  9.000E+00
#rwgt            1           1   2.8070325059691426E-002           1      262010           0
</event>
<event>
      5   9999  3.19816E-02  3.27504E+01 -1.00000E+00  1.50440E-01
      21    -1     0     0   502   501  0.000000000E+00  0.000000000E+00  3.055615231E+02  3.055615231E+02  0.000000000E+00  0.00000E+00  9.000E+00
       2    -1     0     0   501     0  0.000000000E+00  0.000000000E+00 -2.252003755E+03  2.252003755E+03  0.000000000E+00  0.00000E+00  9.000E+00
      25     1     1     2     0     0  2.586229710E+02  2.828286082E+02 -4.715039442E+02  6.203376759E+02  1.250000000E+02  0.00000E+00  9.000E+00
      25     1     1     2     0     0 -2.450821245E+02 -3.126486706E+02  4.323706918E+01  4.186990364E+02  1.250000000E+02  0.00000E+00  9.000E+00
       2     1     1     2   502     0 -1.354084659E+01  2.982006239E+01 -1.518175357E+03  1.518528566E+03  2.157918644E-05  0.00000E+00  9.000E+00
#rwgt            1           1   2.5728984581410628E-002           1      262283           0
</event>
<event>
      5   9999  3.19816E-02  6.56325E+01 -1.00000E+00  1.32654E-01
      21    -1     0     0   502   501  0.000000000E+00  0.000000000E+00  7.187305207E+01  7.187305207E+01  0.000000000E+00  0.00000E+00  9.000E+00
      21    -1     0     0   511   502  0.000000000E+00  0.000000000E+00 -1.277485162E+03  1.277485162E+03  0.000000000E+00  0.00000E+00  9.000E+00
      25     1     1     2     0     0 -4.373381874E+01 -9.480524366E-01 -1.208648749E+01  1.329835662E+02  1.250000000E+02  0.00000E+00  9.000E+00
      25     1     1     2     0     0  9.424090425E+01  4.286056943E+01 -7.039241637E+02  7.223936633E+02  1.250000000E+02  0.00000E+00  9.000E+00
      21     1     1     2   511   501 -5.050708551E+01 -4.191251699E+01 -4.896014591E+02  4.939809850E+02  7.629394531E-06  0.00000E+00  9.000E+00
#rwgt            1           1   1.7307670592189930E-002           1      262420           0
</event>
<event>
      5   9999  3.19816E-02  1.52129E+02 -1.00000E+00  1.16152E-01
      21    -1     0     0   502   512  0.000000000E+00  0.000000000E+00  1.294841482E+03  1.294841482E+03  0.000000000E+00  0.00000E+00  9.000E+00
      21    -1     0     0   501   502  0.000000000E+00  0.000000000E+00 -6.160078408E+02  6.160078408E+02  0.000000000E+00  0.00000E+00  9.000E+00
      25     1     1     2     0     0 -6.079006759E+02  4.829137799E+02 -3.685261896E+01  7.872306308E+02  1.250000000E+02  0.00000E+00  9.000E+00
      25     1     1     2     0     0  5.872508757E+02 -3.321924681E+02  4.600063188E+02  8.261030445E+02  1.250000000E+02  0.00000E+00  9.000E+00
      21     1     1     2   501   512  2.064980019E+01 -1.507213118E+02  2.556799417E+02  2.975156477E+02  5.394796609E-06  0.00000E+00  9.000E+00
#rwgt            2          11   5.2636130139964094E-003           1      262526           0
</event>
<event>
      5   9999  3.19816E-02  3.34464E+01 -1.00000E+00  1.49830E-01
      21    -1     0     0   502   501  0.000000000E+00  0.000000000E+00  7.068262426E+01  7.068262426E+01  0.000000000E+00  0.00000E+00  9.000E+00
       2    -1     0     0   501     0  0.000000000E+00  0.000000000E+00 -4.767219646E+03  4.767219646E+03  0.000000000E+00  0.00000E+00  9.000E+00
      25     1     1     2     0     0 -2.783794793E+02  3.175731784E+02 -2.387560090E+03  2.427841848E+03  1.250000000E+02  0.00000E+00  9.000E+00
      25     1     1     2     0     0  2.449420392E+02 -3.168011173E+02 -8.233915663E+02  9.240985996E+02  1.250000000E+02  0.00000E+00  9.000E+00
       2     1     1     2   502     0  3.343744008E+01 -7.720611620E-01 -1.485585366E+03  1.485961823E+03  3.051757812E-05  0.00000E+00  9.000E+00
#rwgt            1           1   3.3380574931557737E-002           1      262546           0
</event>
<event>
      5   9999  3.19816E-02  8.28911E+01 -1.00000E+00  1.27608E-01
      21    -1     0     0   502   501  0.000000000E+00  0.000000000E+00  3.326004819E+02  3.326004819E+02  0.000000000E+00  0.00000E+00  9.000E+00
      21    -1     0     0   501   511  0.000000000E+00  0.000000000E+00 -9.255414821E+02  9.255414821E+02  0.000000000E+00  0.00000E+00  9.000E+00
      25     1     1     2     0     0 -3.561844297E+01 -1.588056230E+02 -1.210937986E+02  2.382784242E+02  1.250000000E+02  0.00000E+00  9.000E+00
      25     1     1     2     0     0 -3.673598867E+01  1.992503811E+02  2.193508597E+02  3.237129081E+02  1.250000000E+02  0.00000E+00  9.000E+00
      21     1     1     2   502   511  7.235443164E+01 -4.044475811E+01 -6.911980612E+02  6.961506317E+02  0.000000000E+00  0.00000E+00  9.000E+00
#rwgt            1           1   2.8497739740498764E-002           1      262785           0
</event>
<event>
      5   9999  3.19816E-02  3.48198E+01 -1.00000E+00  1.48677E-01
      21    -1     0     0   502   512  0.000000000E+00  0.000000000E+00  2.790472373E+02  2.790472373E+02  0.000000000E+00  0.00000E+00  9.000E+00
      21    -1     0     0   501   502  0.000000000E+00  0.000000000E+00 -4.224948941E+02  4.224948941E+02  0.000000000E+00  0.00000E+00  9.000E+00
      25     1     1     2     0     0  1.497366628E+01  3.045685082E+02 -5.584842895E+01  3.342607274E+02  1.250000000E+02  0.00000E+00  9.000E+00
      25     1     1     2     0     0 -4.447280475E+01 -2.860693577E+02 -9.920973112E+01  3.305768875E+02  1.250000000E+02  0.00000E+00  9.000E+00
      21     1     1     2   501   512  2.949913847E+01 -1.849915053E+01  1.161050323E+01  3.670451643E+01  7.907449699E-07  0.00000E+00  9.000E+00
#rwgt            1           1   2.9303438071272003E-002           1      262849           0
</event>
<event>
      5   9999  3.19816E-02  2.53230E+01 -1.00000E+00  1.58334E-01
      21    -1     0     0   502   511  0.000000000E+00  0.000000000E+00  9.566323804E+02  9.566323804E+02  0.000000000E+00  0.00000E+00  9.000E+00
      21    -1     0     0   501   502  0.000000000E+00  0.000000000E+00 -8.615018304E+01  8.615018304E+01  0.000000000E+00  0.00000E+00  9.000E+00
      25     1     1     2     0     0 -8.007456592E+01 -3.830613835E+01  1.709655267E+02  2.296377749E+02  1.250000000E+02  0.00000E+00  9.000E+00
      25     1     1     2     0     0  8.992646499E+01  1.497821320E+01  4.921776256E+01  1.623530232E+02  1.250000000E+02  0.00000E+00  9.000E+00
      21     1     1     2   501   511 -9.851899075E+00  2.332792514E+01  6.502989081E+02  6.507917654E+02  7.629394531E-06  0.00000E+00  9.000E+00
#rwgt            2          11   2.7540465632783003E-003           1      262972           0
</event>
<event>
      5   9999  3.19816E-02  8.50655E+01 -1.00000E+00  1.27072E-01
       2    -1     0     0   502     0  0.000000000E+00  0.000000000E+00  2.167169721E+03  2.167169721E+03  0.000000000E+00  0.00000E+00  9.000E+00
      21    -1     0     0   501   502  0.000000000E+00  0.000000000E+00 -3.722948639E+01  3.722948639E+01  0.000000000E+00  0.00000E+00  9.000E+00
      25     1     1     2     0     0 -1.437338441E+02  1.068927903E+02  7.124563954E+02  7.451876286E+02  1.250000000E+02  0.00000E+00  9.000E+00
      25     1     1     2     0     0  6.048490028E+01 -1.243785486E+02  4.377597542E+02  4.758014805E+02  1.250000000E+02  0.00000E+00  9.000E+00
       2     1     1     2   501     0  8.324894383E+01  1.748575833E+01  9.797240848E+02  9.834100979E+02  1.078959322E-05  0.00000E+00  9.000E+00
#rwgt            1           1   3.4342265856911434E-002           1      263007           0
</event>
<event>
      5   9999  3.19816E-02  7.26332E+01 -1.00000E+00  1.30414E-01
      21    -1     0     0   502   501  0.000000000E+00  0.000000000E+00  6.779674627E+02  6.779674627E+02  0.000000000E+00  0.00000E+00  9.000E+00
      21    -1     0     0   511   502  0.000000000E+00  0.000000000E+00 -1.904274170E+03  1.904274170E+03  0.000000000E+00  0.00000E+00  9.000E+00
      25     1     1     2     0     0 -5.165059139E+02 -8.087219559E+02  1.057287451E+01  9.677532468E+02  1.250000000E+02  0.00000E+00  9.000E+00
      25     1     1     2     0     0  5.745446860E+02  7.650518187E+02 -1.144185395E+03  1.496726796E+03  1.250000000E+02  0.00000E+00  9.000E+00
      21     1     1     2   511   501 -5.803877204E+01  4.367013721E+01 -9.269418599E+01  1.177615899E+02  1.348699152E-06  0.00000E+00  9.000E+00
#rwgt            1           1   2.7194193798776481E-002           1      263065           0
</event>
<event>
      5   9999  3.19816E-02  2.90907E+01 -1.00000E+00  1.53974E-01
      21    -1     0     0   502   512  0.000000000E+00  0.000000000E+00  6.581593554E+01  6.581593554E+01  0.000000000E+00  0.00000E+00  9.000E+00
      21    -1     0     0   501   502  0.000000000E+00  0.000000000E+00 -1.567375006E+03  1.567375006E+03  0.000000000E+00  0.00000E+00  9.000E+00
      25     1     1     2     0     0  1.356765815E+02  4.862949071E+01 -1.309126281E+03  1.322954867E+03  1.250000000E+02  0.00000E+00  9.000E+00
      25     1     1     2     0     0 -1.572548788E+02 -6.813956953E+01 -1.814417897E+02  2.791383544E+02  1.250000000E+02  0.00000E+00  9.000E+00
      21     1     1     2   501   512  2.157829735E+01  1.951007883E+01 -1.099099995E+01  3.109771972E+01  8.840797528E-07  0.00000E+00  9.000E+00
#rwgt            1           1   2.6261986625147390E-002           1      263236           0
</event>
<event>
      5   9999  3.19816E-02  7.64076E+01 -1.00000E+00  1.29323E-01
      21    -1     0     0   502   501  0.000000000E+00  0.000000000E+00  6.263433762E+02  6.263433762E+02  0.000000000E+00  0.00000E+00  9.000E+00
      -2    -1     0     0     0   502  0.000000000E+00  0.000000000E+00 -7.187011869E+02  7.187011869E+02  0.000000000E+00  0.00000E+00  9.000E+00
      25     1     1     2     0     0  1.417430795E+02  1.500889314E+02  3.927782051E+02  4.609962108E+02  1.250000000E+02  0.00000E+00  9.000E+00
      25     1     1     2     0     0 -8.437045712E+01 -2.005518307E+02  1.171557240E+02  2.769293674E+02  1.250000000E+02  0.00000E+00  9.000E+00
      -2     1     1     2     0   501 -5.737262235E+01  5.046289926E+01 -6.022917398E+02  6.071189850E+02  1.078959322E-05  0.00000E+00  9.000E+00
#rwgt            1           1   2.7943852553481016E-002           1      263335           0
</event>
<event>
      5   9999  3.19816E-02  5.40210E+01 -1.00000E+00  1.37186E-01
      21    -1     0     0   502   501  0.000000000E+00  0.000000000E+00  2.468893109E+02  2.468893109E+02  0.000000000E+00  0.00000E+00  9.000E+00
      21    -1     0     0   511   502  0.000000000E+00  0.000000000E+00 -6.782394596E+02  6.782394596E+02  0.000000000E+00  0.00000E+00  9.000E+00
      25     1     1     2     0     0  2.441009534E+02 -6.955845098E+01 -3.847571495E+02  4.775842519E+02  1.250000000E+02  0.00000E+00  9.000E+00
      25     1     1     2     0     0 -2.867211504E+02  1.027516581E+02  5.374616754E+01  3.335874276E+02  1.250000000E+02  0.00000E+00  9.000E+00
      21     1     1     2   511   501  4.262019699E+01 -3.319320711E+01 -1.003391668E+02  1.139570910E+02  0.000000000E+00  0.00000E+00  9.000E+00
#rwgt            1           1   2.8129136854158476E-002           1      263403           0
</event>
<event>
      5   9999  3.19816E-02  1.07849E+02 -1.00000E+00  1.22370E-01
      21    -1     0     0   502   501  0.000000000E+00  0.000000000E+00  2.491293907E+03  2.491293907E+03  0.000000000E+00  0.00000E+00  9.000E+00
      21    -1     0     0   512   502  0.000000000E+00  0.000000000E+00 -1.066129575E+02  1.066129575E+02  0.000000000E+00  0.00000E+00  9.000E+00
      25     1     1     2     0     0  1.556059919E+02  1.929457533E+02  2.630420737E+02  3.824361659E+02  1.250000000E+02  0.00000E+00  9.000E+00
      25     1     1     2     0     0 -2.624297490E+02 -2.077823836E+02  2.061000185E+03  2.091743210E+03  1.250000000E+02  0.00000E+00  9.000E+00
      21     1     1     2   512   501  1.068237571E+02  1.483663025E+01  6.063869027E+01  1.237274886E+02  2.780414531E-06  0.00000E+00  9.000E+00
#rwgt            1           1   7.7931284999414097E-002           1      263518           0
</event>
<event>
      5   9999  3.19816E-02  1.66186E+02 -1.00000E+00  1.14657E-01
      21    -1     0     0   511   501  0.000000000E+00  0.000000000E+00  9.200888887E+02  9.200888887E+02  0.000000000E+00  0.00000E+00  9.000E+00
      21    -1     0     0   501   502  0.000000000E+00  0.000000000E+00 -1.759568758E+03  1.759568758E+03  0.000000000E+00  0.00000E+00  9.000E+00
      25     1     1     2     0     0  6.188033755E+02  7.772845116E+02 -9.515824264E+02  1.381384430E+03  1.250000000E+02  0.00000E+00  9.000E+00
      25     1     1     2     0     0 -5.878956073E+02 -9.405714853E+02  1.542750296E+02  1.126819306E+03  1.250000000E+02  0.00000E+00  9.000E+00
      21     1     1     2   511   502 -3.090776817E+01  1.632869737E+02 -4.217247244E+01  1.714539103E+02  2.567846683E-06  0.00000E+00  9.000E+00
#rwgt            1           1   6.3631936698924890E-002           1      263616           0
</event>
<event>
      5   9999  3.19816E-02  1.65724E+01 -1.00000E+00  1.73400E-01
      21    -1     0     0   512   501  0.000000000E+00  0.000000000E+00  4.928154663E+02  4.928154663E+02  0.000000000E+00  0.00000E+00  9.000E+00
      21    -1     0     0   501   502  0.000000000E+00  0.000000000E+00 -2.380010498E+02  2.380010498E+02  0.000000000E+00  0.00000E+00  9.000E+00
      25     1     1     2     0     0 -1.832404755E+02 -1.879517495E+02  1.927106569E+02  3.488055752E+02  1.250000000E+02  0.00000E+00  9.000E+00
      25     1     1     2     0     0  1.667087490E+02  1.867913259E+02 -3.633726086E+01  2.821846966E+02  1.250000000E+02  0.00000E+00  9.000E+00
      21     1     1     2   512   502  1.653172643E+01  1.160423574E+00  9.844102042E+01  9.982624436E+01  1.348699152E-06  0.00000E+00  9.000E+00
#rwgt            1           1   3.1758773238742183E-002           1      263733           0
</event>
<event>
      5   9999  3.19816E-02  2.24397E+01 -1.00000E+00  1.62348E-01
      21    -1     0     0   502   501  0.000000000E+00  0.000000000E+00  2.858389858E+02  2.858389858E+02  0.000000000E+00  0.00000E+00  9.000E+00
      21    -1     0     0   501   511  0.000000000E+00  0.000000000E+00 -2.372403362E+02  2.372403362E+02  0.000000000E+00  0.00000E+00  9.000E+00
      25     1     1     2     0     0 -1.587799528E+02 -4.294777861E+01 -4.978496285E+01  2.125067708E+02  1.250000000E+02  0.00000E+00  9.000E+00
      25     1     1     2     0     0  1.755026046E+02  2.798471720E+01  1.433592334E+02  2.603097740E+02  1.250000000E+02  0.00000E+00  9.000E+00
      21     1     1     2   502   511 -1.672265182E+01  1.496306141E+01 -4.497562098E+01  5.026277721E+01  9.536743164E-07  0.00000E+00  9.000E+00
#rwgt            1           1   3.1616099543037866E-002           1      263915           0
</event>
<event>
      5   9999  3.19816E-02  9.18288E+01 -1.00000E+00  1.25516E-01
      21    -1     0     0   502   501  0.000000000E+00  0.000000000E+00  1.989833350E+02  1.989833350E+02  0.000000000E+00  0.00000E+00  9.000E+00
       2    -1     0     0   501     0  0.000000000E+00  0.000000000E+00 -6.374350757E+02  6.374350757E+02  0.000000000E+00  0.00000E+00  9.000E+00
      25     1     1     2     0     0 -7.238124549E+01 -2.483571222E+02 -1.400394627E+02  3.196190795E+02  1.250000000E+02  0.00000E+00  9.000E+00
      25     1     1     2     0     0  9.598251096E+01  1.596130188E+02 -2.182552257E+01  2.253670597E+02  1.250000000E+02  0.00000E+00  9.000E+00
       2     1     1     2   502     0 -2.360126547E+01  8.874410344E+01 -2.765867554E+02  2.914322715E+02  3.814697266E-06  0.00000E+00  9.000E+00
#rwgt            1           1   2.6202931189002184E-002           1      264091           0
</event>
<event>
      5   9999  3.19816E-02  3.07928E+02 -1.00000E+00  1.05225E-01
      21    -1     0     0   511   501  0.000000000E+00  0.000000000E+00  3.820930314E+02  3.820930314E+02  0.000000000E+00  0.00000E+00  9.000E+00
      21    -1     0     0   501   502  0.000000000E+00  0.000000000E+00 -2.446923298E+03  2.446923298E+03  0.000000000E+00  0.00000E+00  9.000E+00
      25     1     1     2     0     0  3.318435224E+02 -3.160477424E+02 -1.038322310E+03  1.141816324E+03  1.250000000E+02  0.00000E+00  9.000E+00
      25     1     1     2     0     0 -4.502673857E+02  3.180274710E+01 -1.231310304E+03  1.317384605E+03  1.250000000E+02  0.00000E+00  9.000E+00
      21     1     1     2   511   502  1.184238633E+02  2.842449953E+02  2.048023472E+02  3.698154001E+02  5.394796609E-06  0.00000E+00  9.000E+00
#rwgt            2          11   2.2712400858833089E-002           1      264175           0
</event>
<event>
      5   9999  3.19816E-02  1.87259E+02 -1.00000E+00  1.12699E-01
      21    -1     0     0   502   501  0.000000000E+00  0.000000000E+00  4.058854419E+02  4.058854419E+02  0.000000000E+00  0.00000E+00  9.000E+00
      21    -1     0     0   501   512  0.000000000E+00  0.000000000E+00 -7.251386105E+02  7.251386105E+02  0.000000000E+00  0.00000E+00  9.000E+00
      25     1     1     2     0     0 -2.442964610E+02  2.748675849E+02  9.106072875E+00  3.885110946E+02  1.250000000E+02  0.00000E+00  9.000E+00
      25     1     1     2     0     0  1.260658743E+02 -4.200825365E+02 -1.403637640E+02  4.771676104E+02  1.250000000E+02  0.00000E+00  9.000E+00
      21     1     1     2   502   512  1.182305867E+02  1.452149516E+02 -1.879954775E+02  2.653453474E+02  2.697398305E-06  0.00000E+00  9.000E+00
#rwgt            1           1   2.6996808310113262E-002           1      264225           0
</event>
<event>
      5   9999  3.19816E-02  8.09931E+01 -1.00000E+00  1.28091E-01
      21    -1     0     0   502   501  0.000000000E+00  0.000000000E+00  9.167307560E+02  9.167307560E+02  0.000000000E+00  0.00000E+00  9.000E+00
       2    -1     0     0   501     0  0.000000000E+00  0.000000000E+00 -6.414881218E+02  6.414881218E+02  0.000000000E+00  0.00000E+00  9.000E+00
      25     1     1     2     0     0 -7.929612250E+01  3.807414626E+02  7.771957491E+02  8.780149024E+02  1.250000000E+02  0.00000E+00  9.000E+00
      25     1     1     2     0     0  8.176632013E+00 -3.419870966E+02 -4.663855628E+02  5.917453209E+02  1.250000000E+02  0.00000E+00  9.000E+00
       2     1     1     2   502     0  7.111949049E+01 -3.875436597E+01 -3.556755199E+01  8.845865454E+01  1.966049969E-06  0.00000E+00  9.000E+00
#rwgt            1           1   3.3357276367907238E-002           1      264261           0
</event>
<event>
      5   9999  3.19816E-02  1.60809E+02 -1.00000E+00  1.15208E-01
      21    -1     0     0   502   501  0.000000000E+00  0.000000000E+00  7.786589076E+01  7.786589076E+01  0.000000000E+00  0.00000E+00  9.000E+00
       2    -1     0     0   501     0  0.000000000E+00  0.000000000E+00 -1.227744324E+03  1.227744324E+03  0.000000000E+00  0.00000E+00  9.000E+00
      25     1     1     2     0     0 -1.015651656E+02  1.138326348E+02 -1.752590117E+02  2.638447892E+02  1.250000000E+02  0.00000E+00  9.000E+00
      25     1     1     2     0     0  1.129665854E+02  4.657134761E+01 -2.908086824E+02  3.393007952E+02  1.250000000E+02  0.00000E+00  9.000E+00
       2     1     1     2   502     0 -1.140141980E+01 -1.604039824E+02 -6.838107387E+02  7.024646300E+02  1.078959322E-05  0.00000E+00  9.000E+00
#rwgt            1           1   3.0592758889709974E-002           1      264369           0
</event>
<event>
      5   9999  3.19816E-02  1.59000E+02 -1.00000E+00  1.15399E-01
      21    -1     0     0   511   501  0.000000000E+00  0.000000000E+00  3.612142508E+02  3.612142508E+02  0.000000000E+00  0.00000E+00  9.000E+00
      21    -1     0     0   501   502  0.000000000E+00  0.000000000E+00 -1.022443336E+03  1.022443336E+03  0.000000000E+00  0.00000E+00  9.000E+00
      25     1     1     2     0     0  2.913354539E+02  2.479926235E+02  1.415911085E+02  4.266728607E+02  1.250000000E+02  0.00000E+00  9.000E+00
      25     1     1     2     0     0 -1.861228447E+02 -1.287819633E+02 -7.436767860E+02  7.873415202E+02  1.250000000E+02  0.00000E+00  9.000E+00
      21     1     1     2   511   502 -1.052126093E+02 -1.192106602E+02 -5.914340793E+01  1.696432061E+02  1.784161275E-06  0.00000E+00  9.000E+00
#rwgt            1           1   2.6708975871576314E-002           1      264447           0
</event>
<event>
      5   9999  3.19816E-02  7.28085E+01 -1.00000E+00  1.30361E-01
      21    -1     0     0   502   501  0.000000000E+00  0.000000000E+00  2.449988341E+02  2.449988341E+02  0.000000000E+00  0.00000E+00  9.000E+00
      21    -1     0     0   501   512  0.000000000E+00  0.000000000E+00 -8.729681812E+02  8.729681812E+02  0.000000000E+00  0.00000E+00  9.000E+00
      25     1     1     2     0     0  2.668042803E+02 -1.810800950E+02 -2.945031962E+02  4.542374460E+02  1.250000000E+02  0.00000E+00  9.000E+00
      25     1     1     2     0     0 -2.691277315E+02  2.538514698E+02 -7.816915080E+01  3.982533374E+02  1.250000000E+02  0.00000E+00  9.000E+00
      21     1     1     2   502   512  2.323451186E+00 -7.277137483E+01 -2.552970001E+02  2.654762318E+02  3.814697266E-06  0.00000E+00  9.000E+00
#rwgt            1           1   2.7570130905091566E-002           1      264547           0
</event>
<event>
      5   9999  3.19816E-02  1.70139E+02 -1.00000E+00  1.14266E-01
      21    -1     0     0   502   501  0.000000000E+00  0.000000000E+00  1.866141640E+02  1.866141640E+02  0.000000000E+00  0.00000E+00  9.000E+00
      21    -1     0     0   511   502  0.000000000E+00  0.000000000E+00 -1.214199309E+03  1.214199309E+03  0.000000000E+00  0.00000E+00  9.000E+00
      25     1     1     2     0     0  8.733020282E+01 -8.161914663E+01 -7.697181137E+01  1.893090309E+02  1.250000000E+02  0.00000E+00  9.000E+00
      25     1     1     2     0     0 -1.728436184E+02  2.287068315E+02 -7.781292990E+01  3.222756324E+02  1.250000000E+02  0.00000E+00  9.000E+00
      21     1     1     2   511   501  8.551341558E+01 -1.470876849E+02 -8.728004039E+02  8.892288099E+02  1.078959322E-05  0.00000E+00  9.000E+00
#rwgt            1           1   2.7065160851865999E-002           1      264637           0
</event>
<event>
      5   9999  3.19816E-02  1.44851E+02 -1.00000E+00  1.16998E-01
      21    -1     0     0   502   512  0.000000000E+00  0.000000000E+00  8.750050985E+02  8.750050985E+02  0.000000000E+00  0.00000E+00  9.000E+00
      21    -1     0     0   501   502  0.000000000E+00  0.000000000E+00 -1.289001185E+03  1.289001185E+03  0.000000000E+00  0.00000E+00  9.000E+00
      25     1     1     2     0     0  8.042799767E+02 -1.616594666E+02 -2.559915224E+02  8.684219733E+02  1.250000000E+02  0.00000E+00  9.000E+00
      25     1     1     2     0     0 -8.383443395E+02  3.024476840E+02 -4.223661811E+02  9.941398413E+02  1.250000000E+02  0.00000E+00  9.000E+00
      21     1     1     2   501   512  3.406436279E+01 -1.407882174E+02  2.643616173E+02  3.014444686E+02  0.000000000E+00  0.00000E+00  9.000E+00
#rwgt            2          11   4.5835557385706799E-003           1      264723           0
</event>
<event>
      5   9999  3.19816E-02  2.25314E+02 -1.00000E+00  1.09796E-01
      21    -1     0     0   502   501  0.000000000E+00  0.000000000E+00  4.119993538E+02  4.119993538E+02  0.000000000E+00  0.00000E+00  9.000E+00
       2    -1     0     0   501     0  0.000000000E+00  0.000000000E+00 -2.497086127E+03  2.497086127E+03  0.000000000E+00  0.00000E+00  9.000E+00
      25     1     1     2     0     0 -3.245710207E+01 -9.653579168E+02 -6.629307722E+02  1.178164496E+03  1.250000000E+02  0.00000E+00  9.000E+00
      25     1     1     2     0     0  4.853489345E+01  7.406180734E+02 -1.184784436E+03  1.403641666E+03  1.250000000E+02  0.00000E+00  9.000E+00
       2     1     1     2   502     0 -1.607779137E+01  2.247398434E+02 -2.373715645E+02  3.272793184E+02  5.394796609E-06  0.00000E+00  9.000E+00
#rwgt            1           1   3.2688321837991197E-002           1      264743           0
</event>
<event>
      5   9999  3.19816E-02  1.27355E+01 -1.00000E+00  1.84352E-01
      21    -1     0     0   511   501  0.000000000E+00  0.000000000E+00  1.653137534E+02  1.653137534E+02  0.000000000E+00  0.00000E+00  9.000E+00
      21    -1     0     0   501   502  0.000000000E+00  0.000000000E+00 -6.850912362E+02  6.850912362E+02  0.000000000E+00  0.00000E+00  9.000E+00
      25     1     1     2     0     0  1.067281850E+02 -2.514833836E+02 -1.129173558E+02  3.209519075E+02  1.250000000E+02  0.00000E+00  9.000E+00
      25     1     1     2     0     0 -1.001490832E+02  2.623879448E+02 -4.133720818E+02  5.151492507E+02  1.250000000E+02  0.00000E+00  9.000E+00
      21     1     1     2   511   502 -6.579101809E+00 -1.090456120E+01  6.511954777E+00  1.430383132E+01  3.862822472E-07  0.00000E+00  9.000E+00
#rwgt            1           1   3.0132818287741985E-002           1      264800           0
</event>
<event>
      5   9999  3.19816E-02  2.93443E+01 -1.00000E+00  1.53709E-01
      21    -1     0     0   502   501  0.000000000E+00  0.000000000E+00  5.842462497E+01  5.842462497E+01  0.000000000E+00  0.00000E+00  9.000E+00
       2    -1     0     0   501     0  0.000000000E+00  0.000000000E+00 -2.796114421E+03  2.796114421E+03  0.000000000E+00  0.00000E+00  9.000E+00
      25     1     1     2     0     0 -1.640204331E+02 -6.432413164E+01 -2.652431321E+02  3.420807149E+02  1.250000000E+02  0.00000E+00  9.000E+00
      25     1     1     2     0     0  1.435554306E+02  4.329388776E+01 -4.588645474E+02  4.986624061E+02  1.250000000E+02  0.00000E+00  9.000E+00
       2     1     1     2   502     0  2.046500248E+01  2.103024389E+01 -2.013582117E+03  2.013795925E+03  0.000000000E+00  0.00000E+00  9.000E+00
#rwgt            1           1   3.4278714947967852E-002           1      265033           0
</event>
<event>
      5   9999  3.19816E-02  5.23843E+01 -1.00000E+00  1.37931E-01
      21    -1     0     0   502   511  0.000000000E+00  0.000000000E+00  3.179886740E+03  3.179886740E+03  0.000000000E+00  0.00000E+00  9.000E+00
      21    -1     0     0   501   502  0.000000000E+00  0.000000000E+00 -1.588695694E+02  1.588695694E+02  0.000000000E+00  0.00000E+00  9.000E+00
      25     1     1     2     0     0  1.414738182E+02 -5.813820551E+01  2.894676163E+03  2.901408276E+03  1.250000000E+02  0.00000E+00  9.000E+00
      25     1     1     2     0     0 -1.768720572E+02  9.675271089E+01 -5.925458147E+01  2.445013642E+02  1.250000000E+02  0.00000E+00  9.000E+00
      21     1     1     2   501   511  3.539823906E+01 -3.861450538E+01  1.855955892E+02  1.928466699E+02  3.814697266E-06  0.00000E+00  9.000E+00
#rwgt            1           1   6.2324030895717780E-002           1      265153           0
</event>
<event>
      5   9999  3.19816E-02  1.98571E+01 -1.00000E+00  1.66627E-01
       2    -1     0     0   502     0  0.000000000E+00  0.000000000E+00  1.705158789E+03  1.705158789E+03  0.000000000E+00  0.00000E+00  9.000E+00
      21    -1     0     0   501   502  0.000000000E+00  0.000000000E+00 -4.261170651E+02  4.261170651E+02  0.000000000E+00  0.00000E+00  9.000E+00
      25     1     1     2     0     0 -2.318327691E+02  1.713420488E+01 -2.926461970E+02  3.940898507E+02  1.250000000E+02  0.00000E+00  9.000E+00
      25     1     1     2     0     0  2.271030254E+02  2.151336735E+00  1.205255412E+02  2.858877725E+02  1.250000000E+02  0.00000E+00  9.000E+00
       2     1     1     2   501     0  4.729743642E+00 -1.928554162E+01  1.451162380E+03  1.451298231E+03  2.157918644E-05  0.00000E+00  9.000E+00
#rwgt            1           1   2.6767266653429708E-002           1      265269           0
</event>
<event>
      5   9999  3.19816E-02  1.20147E+01 -1.00000E+00  1.86972E-01
      21    -1     0     0   502   511  0.000000000E+00  0.000000000E+00  3.194735876E+02  3.194735876E+02  0.000000000E+00  0.00000E+00  9.000E+00
      21    -1     0     0   501   502  0.000000000E+00  0.000000000E+00 -2.003747598E+02  2.003747598E+02  0.000000000E+00  0.00000E+00  9.000E+00
      25     1     1     2     0     0  1.816400922E+02 -8.312934549E+01  1.452924043E+02  2.768365835E+02  1.250000000E+02  0.00000E+00  9.000E+00
      25     1     1     2     0     0 -1.713837743E+02  7.687138016E+01 -3.471766253E+01  2.282803611E+02  1.250000000E+02  0.00000E+00  9.000E+00
      21     1     1     2   501   511 -1.025631795E+01  6.257965337E+00  8.524086031E+00  1.473140288E+01  2.064765462E-07  0.00000E+00  9.000E+00
#rwgt            1           1   2.7295635985879446E-002           1      265430           0
</event>
<event>
      5   9999  3.19816E-02  2.31578E+01 -1.00000E+00  1.61282E-01
      21    -1     0     0   502   501  0.000000000E+00  0.000000000E+00  2.309094633E+02  2.309094633E+02  0.000000000E+00  0.00000E+00  9.000E+00
      21    -1     0     0   501   512  0.000000000E+00  0.000000000E+00 -3.525858533E+02  3.525858533E+02  0.000000000E+00  0.00000E+00  9.000E+00
      25     1     1     2     0     0  2.068056920E+01  2.502786487E+02 -2.451007589E+01  2.815898289E+02  1.250000000E+02  0.00000E+00  9.000E+00
      25     1     1     2     0     0 -9.190563798E+00 -2.301723933E+02 -8.374711565E+01  2.751406485E+02  1.250000000E+02  0.00000E+00  9.000E+00
      21     1     1     2   502   512 -1.149000540E+01 -2.010625540E+01 -1.341919839E+01  2.676483917E+01  3.371747881E-07  0.00000E+00  9.000E+00
#rwgt            1           1   2.9980978587079044E-002           1      265568           0
</event>
<event>
      5   9999  3.19816E-02  2.19117E+01 -1.00000E+00  1.63163E-01
      21    -1     0     0   502   501  0.000000000E+00  0.000000000E+00  3.461927515E+02  3.461927515E+02  0.000000000E+00  0.00000E+00  9.000E+00
      21    -1     0     0   511   502  0.000000000E+00  0.000000000E+00 -1.609534837E+03  1.609534837E+03  0.000000000E+00  0.00000E+00  9.000E+00
      25     1     1     2     0     0  7.301029753E+01  5.623638971E+02 -3.442693566E+01  5.817163142E+02  1.250000000E+02  0.00000E+00  9.000E+00
      25     1     1     2     0     0 -5.346361878E+01 -5.722659391E+02 -1.208604460E+03  1.344134072E+03  1.250000000E+02  0.00000E+00  9.000E+00
      21     1     1     2   511   501 -1.954667874E+01  9.902041956E+00 -2.031069056E+01  2.987720261E+01  2.384185791E-07  0.00000E+00  9.000E+00
#rwgt            1           1   2.8182385063575715E-002           1      265660           0
</event>
<event>
      5   9999  3.19816E-02  3.80593E+01 -1.00000E+00  1.46193E-01
      21    -1     0     0   502   501  0.000000000E+00  0.000000000E+00  1.060443009E+03  1.060443009E+03  0.000000000E+00  0.00000E+00  9.000E+00
      21    -1     0     0   512   502  0.000000000E+00  0.000000000E+00 -1.186931545E+02  1.186931545E+02  0.000000000E+00  0.00000E+00  9.000E+00
      25     1     1     2     0     0 -1.116370854E+02 -3.023571979E+02  5.301275459E+02  6.328846095E+02  1.250000000E+02  0.00000E+00  9.000E+00
      25     1     1     2     0     0  1.254779445E+02  2.669038117E+02  3.779715099E+02  4.954491109E+02  1.250000000E+02  0.00000E+00  9.000E+00
      21     1     1     2   512   501 -1.384085904E+01  3.545338620E+01  3.365079877E+01  5.080244315E+01  4.768371582E-07  0.00000E+00  9.000E+00
#rwgt            1           1   2.7690041730365871E-002           1      265946           0
</event>
<event>
      5   9999  3.19816E-02  8.59194E+01 -1.00000E+00  1.26867E-01
      21    -1     0     0   502   511  0.000000000E+00  0.000000000E+00  9.775832244E+02  9.775832244E+02  0.000000000E+00  0.00000E+00  9.000E+00
      21    -1     0     0   501   502  0.000000000E+00  0.000000000E+00 -2.484155439E+02  2.484155439E+02  0.000000000E+00  0.00000E+00  9.000E+00
      25     1     1     2     0     0  3.175904054E+02  1.341805819E+02  5.524204125E+01  3.708702971E+02  1.250000000E+02  0.00000E+00  9.000E+00
      25     1     1     2     0     0 -4.024508185E+02 -1.207322403E+02  5.899266830E+02  7.349703576E+02  1.250000000E+02  0.00000E+00  9.000E+00
      21     1     1     2   501   511  8.486041311E+01 -1.344834160E+01  8.399895625E+01  1.201581136E+02  2.336015456E-06  0.00000E+00  9.000E+00
#rwgt            1           1   2.0529593659834248E-002           1      266055           0
</event>
<event>
      5   9999  3.19816E-02  1.95782E+01 -1.00000E+00  1.67136E-01
      21    -1     0     0   502   501  0.000000000E+00  0.000000000E+00  8.139778394E+01  8.139778394E+01  0.000000000E+00  0.00000E+00  9.000E+00
      21    -1     0     0   512   502  0.000000000E+00  0.000000000E+00 -6.588699653E+02  6.588699653E+02  0.000000000E+00  0.00000E+00  9.000E+00
      25     1     1     2     0     0  9.258484027E+01 -5.481778770E+01 -4.946766176E+02  5.214469277E+02  1.250000000E+02  0.00000E+00  9.000E+00
      25     1     1     2     0     0 -1.112602733E+02  4.894117009E+01 -5.131343471E+01  1.817475038E+02  1.250000000E+02  0.00000E+00  9.000E+00
      21     1     1     2   512   501  1.867543304E+01  5.876617607E+00 -3.148212905E+01  3.707331767E+01  3.371747881E-07  0.00000E+00  9.000E+00
#rwgt            1           1   2.5555331045189224E-002           1      266151           0
</event>
<event>
      5   9999  3.19816E-02  1.47903E+02 -1.00000E+00  1.16636E-01
      21    -1     0     0   502   511  0.000000000E+00  0.000000000E+00  1.210605456E+03  1.210605456E+03  0.000000000E+00  0.00000E+00  9.000E+00
      21    -1     0     0   501   502  0.000000000E+00  0.000000000E+00 -1.016182783E+03  1.016182783E+03  0.000000000E+00  0.00000E+00  9.000E+00
      25     1     1     2     0     0 -3.465710812E+02  7.725413879E+02  4.077881453E+02  9.480758840E+02  1.250000000E+02  0.00000E+00  9.000E+00
      25     1     1     2     0     0  4.906588043E+02 -7.391648022E+02 -4.477168355E+02  1.001591749E+03  1.250000000E+02  0.00000E+00  9.000E+00
      21     1     1     2   501   511 -1.440877230E+02 -3.337658572E+01  2.343513638E+02  2.771206057E+02  3.814697266E-06  0.00000E+00  9.000E+00
#rwgt            2          11   5.7994956506061193E-003           1      266416           0
</event>
<event>
      5   9999  3.19816E-02  8.21344E+01 -1.00000E+00  1.27798E-01
      21    -1     0     0   512   501  0.000000000E+00  0.000000000E+00  3.298033671E+02  3.298033671E+02  0.000000000E+00  0.00000E+00  9.000E+00
      21    -1     0     0   501   502  0.000000000E+00  0.000000000E+00 -4.734132640E+02  4.734132640E+02  0.000000000E+00  0.00000E+00  9.000E+00
      25     1     1     2     0     0 -4.534483429E+01 -1.258186377E+02 -5.877332946E+01  1.922648898E+02  1.250000000E+02  0.00000E+00  9.000E+00
      25     1     1     2     0     0  6.222986224E+01  4.543861681E+01 -3.252684590E+02  3.568778419E+02  1.250000000E+02  0.00000E+00  9.000E+00
      21     1     1     2   512   502 -1.688502795E+01  8.038002089E+01  2.404318915E+02  2.540738994E+02  2.697398305E-06  0.00000E+00  9.000E+00
#rwgt            1           1   3.0047432272489943E-002           1      266481           0
</event>
<event>
      5   9999  3.19816E-02  9.47185E+01 -1.00000E+00  1.24897E-01
      -1    -1     0     0     0   501  0.000000000E+00  0.000000000E+00  1.323718593E+03  1.323718593E+03  0.000000000E+00  0.00000E+00  9.000E+00
      21    -1     0     0   501   502  0.000000000E+00  0.000000000E+00 -2.137564057E+02  2.137564057E+02  0.000000000E+00  0.00000E+00  9.000E+00
      25     1     1     2     0     0 -5.407773857E+01  3.025540268E+02  8.700457979E+01  3.430133202E+02  1.250000000E+02  0.00000E+00  9.000E+00
      25     1     1     2     0     0 -2.524861159E+01 -2.507957420E+02  1.547550605E+02  3.211076538E+02  1.250000000E+02  0.00000E+00  9.000E+00
      -1     1     1     2     0   502  7.932635016E+01 -5.175828481E+01  8.682025474E+02  8.733540251E+02  1.078959322E-05  0.00000E+00  9.000E+00
#rwgt            1           1   3.1472534353926093E-002           1      266527           0
</event>
<event>
      5   9999  3.19816E-02  4.02515E+01 -1.00000E+00  1.44672E-01
      21    -1     0     0   511   501  0.000000000E+00  0.000000000E+00  1.458846819E+02  1.458846819E+02  0.000000000E+00  0.00000E+00  9.000E+00
      21    -1     0     0   501   502  0.000000000E+00  0.000000000E+00 -6.149182176E+02  6.149182176E+02  0.000000000E+00  0.00000E+00  9.000E+00
      25     1     1     2     0     0 -1.525154409E+02 -1.334569978E+02 -2.935553822E+02  3.779834552E+02  1.250000000E+02  0.00000E+00  9.000E+00
      25     1     1     2     0     0  1.918367231E+02  1.248537243E+02 -2.059698553E+02  3.323226777E+02  1.250000000E+02  0.00000E+00  9.000E+00
      21     1     1     2   511   502 -3.932128227E+01  8.603273516E+00  3.049170179E+01  5.049676656E+01  7.539457465E-07  0.00000E+00  9.000E+00
#rwgt            1           1   3.2564933474835932E-002           1      266649           0
</event>
<event>
      5   9999  3.19816E-02  5.63873E+01 -1.00000E+00  1.36161E-01
      21    -1     0     0   512   501  0.000000000E+00  0.000000000E+00  4.641124919E+02  4.641124919E+02  0.000000000E+00  0.00000E+00  9.000E+00
      21    -1     0     0   501   502  0.000000000E+00  0.000000000E+00 -1.577810793E+02  1.577810793E+02  0.000000000E+00  0.00000E+00  9.000E+00
      25     1     1     2     0     0 -1.962480101E+02 -6.356704956E+01  5.891832001E+01  2.482950255E+02  1.250000000E+02  0.00000E+00  9.000E+00
      25     1     1     2     0     0  1.768904034E+02  1.060659406E+01  1.596716840E+02  2.693005037E+02  1.250000000E+02  0.00000E+00  9.000E+00
      21     1     1     2   512   502  1.935760670E+01  5.296045550E+01  8.774140858E+01  1.042980420E+02  9.536743164E-07  0.00000E+00  9.000E+00
#rwgt            2          11   1.9335683302166991E-003           1      266727           0
</event>
<event>
      5   9999  3.19816E-02  2.77825E+02 -1.00000E+00  1.06687E-01
      21    -1     0     0   502   501  0.000000000E+00  0.000000000E+00  3.012463495E+02  3.012463495E+02  0.000000000E+00  0.00000E+00  9.000E+00
      21    -1     0     0   511   502  0.000000000E+00  0.000000000E+00 -2.130709606E+03  2.130709606E+03  0.000000000E+00  0.00000E+00  9.000E+00
      25     1     1     2     0     0  2.434763987E+02  6.425195120E+01 -1.568084204E+03  1.593085729E+03  1.250000000E+02  0.00000E+00  9.000E+00
      25     1     1     2     0     0  6.502818207E+00 -1.854836092E+02  2.001191077E+02  3.001984564E+02  1.250000000E+02  0.00000E+00  9.000E+00
      21     1     1     2   511   501 -2.499792169E+02  1.212316580E+02 -4.614981608E+02  5.386717704E+02  0.000000000E+00  0.00000E+00  9.000E+00
#rwgt            1           1   2.3427112465722846E-002           1      266777           0
</event>
<event>
      5   9999  3.19816E-02  3.52972E+01 -1.00000E+00  1.48291E-01
      -3    -1     0     0     0   501  0.000000000E+00  0.000000000E+00  4.347452617E+02  4.347452617E+02  0.000000000E+00  0.00000E+00  9.000E+00
      21    -1     0     0   501   502  0.000000000E+00  0.000000000E+00 -2.869175224E+02  2.869175224E+02  0.000000000E+00  0.00000E+00  9.000E+00
      25     1     1     2     0     0 -1.166871928E+01  2.530339091E+02  9.599279812E+01  2.983319216E+02  1.250000000E+02  0.00000E+00  9.000E+00
      25     1     1     2     0     0  1.017205416E+01 -2.882993590E+02 -4.745135857E+01  3.179569507E+02  1.250000000E+02  0.00000E+00  9.000E+00
      -3     1     1     2     0   502  1.496665121E+00  3.526544990E+01  9.928629972E+01  1.053739117E+02  1.348699152E-06  0.00000E+00  9.000E+00
#rwgt            1           1   2.8654072417977797E-002           1      266805           0
</event>
<event>
      5   9999  3.77965E-02  9.69948E+01 -1.00000E+00  1.24427E-01
      21    -1     0     0   502   501  0.000000000E+00  0.000000000E+00  1.965871039E+03  1.965871039E+03  0.000000000E+00  0.00000E+00  9.000E+00
      21    -1     0     0   501   511  0.000000000E+00  0.000000000E+00 -3.191821011E+01  3.191821011E+01  0.000000000E+00  0.00000E+00  9.000E+00
      25     1     1     2     0     0  1.824518395E+02 -3.202258274E+01  1.194149459E+03  1.214879439E+03  1.250000000E+02  0.00000E+00  9.000E+00
      25     1     1     2     0     0 -8.545741341E+01  3.175792893E+01  5.228772641E+02  5.452863182E+02  1.250000000E+02  0.00000E+00  9.000E+00
      21     1     1     2   502   511 -9.699442614E+01  2.646538052E-01  2.169261051E+02  2.376234917E+02  3.814697266E-06  0.00000E+00  9.000E+00
#rwgt            1           1  0.10605669895237495                1      266922           0
</event>
<event>
      5   9999  3.19816E-02  2.06743E+01 -1.00000E+00  1.65190E-01
      21    -1     0     0   502   501  0.000000000E+00  0.000000000E+00  4.312084671E+02  4.312084671E+02  0.000000000E+00  0.00000E+00  9.000E+00
      21    -1     0     0   512   502  0.000000000E+00  0.000000000E+00 -5.923781510E+02  5.923781510E+02  0.000000000E+00  0.00000E+00  9.000E+00
      25     1     1     2     0     0 -4.073208424E+02 -1.675954650E+02 -1.586333746E+02  4.845493330E+02  1.250000000E+02  0.00000E+00  9.000E+00
      25     1     1     2     0     0  3.878427315E+02  1.745259213E+02  8.303828387E+01  4.510007075E+02  1.250000000E+02  0.00000E+00  9.000E+00
      21     1     1     2   512   501  1.947811089E+01 -6.930456238E+00 -8.557459313E+01  8.803657772E+01  9.536743164E-07  0.00000E+00  9.000E+00
#rwgt            1           1   2.7303601591094042E-002           1      267001           0
</event>
<event>
      5   9999  3.19816E-02  1.73900E+02 -1.00000E+00  1.13904E-01
      21    -1     0     0   502   501  0.000000000E+00  0.000000000E+00  6.369032694E+02  6.369032694E+02  0.000000000E+00  0.00000E+00  9.000E+00
      21    -1     0     0   501   511  0.000000000E+00  0.000000000E+00 -1.197524019E+03  1.197524019E+03  0.000000000E+00  0.00000E+00  9.000E+00
      25     1     1     2     0     0 -2.102649718E+02 -1.422476569E+02  5.630116421E+02  6.301213085E+02  1.250000000E+02  0.00000E+00  9.000E+00
      25     1     1     2     0     0  9.934011350E+01  8.319106403E+00 -1.639789226E+02  2.290234764E+02  1.250000000E+02  0.00000E+00  9.000E+00
      21     1     1     2   502   511  1.109248583E+02  1.339285505E+02 -9.596534691E+02  9.752825034E+02  1.078959322E-05  0.00000E+00  9.000E+00
#rwgt            2          11   3.7434085061508657E-003           1      267299           0
</event>
<event>
      5   9999  3.19816E-02  1.29400E+01 -1.00000E+00  1.83649E-01
      21    -1     0     0   502   501  0.000000000E+00  0.000000000E+00  1.028981315E+02  1.028981315E+02  0.000000000E+00  0.00000E+00  9.000E+00
      21    -1     0     0   501   512  0.000000000E+00  0.000000000E+00 -9.713606270E+02  9.713606270E+02  0.000000000E+00  0.00000E+00  9.000E+00
      25     1     1     2     0     0  2.325141306E+02 -2.947479775E+01 -1.600069214E+02  3.100948234E+02  1.250000000E+02  0.00000E+00  9.000E+00
      25     1     1     2     0     0 -2.279558171E+02  1.736421585E+01 -5.896155459E+02  6.446214878E+02  1.250000000E+02  0.00000E+00  9.000E+00
      21     1     1     2   502   512 -4.558313475E+00  1.211058189E+01 -1.188400282E+02  1.195424473E+02  1.348699152E-06  0.00000E+00  9.000E+00
#rwgt            1           1   3.3239801979821244E-002           1      267319           0
</event>
<event>
      5   9999  3.19816E-02  1.31709E+02 -1.00000E+00  1.18677E-01
      21    -1     0     0   502   511  0.000000000E+00  0.000000000E+00  5.706229253E+02  5.706229253E+02  0.000000000E+00  0.00000E+00  9.000E+00
      21    -1     0     0   501   502  0.000000000E+00  0.000000000E+00 -9.128573671E+02  9.128573671E+02  0.000000000E+00  0.00000E+00  9.000E+00
      25     1     1     2     0     0 -2.098807520E+01 -4.527465390E+02  3.434266654E+02  5.822257315E+02  1.250000000E+02  0.00000E+00  9.000E+00
      25     1     1     2     0     0  7.763748436E+01  3.338425256E+02 -6.772628823E+02  7.692778578E+02  1.250000000E+02  0.00000E+00  9.000E+00
      21     1     1     2   501   511 -5.664940916E+01  1.189040134E+02 -8.398224873E+00  1.319767030E+02  1.792108581E-06  0.00000E+00  9.000E+00
#rwgt            1           1   3.1881099367797684E-002           1      267474           0
</event>
<event>
      5   9999  3.19816E-02  4.73397E+01 -1.00000E+00  1.40444E-01
      21    -1     0     0   512   501  0.000000000E+00  0.000000000E+00  1.040485374E+02  1.040485374E+02  0.000000000E+00  0.00000E+00  9.000E+00
      21    -1     0     0   501   502  0.000000000E+00  0.000000000E+00 -6.644622055E+02  6.644622055E+02  0.000000000E+00  0.00000E+00  9.000E+00
      25     1     1     2     0     0 -2.778665945E+01 -1.821887217E+02 -2.819998367E+02  3.593239995E+02  1.250000000E+02  0.00000E+00  9.000E+00
      25     1     1     2     0     0  7.504247237E+01  1.850053899E+02 -2.744648716E+02  3.616826409E+02  1.250000000E+02  0.00000E+00  9.000E+00
      21     1     1     2   512   502 -4.725581292E+01 -2.816668236E+00 -3.948959755E+00  4.750410253E+01  1.016779072E-06  0.00000E+00  9.000E+00
#rwgt            1           1   3.1089477525545143E-002           1      267556           0
</event>
<event>
      5   9999  3.19816E-02  5.89177E+01 -1.00000E+00  1.35127E-01
      21    -1     0     0   502   501  0.000000000E+00  0.000000000E+00  3.006573812E+02  3.006573812E+02  0.000000000E+00  0.00000E+00  9.000E+00
      21    -1     0     0   501   511  0.000000000E+00  0.000000000E+00 -3.571139252E+02  3.571139252E+02  0.000000000E+00  0.00000E+00  9.000E+00
      25     1     1     2     0     0  5.122365922E+01 -7.291516969E+01  2.239561650E+02  2.715176773E+02  1.250000000E+02  0.00000E+00  9.000E+00
      25     1     1     2     0     0 -3.941649036E+01  1.306376749E+02 -1.341292402E+02  2.285509022E+02  1.250000000E+02  0.00000E+00  9.000E+00
      21     1     1     2   502   511 -1.180716886E+01 -5.772250525E+01 -1.462834687E+02  1.577027269E+02  2.697398305E-06  0.00000E+00  9.000E+00
#rwgt            1           1   2.5257021401892503E-002           1      267634           0
</event>
<event>
      5   9999  3.19816E-02  1.62149E+02 -1.00000E+00  1.15069E-01
       2    -1     0     0   502     0  0.000000000E+00  0.000000000E+00  9.762956441E+02  9.762956441E+02  0.000000000E+00  0.00000E+00  9.000E+00
      21    -1     0     0   501   502  0.000000000E+00  0.000000000E+00 -2.776355779E+02  2.776355779E+02  0.000000000E+00  0.00000E+00  9.000E+00
      25     1     1     2     0     0 -1.280379127E+02  2.182632021E+02 -1.242968890E+02  3.083946321E+02  1.250000000E+02  0.00000E+00  9.000E+00
      25     1     1     2     0     0  1.339853393E+02 -5.622339432E+01  1.246217583E+02  2.286235418E+02  1.250000000E+02  0.00000E+00  9.000E+00
       2     1     1     2   501     0 -5.947426591E+00 -1.620398078E+02  6.983351970E+02  7.169130481E+02  1.078959322E-05  0.00000E+00  9.000E+00
#rwgt            1           1   3.0329465595705866E-002           1      267751           0
</event>
<event>
      5   9999  3.19816E-02  1.07314E+02 -1.00000E+00  1.22465E-01
      21    -1     0     0   502   501  0.000000000E+00  0.000000000E+00  6.678437136E+02  6.678437136E+02  0.000000000E+00  0.00000E+00  9.000E+00
      21    -1     0     0   511   502  0.000000000E+00  0.000000000E+00 -9.638229923E+01  9.638229923E+01  0.000000000E+00  0.00000E+00  9.000E+00
      25     1     1     2     0     0  2.247358648E+00  1.592074677E+02  4.375710833E+02  4.821260430E+02  1.250000000E+02  0.00000E+00  9.000E+00
      25     1     1     2     0     0 -3.276278708E+01 -5.632397140E+01  7.405752983E+01  1.592335005E+02  1.250000000E+02  0.00000E+00  9.000E+00
      21     1     1     2   511   501  3.051542843E+01 -1.028834963E+02  5.983280124E+01  1.228664693E+02  1.348699152E-06  0.00000E+00  9.000E+00
#rwgt            1           1   2.8495197060111398E-002           1      267786           0
</event>
<event>
      5   9999  3.19816E-02  6.24351E+01 -1.00000E+00  1.33787E-01
      21    -1     0     0   502   501  0.000000000E+00  0.000000000E+00  1.800425939E+02  1.800425939E+02  0.000000000E+00  0.00000E+00  9.000E+00
      21    -1     0     0   501   512  0.000000000E+00  0.000000000E+00 -3.313777868E+02  3.313777868E+02  0.000000000E+00  0.00000E+00  9.000E+00
      25     1     1     2     0     0  3.880896707E+01 -3.671858642E+01  9.833801144E+01  1.677788873E+02  1.250000000E+02  0.00000E+00  9.000E+00
      25     1     1     2     0     0 -6.067757731E+01  9.519858132E+01 -2.118347649E+02  2.706353744E+02  1.250000000E+02  0.00000E+00  9.000E+00
      21     1     1     2   502   512  2.186861024E+01 -5.847999489E+01 -3.783843948E+01  7.300611905E+01  1.066240300E-06  0.00000E+00  9.000E+00
#rwgt            1           1   2.9370082316496560E-002           1      267831           0
</event>
<event>
      5   9999  3.19816E-02  5.89393E+01 -1.00000E+00  1.35119E-01
      21    -1     0     0   502   511  0.000000000E+00  0.000000000E+00  1.560550637E+02  1.560550637E+02  0.000000000E+00  0.00000E+00  9.000E+00
      21    -1     0     0   501   502  0.000000000E+00  0.000000000E+00 -1.010204229E+03  1.010204229E+03  0.000000000E+00  0.00000E+00  9.000E+00
      25     1     1     2     0     0 -2.650808394E+02 -3.386429329E+01 -6.572562498E+01  3.022573400E+02  1.250000000E+02  0.00000E+00  9.000E+00
      25     1     1     2     0     0  2.204673884E+02  7.238035198E+01 -7.465254111E+02  7.916880535E+02  1.250000000E+02  0.00000E+00  9.000E+00
      21     1     1     2   501   511  4.461345095E+01 -3.851605869E+01 -4.189812924E+01  7.231389919E+01  0.000000000E+00  0.00000E+00  9.000E+00
#rwgt            1           1   2.9407015278545209E-002           1      267920           0
</event>
<event>
      5   9999  3.19816E-02  3.23420E+02 -1.00000E+00  1.04542E-01
       2    -1     0     0   502     0  0.000000000E+00  0.000000000E+00  8.074553310E+02  8.074553310E+02  0.000000000E+00  0.00000E+00  9.000E+00
      21    -1     0     0   501   502  0.000000000E+00  0.000000000E+00 -2.416004188E+02  2.416004188E+02  0.000000000E+00  0.00000E+00  9.000E+00
      25     1     1     2     0     0 -2.832967270E+02  3.496572423E+01  4.516962520E+02  5.487569056E+02  1.250000000E+02  0.00000E+00  9.000E+00
      25     1     1     2     0     0 -3.548386623E+01 -8.955098217E+01  1.489728531E+00  1.578154063E+02  1.250000000E+02  0.00000E+00  9.000E+00
       2     1     1     2   501     0  3.187805933E+02  5.458525794E+01  1.126689317E+02  3.424834378E+02  5.878843310E-06  0.00000E+00  9.000E+00
#rwgt            1           1   3.0193937454179743E-002           1      268032           0
</event>
<event>
      5   9999  3.32482E-02  2.60073E+01 -1.00000E+00  1.57477E-01
      21    -1     0     0   502   501  0.000000000E+00  0.000000000E+00  8.375942362E+01  8.375942362E+01  0.000000000E+00  0.00000E+00  9.000E+00
      21    -1     0     0   501   511  0.000000000E+00  0.000000000E+00 -4.889138336E+02  4.889138336E+02  0.000000000E+00  0.00000E+00  9.000E+00
      25     1     1     2     0     0 -5.542867764E+01  5.370182036E+00 -6.389881322E+00  1.369927288E+02  1.250000000E+02  0.00000E+00  9.000E+00
      25     1     1     2     0     0  2.964796603E+01 -8.795691474E+00 -2.190583414E+02  2.541021901E+02  1.250000000E+02  0.00000E+00  9.000E+00
      21     1     1     2   502   511  2.578071162E+01  3.425509438E+00 -1.797061873E+02  1.815783383E+02  3.303624740E-06  0.00000E+00  9.000E+00
#rwgt            1           1   8.4632825442925969E-002           1      268088           0
</event>
<event>
      5   9999  3.19816E-02  5.25329E+01 -1.00000E+00  1.37862E-01
      21    -1     0     0   502   501  0.000000000E+00  0.000000000E+00  9.567197846E+02  9.567197846E+02  0.000000000E+00  0.00000E+00  9.000E+00
       2    -1     0     0   501     0  0.000000000E+00  0.000000000E+00 -4.359195078E+02  4.359195078E+02  0.000000000E+00  0.00000E+00  9.000E+00
      25     1     1     2     0     0 -1.694399960E+01  4.897940886E+01  1.226330887E+01  1.358729935E+02  1.250000000E+02  0.00000E+00  9.000E+00
      25     1     1     2     0     0 -1.630369216E+01 -8.306356082E+00  8.762548761E+02  8.853148671E+02  1.250000000E+02  0.00000E+00  9.000E+00
       2     1     1     2   502     0  3.324769176E+01 -4.067305278E+01 -3.677179082E+02  3.714514319E+02  7.629394531E-06  0.00000E+00  9.000E+00
#rwgt            1           1   2.6060720832320798E-002           1      268220           0
</event>
<event>
      5   9999  3.19816E-02  3.85913E+01 -1.00000E+00  1.45812E-01
      21    -1     0     0   502   501  0.000000000E+00  0.000000000E+00  2.251412161E+02  2.251412161E+02  0.000000000E+00  0.00000E+00  9.000E+00
      21    -1     0     0   511   502  0.000000000E+00  0.000000000E+00 -5.656138186E+02  5.656138186E+02  0.000000000E+00  0.00000E+00  9.000E+00
      25     1     1     2     0     0 -1.517798367E+02  2.271570555E+02  8.166602879E+00  3.005480662E+02  1.250000000E+02  0.00000E+00  9.000E+00
      25     1     1     2     0     0  1.226015176E+02 -2.019000777E+02 -1.924680050E+02  3.293382857E+02  1.250000000E+02  0.00000E+00  9.000E+00
      21     1     1     2   511   501  2.917831911E+01 -2.525697778E+01 -1.561712004E+02  1.608686827E+02  1.907348633E-06  0.00000E+00  9.000E+00
#rwgt            1           1   2.9068679308974447E-002           1      268380           0
</event>
<event>
      5   9999  3.19816E-02  1.78411E+02 -1.00000E+00  1.13484E-01
      21    -1     0     0   502   512  0.000000000E+00  0.000000000E+00  9.357101139E+02  9.357101139E+02  0.000000000E+00  0.00000E+00  9.000E+00
      21    -1     0     0   501   502  0.000000000E+00  0.000000000E+00 -1.062959260E+02  1.062959260E+02  0.000000000E+00  0.00000E+00  9.000E+00
      25     1     1     2     0     0  1.317714498E+01  1.094051336E+02  3.606188675E+01  1.704951028E+02  1.250000000E+02  0.00000E+00  9.000E+00
      25     1     1     2     0     0  1.282879895E+02 -6.940865518E-01  4.553348673E+02  4.892986117E+02  1.250000000E+02  0.00000E+00  9.000E+00
      21     1     1     2   501   512 -1.414651345E+02 -1.087110471E+02  3.380174340E+02  3.822123254E+02  3.814697266E-06  0.00000E+00  9.000E+00
#rwgt            1           1   3.2156952582489316E-002           1      268489           0
</event>
<event>
      5   9999  3.19816E-02  6.49245E+01 -1.00000E+00  1.32898E-01
      21    -1     0     0   502   501  0.000000000E+00  0.000000000E+00  1.289836206E+02  1.289836206E+02  0.000000000E+00  0.00000E+00  9.000E+00
       2    -1     0     0   501     0  0.000000000E+00  0.000000000E+00 -2.027281119E+03  2.027281119E+03  0.000000000E+00  0.00000E+00  9.000E+00
      25     1     1     2     0     0  2.313191307E+01 -1.735258836E+02 -7.740138787E+01  2.286094760E+02  1.250000000E+02  0.00000E+00  9.000E+00
      25     1     1     2     0     0 -1.099033828E+01  2.373050261E+02 -2.891987768E+02  3.945825585E+02  1.250000000E+02  0.00000E+00  9.000E+00
       2     1     1     2   502     0 -1.214157479E+01 -6.377914247E+01 -1.531697333E+03  1.533072705E+03  2.157918644E-05  0.00000E+00  9.000E+00
#rwgt            1           1   2.9490280738468162E-002           1      268604           0
</event>
<event>
      5   9999  3.19816E-02  6.70853E+01 -1.00000E+00  1.32163E-01
       2    -1     0     0   502     0  0.000000000E+00  0.000000000E+00  1.509166024E+03  1.509166024E+03  0.000000000E+00  0.00000E+00  9.000E+00
      21    -1     0     0   501   502  0.000000000E+00  0.000000000E+00 -1.299650781E+02  1.299650781E+02  0.000000000E+00  0.00000E+00  9.000E+00
      25     1     1     2     0     0  3.090605151E+02  3.278554588E+01  5.888788993E+02  6.774929166E+02  1.250000000E+02  0.00000E+00  9.000E+00
      25     1     1     2     0     0 -2.689187324E+02  2.096458092E+01  1.797826797E+02  3.474242510E+02  1.250000000E+02  0.00000E+00  9.000E+00
       2     1     1     2   501     0 -4.014178271E+01 -5.375012680E+01  6.105393664E+02  6.142139340E+02  7.629394531E-06  0.00000E+00  9.000E+00
#rwgt            1           1   2.3271009803376499E-002           1      268695           0
</event>
<event>
      5   9999  3.19816E-02  2.29094E+02 -1.00000E+00  1.09542E-01
      21    -1     0     0   502   501  0.000000000E+00  0.000000000E+00  8.452311352E+02  8.452311352E+02  0.000000000E+00  0.00000E+00  9.000E+00
       2    -1     0     0   501     0  0.000000000E+00  0.000000000E+00 -1.935786731E+03  1.935786731E+03  0.000000000E+00  0.00000E+00  9.000E+00
      25     1     1     2     0     0 -1.655194759E+02 -9.427473936E+01 -1.864284144E+02  2.943891592E+02  1.250000000E+02  0.00000E+00  9.000E+00
      25     1     1     2     0     0  3.330835954E+02 -6.195121471E+01  7.416963240E+02  8.249370107E+02  1.250000000E+02  0.00000E+00  9.000E+00
       2     1     1     2   502     0 -1.675641195E+02  1.562259541E+02 -1.645823506E+03  1.661691697E+03  2.157918644E-05  0.00000E+00  9.000E+00
#rwgt            2          13   5.8764736127619602E-003           1      268753           0
</event>
<event>
      5   9999  3.19816E-02  9.92151E+01 -1.00000E+00  1.23982E-01
      21    -1     0     0   511   501  0.000000000E+00  0.000000000E+00  5.971860997E+02  5.971860997E+02  0.000000000E+00  0.00000E+00  9.000E+00
      21    -1     0     0   501   502  0.000000000E+00  0.000000000E+00 -4.185954071E+02  4.185954071E+02  0.000000000E+00  0.00000E+00  9.000E+00
      25     1     1     2     0     0  1.744043059E+02 -1.604043771E+02 -2.310308518E+02  3.537607674E+02  1.250000000E+02  0.00000E+00  9.000E+00
      25     1     1     2     0     0 -9.696160802E+01  2.224226686E+02  3.582957448E+01  2.752855887E+02  1.250000000E+02  0.00000E+00  9.000E+00
      21     1     1     2   511   502 -7.744269783E+01 -6.201829156E+01  3.737919700E+02  3.867351506E+02  7.629394531E-06  0.00000E+00  9.000E+00
#rwgt            2          11   2.5796313135738823E-003           1      268787           0
</event>
<event>
      5   9999  3.19816E-02  7.44157E+01 -1.00000E+00  1.29889E-01
      21    -1     0     0   502   501  0.000000000E+00  0.000000000E+00  3.697802329E+02  3.697802329E+02  0.000000000E+00  0.00000E+00  9.000E+00
      -2    -1     0     0     0   502  0.000000000E+00  0.000000000E+00 -3.372940558E+02  3.372940558E+02  0.000000000E+00  0.00000E+00  9.000E+00
      25     1     1     2     0     0  4.220588730E+01 -1.087165486E+02  2.249283798E+02  2.825215052E+02  1.250000000E+02  0.00000E+00  9.000E+00
      25     1     1     2     0     0  8.942530845E+00  1.627678130E+02  1.321422063E+01  2.058468980E+02  1.250000000E+02  0.00000E+00  9.000E+00
      -2     1     1     2     0   501 -5.114841814E+01 -5.405126439E+01 -2.056564234E+02  2.187058855E+02  0.000000000E+00  0.00000E+00  9.000E+00
#rwgt            1           1   2.3417831861519803E-002           1      268837           0
</event>
<event>
      5   9999  3.19816E-02  6.37530E+01 -1.00000E+00  1.33310E-01
      21    -1     0     0   502   501  0.000000000E+00  0.000000000E+00  1.074801993E+03  1.074801993E+03  0.000000000E+00  0.00000E+00  9.000E+00
      21    -1     0     0   511   502  0.000000000E+00  0.000000000E+00 -6.287248824E+02  6.287248824E+02  0.000000000E+00  0.00000E+00  9.000E+00
      25     1     1     2     0     0 -6.804420243E+02  1.671318841E+01 -2.105616476E+02  7.233546064E+02  1.250000000E+02  0.00000E+00  9.000E+00
      25     1     1     2     0     0  6.301810203E+02  2.250774435E+01  6.529711317E+02  9.163138195E+02  1.250000000E+02  0.00000E+00  9.000E+00
      21     1     1     2   511   501  5.026100399E+01 -3.922093277E+01  3.667626437E+00  6.385844951E+01  1.236706610E-06  0.00000E+00  9.000E+00
#rwgt            1           1   3.3095477250606312E-002           1      268898           0
</event>
<event>
      5   9999  3.19816E-02  2.19427E+01 -1.00000E+00  1.63114E-01
      21    -1     0     0   502   501  0.000000000E+00  0.000000000E+00  6.063725186E+02  6.063725186E+02  0.000000000E+00  0.00000E+00  9.000E+00
      21    -1     0     0   512   502  0.000000000E+00  0.000000000E+00 -5.272204574E+02  5.272204574E+02  0.000000000E+00  0.00000E+00  9.000E+00
      25     1     1     2     0     0  1.484992363E+01 -7.925894745E+00  5.884401138E+02  6.018057058E+02  1.250000000E+02  0.00000E+00  9.000E+00
      25     1     1     2     0     0  6.855754241E+00  4.709529999E+00 -3.664167887E+02  3.872408089E+02  1.250000000E+02  0.00000E+00  9.000E+00
      21     1     1     2   512   501 -2.170567787E+01  3.216364746E+00 -1.428712639E+02  1.445464614E+02  2.697398305E-06  0.00000E+00  9.000E+00
#rwgt            1           1   2.8978780751969972E-002           1      269060           0
</event>
<event>
      5   9999  3.19816E-02  9.79753E+01 -1.00000E+00  1.24229E-01
      21    -1     0     0   511   501  0.000000000E+00  0.000000000E+00  4.978033939E+02  4.978033939E+02  0.000000000E+00  0.00000E+00  9.000E+00
      21    -1     0     0   501   502  0.000000000E+00  0.000000000E+00 -4.999523720E+02  4.999523720E+02  0.000000000E+00  0.00000E+00  9.000E+00
      25     1     1     2     0     0  1.359598219E+02  4.378716433E+01 -9.875152236E+01  2.139608658E+02  1.250000000E+02  0.00000E+00  9.000E+00
      25     1     1     2     0     0 -3.885268676E+01 -3.077333223E+01 -3.245987919E+02  3.513486942E+02  1.250000000E+02  0.00000E+00  9.000E+00
      21     1     1     2   511   502 -9.710713513E+01 -1.301383210E+01  4.212013361E+02  4.324462060E+02  0.000000000E+00  0.00000E+00  9.000E+00
#rwgt            1           1   2.5068256091977402E-002           1      269261           0
</event>
<event>
      5   9999  3.19816E-02  2.81069E+01 -1.00000E+00  1.55032E-01
      21    -1     0     0   502   501  0.000000000E+00  0.000000000E+00  1.175763307E+03  1.175763307E+03  0.000000000E+00  0.00000E+00  9.000E+00
      21    -1     0     0   512   502  0.000000000E+00  0.000000000E+00 -3.516933222E+01  3.516933222E+01  0.000000000E+00  0.00000E+00  9.000E+00
      25     1     1     2     0     0  6.604941372E+01 -2.173170997E+01  9.508777189E+02  9.615759089E+02  1.250000000E+02  0.00000E+00  9.000E+00
      25     1     1     2     0     0 -3.850296259E+01  2.731659186E+01  1.533809435E+02  2.034192423E+02  1.250000000E+02  0.00000E+00  9.000E+00
      21     1     1     2   512   501 -2.754645113E+01 -5.584881892E+00  3.633531227E+01  4.593748788E+01  4.768371582E-07  0.00000E+00  9.000E+00
#rwgt            1           1   2.8874804542987943E-002           1      269306           0
</event>
<event>
      5   9999  3.19816E-02  1.58175E+02 -1.00000E+00  1.15487E-01
      21    -1     0     0   502   501  0.000000000E+00  0.000000000E+00  8.246590022E+02  8.246590022E+02  0.000000000E+00  0.00000E+00  9.000E+00
      21    -1     0     0   501   511  0.000000000E+00  0.000000000E+00 -3.750777632E+02  3.750777632E+02  0.000000000E+00  0.00000E+00  9.000E+00
      25     1     1     2     0     0  5.497445739E+01  6.405460105E+00 -2.628831165E+02  2.963034826E+02  1.250000000E+02  0.00000E+00  9.000E+00
      25     1     1     2     0     0  9.718367342E+01  3.680738382E+01  7.266618919E+02  7.446220216E+02  1.250000000E+02  0.00000E+00  9.000E+00
      21     1     1     2   502   511 -1.521581308E+02 -4.321284393E+01 -1.419753643E+01  1.588112612E+02  2.293036468E-06  0.00000E+00  9.000E+00
#rwgt            1           1   3.0172624491037761E-002           1      269507           0
</event>
<event>
      5   9999  3.19816E-02  7.22714E+01 -1.00000E+00  1.30522E-01
      21    -1     0     0   502   501  0.000000000E+00  0.000000000E+00  1.728824143E+02  1.728824143E+02  0.000000000E+00  0.00000E+00  9.000E+00
      21    -1     0     0   512   502  0.000000000E+00  0.000000000E+00 -8.014365641E+02  8.014365641E+02  0.000000000E+00  0.00000E+00  9.000E+00
      25     1     1     2     0     0  1.048548181E+02  9.627512874E+00 -5.889216760E+02  6.111799754E+02  1.250000000E+02  0.00000E+00  9.000E+00
      25     1     1     2     0     0 -8.477508737E+01 -7.905342020E+01  1.058722259E+02  2.006743304E+02  1.250000000E+02  0.00000E+00  9.000E+00
      21     1     1     2   512   501 -2.007973076E+01  6.942590732E+01 -1.455046997E+02  1.624646726E+02  2.697398305E-06  0.00000E+00  9.000E+00
#rwgt            1           1   3.0038116829954619E-002           1      269610           0
</event>
<event>
      5   9999  3.19816E-02  3.09935E+01 -1.00000E+00  1.52064E-01
      21    -1     0     0   502   501  0.000000000E+00  0.000000000E+00  1.638071590E+03  1.638071590E+03  0.000000000E+00  0.00000E+00  9.000E+00
      21    -1     0     0   511   502  0.000000000E+00  0.000000000E+00 -1.283255824E+03  1.283255824E+03  0.000000000E+00  0.00000E+00  9.000E+00
      25     1     1     2     0     0  1.284934081E+03  3.130942521E+02  1.097168016E+02  1.332946503E+03  1.250000000E+02  0.00000E+00  9.000E+00
      25     1     1     2     0     0 -1.274401277E+03 -2.839454024E+02  4.457923595E+02  1.385308426E+03  1.250000000E+02  0.00000E+00  9.000E+00
      21     1     1     2   511   501 -1.053280350E+01 -2.914884967E+01 -2.006933956E+02  2.030724856E+02  3.814697266E-06  0.00000E+00  9.000E+00
#rwgt            1           1   2.2438540090166156E-002           1      269676           0
</event>
<event>
      5   9999  3.19816E-02  4.40473E+01 -1.00000E+00  1.42291E-01
      21    -1     0     0   502   501  0.000000000E+00  0.000000000E+00  8.052415555E+01  8.052415555E+01  0.000000000E+00  0.00000E+00  9.000E+00
      21    -1     0     0   512   502  0.000000000E+00  0.000000000E+00 -5.937949700E+02  5.937949700E+02  0.000000000E+00  0.00000E+00  9.000E+00
      25     1     1     2     0     0 -1.061145087E+02  6.321630367E+01 -2.024899393E+02  2.681114797E+02  1.250000000E+02  0.00000E+00  9.000E+00
      25     1     1     2     0     0  9.860946293E+01 -1.066195014E+02 -1.616045154E+02  2.506642448E+02  1.250000000E+02  0.00000E+00  9.000E+00
      21     1     1     2   512   501  7.505045802E+00  4.340319773E+01 -1.491763598E+02  1.555434010E+02  1.907348633E-06  0.00000E+00  9.000E+00
#rwgt            1           1   3.0116754660071004E-002           1      269863           0
</event>
<event>
      5   9999  3.19816E-02  4.30374E+01 -1.00000E+00  1.42896E-01
      21    -1     0     0   502   511  0.000000000E+00  0.000000000E+00  9.934769721E+02  9.934769721E+02  0.000000000E+00  0.00000E+00  9.000E+00
      21    -1     0     0   501   502  0.000000000E+00  0.000000000E+00 -8.762090605E+01  8.762090605E+01  0.000000000E+00  0.00000E+00  9.000E+00
      25     1     1     2     0     0  3.338340179E+01 -1.142398239E+02  3.303967703E+01  1.757322086E+02  1.250000000E+02  0.00000E+00  9.000E+00
      25     1     1     2     0     0 -1.038011995E+01  1.506138252E+02  7.515679046E+02  7.767055984E+02  1.250000000E+02  0.00000E+00  9.000E+00
      21     1     1     2   501   511 -2.300328183E+01 -3.637400128E+01  1.212484844E+02  1.286600712E+02  2.336015456E-06  0.00000E+00  9.000E+00
#rwgt            1           1   2.8163033648101042E-002           1      269993           0
</event>
<event>
      5   9999  3.19816E-02  1.38261E+02 -1.00000E+00  1.17814E-01
      21    -1     0     0   512   501  0.000000000E+00  0.000000000E+00  9.459368473E+02  9.459368473E+02  0.000000000E+00  0.00000E+00  9.000E+00
      21    -1     0     0   501   502  0.000000000E+00  0.000000000E+00 -2.066502589E+03  2.066502589E+03  0.000000000E+00  0.00000E+00  9.000E+00
      25     1     1     2     0     0  6.904467967E+02 -7.033339024E+02  4.303366752E+02  1.082686479E+03  1.250000000E+02  0.00000E+00  9.000E+00
      25     1     1     2     0     0 -7.437236153E+02  5.757502483E+02 -1.513853801E+03  1.786614535E+03  1.250000000E+02  0.00000E+00  9.000E+00
      21     1     1     2   512   502  5.327681864E+01  1.275836541E+02 -3.704861605E+01  1.431384230E+02  1.430511475E-06  0.00000E+00  9.000E+00
#rwgt            2          11   4.4218100681124362E-002           1      270087           0
</event>
<event>
      5   9999  3.19816E-02  6.99557E+01 -1.00000E+00  1.31235E-01
      21    -1     0     0   502   511  0.000000000E+00  0.000000000E+00  1.737868694E+02  1.737868694E+02  0.000000000E+00  0.00000E+00  9.000E+00
      21    -1     0     0   501   502  0.000000000E+00  0.000000000E+00 -4.616740138E+02  4.616740138E+02  0.000000000E+00  0.00000E+00  9.000E+00
      25     1     1     2     0     0 -2.038882655E+02  2.714815751E+01 -3.855372938E+01  2.437597943E+02  1.250000000E+02  0.00000E+00  9.000E+00
      25     1     1     2     0     0  1.439491709E+02  8.922636603E+00 -2.583121912E+02  3.211715513E+02  1.250000000E+02  0.00000E+00  9.000E+00
      21     1     1     2   501   511  5.993909459E+01 -3.607079412E+01  8.978776255E+00  7.052953759E+01  6.743495762E-07  0.00000E+00  9.000E+00
#rwgt            1           1   3.0530975684199501E-002           1      270107           0
</event>
<event>
      5   9999  3.19816E-02  5.71007E+01 -1.00000E+00  1.35863E-01
      21    -1     0     0   502   501  0.000000000E+00  0.000000000E+00  1.014927857E+03  1.014927857E+03  0.000000000E+00  0.00000E+00  9.000E+00
      21    -1     0     0   512   502  0.000000000E+00  0.000000000E+00 -6.951883694E+02  6.951883694E+02  0.000000000E+00  0.00000E+00  9.000E+00
      25     1     1     2     0     0 -1.848222101E+02  2.059098765E+02  4.534990923E+02  5.457513658E+02  1.250000000E+02  0.00000E+00  9.000E+00
      25     1     1     2     0     0  1.355526014E+02 -1.770481650E+02  4.821981505E+02  5.457660825E+02  1.250000000E+02  0.00000E+00  9.000E+00
      21     1     1     2   512   501  4.926960878E+01 -2.886171149E+01 -6.159577549E+02  6.185987783E+02  0.000000000E+00  0.00000E+00  9.000E+00
#rwgt            1           1   2.9865899538924150E-002           1      270203           0
</event>
<event>
      5   9999  3.19816E-02  3.38560E+01 -1.00000E+00  1.49480E-01
      21    -1     0     0   502   501  0.000000000E+00  0.000000000E+00  9.700891518E+02  9.700891518E+02  0.000000000E+00  0.00000E+00  9.000E+00
      21    -1     0     0   501   511  0.000000000E+00  0.000000000E+00 -1.287292938E+03  1.287292938E+03  0.000000000E+00  0.00000E+00  9.000E+00
      25     1     1     2     0     0  3.381024717E+02  6.779725113E+01  4.118273540E+02  5.514857370E+02  1.250000000E+02  0.00000E+00  9.000E+00
      25     1     1     2     0     0 -3.512576859E+02 -9.899285840E+01  4.119770011E+02  5.643860357E+02  1.250000000E+02  0.00000E+00  9.000E+00
      21     1     1     2   502   511  1.315521427E+01  3.119560728E+01 -1.141008141E+03  1.141510317E+03  2.157918644E-05  0.00000E+00  9.000E+00
#rwgt            1           1   2.8652196040250568E-002           1      270315           0
</event>
<event>
      5   9999  3.19816E-02  1.12187E+02 -1.00000E+00  1.21623E-01
      21    -1     0     0   502   512  0.000000000E+00  0.000000000E+00  4.663252869E+02  4.663252869E+02  0.000000000E+00  0.00000E+00  9.000E+00
      21    -1     0     0   501   502  0.000000000E+00  0.000000000E+00 -1.153628866E+03  1.153628866E+03  0.000000000E+00  0.00000E+00  9.000E+00
      25     1     1     2     0     0 -4.700507170E+02 -5.302004439E+02 -4.635208091E+02  8.558835948E+02  1.250000000E+02  0.00000E+00  9.000E+00
      25     1     1     2     0     0  4.178193167E+02  4.309143939E+02 -2.214397671E+02  6.518594685E+02  1.250000000E+02  0.00000E+00  9.000E+00
      21     1     1     2   501   512  5.223140024E+01  9.928605005E+01 -2.343002586E+00  1.122110893E+02  8.018984823E-07  0.00000E+00  9.000E+00
#rwgt            1           1   3.0758314311679143E-002           1      270416           0
</event>
<event>
      5   9999  3.19816E-02  5.28354E+01 -1.00000E+00  1.37722E-01
      21    -1     0     0   502   501  0.000000000E+00  0.000000000E+00  5.820287304E+01  5.820287304E+01  0.000000000E+00  0.00000E+00  9.000E+00
      21    -1     0     0   511   502  0.000000000E+00  0.000000000E+00 -2.057780091E+03  2.057780091E+03  0.000000000E+00  0.00000E+00  9.000E+00
      25     1     1     2     0     0 -8.880105757E+01 -2.973446866E+02 -7.936561491E+02  8.612865803E+02  1.250000000E+02  0.00000E+00  9.000E+00
      25     1     1     2     0     0  5.945447365E+01  2.534088506E+02 -9.311992596E+02  9.749399679E+02  1.250000000E+02  0.00000E+00  9.000E+00
      21     1     1     2   511   501  2.934658392E+01  4.393583607E+01 -2.747218095E+02  2.797564160E+02  3.814697266E-06  0.00000E+00  9.000E+00
#rwgt            1           1   3.1655757990500279E-002           1      270500           0
</event>
<event>
      5   9999  3.19816E-02  1.76322E+02 -1.00000E+00  1.13677E-01
      21    -1     0     0   502   501  0.000000000E+00  0.000000000E+00  2.655117986E+02  2.655117986E+02  0.000000000E+00  0.00000E+00  9.000E+00
      21    -1     0     0   512   502  0.000000000E+00  0.000000000E+00 -7.875073107E+02  7.875073107E+02  0.000000000E+00  0.00000E+00  9.000E+00
      25     1     1     2     0     0 -1.173766498E+02  7.914641778E+01 -5.379528607E+02  5.701400825E+02  1.250000000E+02  0.00000E+00  9.000E+00
      25     1     1     2     0     0 -5.876699085E+01 -8.708334466E+01  1.793108594E+02  2.425169116E+02  1.250000000E+02  0.00000E+00  9.000E+00
      21     1     1     2   512   501  1.761436406E+02  7.936926875E+00 -1.633535108E+02  2.403621152E+02  3.303624740E-06  0.00000E+00  9.000E+00
#rwgt            2          11   3.6569060352952148E-003           1      270617           0
</event>
<event>
      5   9999  3.19816E-02  5.89912E+01 -1.00000E+00  1.35098E-01
      21    -1     0     0   502   511  0.000000000E+00  0.000000000E+00  2.032232157E+03  2.032232157E+03  0.000000000E+00  0.00000E+00  9.000E+00
      21    -1     0     0   501   502  0.000000000E+00  0.000000000E+00 -2.063550721E+02  2.063550721E+02  0.000000000E+00  0.00000E+00  9.000E+00
      25     1     1     2     0     0 -3.241742146E+02 -4.509321094E+02  5.397615102E+02  7.844719094E+02  1.250000000E+02  0.00000E+00  9.000E+00
      25     1     1     2     0     0  2.739957131E+02  4.199146472E+02  7.272403451E+02  8.921353492E+02  1.250000000E+02  0.00000E+00  9.000E+00
      21     1     1     2   501   511  5.017850148E+01  3.101746222E+01  5.588752300E+02  5.619799709E+02  7.629394531E-06  0.00000E+00  9.000E+00
#rwgt            1           1   2.8920446397896152E-002           1      270637           0
</event>
<event>
      5   9999  3.19816E-02  9.72415E+01 -1.00000E+00  1.24377E-01
      21    -1     0     0   502   501  0.000000000E+00  0.000000000E+00  5.092716965E+02  5.092716965E+02  0.000000000E+00  0.00000E+00  9.000E+00
      21    -1     0     0   512   502  0.000000000E+00  0.000000000E+00 -2.953709274E+02  2.953709274E+02  0.000000000E+00  0.00000E+00  9.000E+00
      25     1     1     2     0     0 -2.296049604E+02  1.243432758E+02  1.321113801E+02  3.182107868E+02  1.250000000E+02  0.00000E+00  9.000E+00
      25     1     1     2     0     0  1.454022016E+02 -7.570367186E+01  2.301916767E+02  3.090081782E+02  1.250000000E+02  0.00000E+00  9.000E+00
      21     1     1     2   512   501  8.420275889E+01 -4.863960395E+01 -1.484022878E+02  1.774236588E+02  3.303624740E-06  0.00000E+00  9.000E+00
#rwgt            1           1   2.6138220987706937E-002           1      270756           0
</event>
<event>
      5   9999  3.19816E-02  3.96617E+02 -1.00000E+00  1.01797E-01
      21    -1     0     0   502   501  0.000000000E+00  0.000000000E+00  5.915044749E+02  5.915044749E+02  0.000000000E+00  0.00000E+00  9.000E+00
       2    -1     0     0   501     0  0.000000000E+00  0.000000000E+00 -1.147382484E+03  1.147382484E+03  0.000000000E+00  0.00000E+00  9.000E+00
      25     1     1     2     0     0  6.810093051E+00 -5.453484196E+02 -1.004923187E+02  5.684848127E+02  1.250000000E+02  0.00000E+00  9.000E+00
      25     1     1     2     0     0 -2.698964261E+02  2.485477133E+02  1.752686491E+02  4.253988082E+02  1.250000000E+02  0.00000E+00  9.000E+00
       2     1     1     2   502     0  2.630863331E+02  2.968007063E+02 -6.306543399E+02  7.450033385E+02  1.078959322E-05  0.00000E+00  9.000E+00
#rwgt            1           1   2.8865282883839452E-002           1      270840           0
</event>
<event>
      5   9999  3.19816E-02  7.07987E+01 -1.00000E+00  1.30972E-01
      21    -1     0     0   511   501  0.000000000E+00  0.000000000E+00  7.924097194E+02  7.924097194E+02  0.000000000E+00  0.00000E+00  9.000E+00
      21    -1     0     0   501   502  0.000000000E+00  0.000000000E+00 -3.674627074E+02  3.674627074E+02  0.000000000E+00  0.00000E+00  9.000E+00
      25     1     1     2     0     0  4.347501842E+02  4.454607640E+00 -3.152222462E+01  4.534823225E+02  1.250000000E+02  0.00000E+00  9.000E+00
      25     1     1     2     0     0 -4.387857364E+02  6.622902480E+01  3.513285353E+02  5.796343209E+02  1.250000000E+02  0.00000E+00  9.000E+00
      21     1     1     2   511   502  4.035552251E+00 -7.068363244E+01  1.051407013E+02  1.267557835E+02  0.000000000E+00  0.00000E+00  9.000E+00
#rwgt            2          11   3.3821942432657260E-003           1      270897           0
</event>
<event>
      5   9999  3.19816E-02  2.72676E+01 -1.00000E+00  1.55977E-01
      21    -1     0     0   502   501  0.000000000E+00  0.000000000E+00  3.924583438E+02  3.924583438E+02  0.000000000E+00  0.00000E+00  9.000E+00
      21    -1     0     0   501   512  0.000000000E+00  0.000000000E+00 -2.581178191E+02  2.581178191E+02  0.000000000E+00  0.00000E+00  9.000E+00
      25     1     1     2     0     0  2.222942714E+02 -1.506594797E+02 -2.229034248E+01  2.970435680E+02  1.250000000E+02  0.00000E+00  9.000E+00
      25     1     1     2     0     0 -1.972336764E+02  1.399128831E+02  1.722229417E+02  3.221218397E+02  1.250000000E+02  0.00000E+00  9.000E+00
      21     1     1     2   502   512 -2.506059501E+01  1.074659655E+01 -1.559207449E+01  3.141075527E+01  4.768371582E-07  0.00000E+00  9.000E+00
#rwgt            1           1   2.6995472483769604E-002           1      270932           0
</event>
<event>
      5   9999  3.19816E-02  9.75461E+01 -1.00000E+00  1.24315E-01
      21    -1     0     0   502   501  0.000000000E+00  0.000000000E+00  3.560081704E+02  3.560081704E+02  0.000000000E+00  0.00000E+00  9.000E+00
      21    -1     0     0   511   502  0.000000000E+00  0.000000000E+00 -8.951869704E+02  8.951869704E+02  0.000000000E+00  0.00000E+00  9.000E+00
      25     1     1     2     0     0 -3.821981192E+02  2.773777806E+02 -1.495332660E+01  4.887355496E+02  1.250000000E+02  0.00000E+00  9.000E+00
      25     1     1     2     0     0  3.987803647E+02 -1.812514998E+02 -4.447489523E+02  6.366353085E+02  1.250000000E+02  0.00000E+00  9.000E+00
      21     1     1     2   511   501 -1.658224555E+01 -9.612628076E+01 -7.947652114E+01  1.258242828E+02  1.907348633E-06  0.00000E+00  9.000E+00
#rwgt            1           1   2.9779697656811970E-002           1      271036           0
</event>
<event>
      5   9999  3.19816E-02  2.94454E+01 -1.00000E+00  1.53605E-01
      21    -1     0     0   512   501  0.000000000E+00  0.000000000E+00  2.751038037E+02  2.751038037E+02  0.000000000E+00  0.00000E+00  9.000E+00
      21    -1     0     0   501   502  0.000000000E+00  0.000000000E+00 -4.469597542E+02  4.469597542E+02  0.000000000E+00  0.00000E+00  9.000E+00
      25     1     1     2     0     0  1.673302866E+02  2.461468939E+02 -1.578849179E+02  3.593610517E+02  1.250000000E+02  0.00000E+00  9.000E+00
      25     1     1     2     0     0 -1.492128841E+02 -2.693587105E+02 -6.816646371E+00  3.324004609E+02  1.250000000E+02  0.00000E+00  9.000E+00
      21     1     1     2   512   502 -1.811740248E+01  2.321181662E+01 -7.154386256E+00  3.030204524E+01  3.475518164E-07  0.00000E+00  9.000E+00
#rwgt            1           1   2.6834304408589495E-002           1      271137           0
</event>
<event>
      5   9999  3.19816E-02  6.14614E+01 -1.00000E+00  1.34147E-01
      21    -1     0     0   511   501  0.000000000E+00  0.000000000E+00  1.724371029E+03  1.724371029E+03  0.000000000E+00  0.00000E+00  9.000E+00
      21    -1     0     0   501   502  0.000000000E+00  0.000000000E+00 -9.353819493E+01  9.353819493E+01  0.000000000E+00  0.00000E+00  9.000E+00
      25     1     1     2     0     0 -1.812219512E+02  6.352955356E+00  6.900334652E+01  2.307990846E+02  1.250000000E+02  0.00000E+00  9.000E+00
      25     1     1     2     0     0  1.724953699E+02  5.448574315E+01  1.267662072E+03  1.286590641E+03  1.250000000E+02  0.00000E+00  9.000E+00
      21     1     1     2   511   502  8.726581315E+00 -6.083869850E+01  2.941674157E+02  3.005194984E+02  0.000000000E+00  0.00000E+00  9.000E+00
#rwgt            1           1   2.9491361163796352E-002           1      271285           0
</event>
<event>
      5   9999  3.19816E-02  9.70554E+01 -1.00000E+00  1.24415E-01
      21    -1     0     0   512   501  0.000000000E+00  0.000000000E+00  1.226957906E+03  1.226957906E+03  0.000000000E+00  0.00000E+00  9.000E+00
      21    -1     0     0   501   502  0.000000000E+00  0.000000000E+00 -5.892131348E+02  5.892131348E+02  0.000000000E+00  0.00000E+00  9.000E+00
      25     1     1     2     0     0 -3.670263361E+01 -6.568312295E+02 -1.062054167E+01  6.697104921E+02  1.250000000E+02  0.00000E+00  9.000E+00
      25     1     1     2     0     0  6.715389839E+01  7.489858491E+02  3.616135557E+02  8.437291105E+02  1.250000000E+02  0.00000E+00  9.000E+00
      21     1     1     2   512   502 -3.045126477E+01 -9.215461962E+01  2.867517573E+02  3.027314384E+02  0.000000000E+00  0.00000E+00  9.000E+00
#rwgt            1           1   2.9040116200560091E-002           1      271363           0
</event>
<event>
      5   9999  3.19816E-02  1.89059E+01 -1.00000E+00  1.68411E-01
      21    -1     0     0   502   501  0.000000000E+00  0.000000000E+00  1.794679244E+03  1.794679244E+03  0.000000000E+00  0.00000E+00  9.000E+00
      21    -1     0     0   501   511  0.000000000E+00  0.000000000E+00 -2.256532090E+02  2.256532090E+02  0.000000000E+00  0.00000E+00  9.000E+00
      25     1     1     2     0     0  2.933373097E+02  6.974157321E+01  5.342835682E+02  6.260947177E+02  1.250000000E+02  0.00000E+00  9.000E+00
      25     1     1     2     0     0 -3.120070496E+02 -6.676296507E+01  1.189731409E+03  1.238099963E+03  1.250000000E+02  0.00000E+00  9.000E+00
      21     1     1     2   502   511  1.866973996E+01 -2.978608143E+00 -1.549889430E+02  1.561377717E+02  6.607249480E-06  0.00000E+00  9.000E+00
#rwgt            1           1   3.5408684370446759E-002           1      271415           0
</event>
<event>
      5   9999  3.19816E-02  1.01725E+02 -1.00000E+00  1.23495E-01
      21    -1     0     0   502   501  0.000000000E+00  0.000000000E+00  2.527592571E+02  2.527592571E+02  0.000000000E+00  0.00000E+00  9.000E+00
      21    -1     0     0   501   512  0.000000000E+00  0.000000000E+00 -5.294633463E+02  5.294633463E+02  0.000000000E+00  0.00000E+00  9.000E+00
      25     1     1     2     0     0  1.018831967E+02  1.127110078E+02 -3.353157599E+02  3.887745052E+02  1.250000000E+02  0.00000E+00  9.000E+00
      25     1     1     2     0     0 -5.267628174E+01 -2.367958606E+01  1.853716466E+02  2.309180824E+02  1.250000000E+02  0.00000E+00  9.000E+00
      21     1     1     2   502   512 -4.920691492E+01 -8.903142176E+01 -1.267599759E+02  1.625300158E+02  2.697398305E-06  0.00000E+00  9.000E+00
#rwgt            1           1   2.7946734424813418E-002           1      271536           0
</event>
<event>
      5   9999  3.19816E-02  8.71339E+01 -1.00000E+00  1.26579E-01
      21    -1     0     0   502   501  0.000000000E+00  0.000000000E+00  1.042073709E+03  1.042073709E+03  0.000000000E+00  0.00000E+00  9.000E+00
      21    -1     0     0   511   502  0.000000000E+00  0.000000000E+00 -6.952906450E+01  6.952906450E+01  0.000000000E+00  0.00000E+00  9.000E+00
      25     1     1     2     0     0 -2.741990602E+01  1.162068688E+01  1.585394173E+02  2.040750804E+02  1.250000000E+02  0.00000E+00  9.000E+00
      25     1     1     2     0     0 -4.628951855E+01  3.484700051E+01  8.085703768E+02  8.202244127E+02  1.250000000E+02  0.00000E+00  9.000E+00
      21     1     1     2   511   501  7.370942457E+01 -4.646768739E+01  5.434850868E+00  8.730328085E+01  1.413019847E-06  0.00000E+00  9.000E+00
#rwgt            1           1   3.0405846102620308E-002           1      271613           0
</event>
<event>
      5   9999  3.19816E-02  3.87777E+01 -1.00000E+00  1.45681E-01
      21    -1     0     0   502   501  0.000000000E+00  0.000000000E+00  4.974024641E+02  4.974024641E+02  0.000000000E+00  0.00000E+00  9.000E+00
      21    -1     0     0   512   502  0.000000000E+00  0.000000000E+00 -1.753153786E+02  1.753153786E+02  0.000000000E+00  0.00000E+00  9.000E+00
      25     1     1     2     0     0 -1.252582990E+02 -1.493145317E+02  3.422380856E+02  4.132025872E+02  1.250000000E+02  0.00000E+00  9.000E+00
      25     1     1     2     0     0  1.308261864E+02  1.109386607E+02 -3.995557962E+01  2.159729748E+02  1.250000000E+02  0.00000E+00  9.000E+00
      21     1     1     2   512   501 -5.567887419E+00  3.837587098E+01  1.980457949E+01  4.354228075E+01  2.384185791E-07  0.00000E+00  9.000E+00
#rwgt            1           1   2.8143182731813918E-002           1      271664           0
</event>
<event>
      5   9999  3.19816E-02  2.00698E+02 -1.00000E+00  1.11593E-01
       1    -1     0     0   502     0  0.000000000E+00  0.000000000E+00  1.429086808E+03  1.429086808E+03  0.000000000E+00  0.00000E+00  9.000E+00
      21    -1     0     0   501   502  0.000000000E+00  0.000000000E+00 -1.565856452E+02  1.565856452E+02  0.000000000E+00  0.00000E+00  9.000E+00
      25     1     1     2     0     0  3.463663759E+02  2.259663897E+02  4.799631102E+02  6.457709058E+02  1.250000000E+02  0.00000E+00  9.000E+00
      25     1     1     2     0     0 -1.466090326E+02 -2.065544724E+02  5.932773876E+02  6.570860044E+02  1.250000000E+02  0.00000E+00  9.000E+00
       1     1     1     2   501     0 -1.997573433E+02 -1.941191731E+01  1.992606645E+02  2.828155426E+02  3.814697266E-06  0.00000E+00  9.000E+00
#rwgt            2          17   2.9384734262088421E-004           1      271780           0
</event>
<event>
      5   9999  3.19816E-02  9.88536E+01 -1.00000E+00  1.24054E-01
      21    -1     0     0   502   511  0.000000000E+00  0.000000000E+00  1.156537874E+03  1.156537874E+03  0.000000000E+00  0.00000E+00  9.000E+00
      21    -1     0     0   501   502  0.000000000E+00  0.000000000E+00 -8.582867114E+02  8.582867114E+02  0.000000000E+00  0.00000E+00  9.000E+00
      25     1     1     2     0     0 -3.971551244E+02  6.359181807E+02 -4.857419753E+02  9.020501050E+02  1.250000000E+02  0.00000E+00  9.000E+00
      25     1     1     2     0     0  3.036023201E+02 -6.039821717E+02  7.172454032E+02  9.934962511E+02  1.250000000E+02  0.00000E+00  9.000E+00
      21     1     1     2   501   511  9.355280434E+01 -3.193600902E+01  6.674773433E+01  1.192782290E+02  9.536743164E-07  0.00000E+00  9.000E+00
#rwgt            1           1   2.9053893219303677E-002           1      271799           0
</event>
<event>
      5   9999  3.19816E-02  3.72042E+02 -1.00000E+00  1.02641E-01
      21    -1     0     0   502   512  0.000000000E+00  0.000000000E+00  1.615526690E+03  1.615526690E+03  0.000000000E+00  0.00000E+00  9.000E+00
      21    -1     0     0   501   502  0.000000000E+00  0.000000000E+00 -1.589611017E+03  1.589611017E+03  0.000000000E+00  0.00000E+00  9.000E+00
      25     1     1     2     0     0  1.226631414E+02  1.168055386E+02  6.886926339E+01  2.214898543E+02  1.250000000E+02  0.00000E+00  9.000E+00
      25     1     1     2     0     0 -1.498386674E+02 -4.878533101E+02 -1.442647419E+03  1.535353072E+03  1.250000000E+02  0.00000E+00  9.000E+00
      21     1     1     2   501   512  2.717552591E+01  3.710477715E+02  1.399693829E+03  1.448294781E+03  1.525878906E-05  0.00000E+00  9.000E+00
#rwgt            1           1   3.1356152252543290E-002           1      271923           0
</event>
<event>
      5   9999  3.19816E-02  1.70623E+02 -1.00000E+00  1.14219E-01
      21    -1     0     0   502   511  0.000000000E+00  0.000000000E+00  1.490146614E+03  1.490146614E+03  0.000000000E+00  0.00000E+00  9.000E+00
      21    -1     0     0   501   502  0.000000000E+00  0.000000000E+00 -3.969727685E+02  3.969727685E+02  0.000000000E+00  0.00000E+00  9.000E+00
      25     1     1     2     0     0  2.504617759E+02  2.599865857E+02 -2.349791989E+02  4.485134890E+02  1.250000000E+02  0.00000E+00  9.000E+00
      25     1     1     2     0     0 -3.128908458E+02 -1.011949655E+02  6.475802386E+02  7.369710088E+02  1.250000000E+02  0.00000E+00  9.000E+00
      21     1     1     2   501   511  6.242906992E+01 -1.587916201E+02  6.805728055E+02  7.016348844E+02  7.629394531E-06  0.00000E+00  9.000E+00
#rwgt            1           1   3.0334241530778051E-002           1      271959           0
</event>
<event>
      5   9999  3.19816E-02  1.47954E+01 -1.00000E+00  1.77947E-01
      21    -1     0     0   502   512  0.000000000E+00  0.000000000E+00  8.942613548E+02  8.942613548E+02  0.000000000E+00  0.00000E+00  9.000E+00
      21    -1     0     0   501   502  0.000000000E+00  0.000000000E+00 -3.558015034E+02  3.558015034E+02  0.000000000E+00  0.00000E+00  9.000E+00
      25     1     1     2     0     0  1.732517684E+02  8.908702487E+01  8.265999792E+02  8.583968773E+02  1.250000000E+02  0.00000E+00  9.000E+00
      25     1     1     2     0     0 -1.585059003E+02 -9.029678133E+01 -3.000052183E+02  3.727006307E+02  1.250000000E+02  0.00000E+00  9.000E+00
      21     1     1     2   501   512 -1.474586816E+01  1.209756462E+00  1.186509044E+01  1.896535024E+01  3.769728732E-07  0.00000E+00  9.000E+00
#rwgt            1           1   2.5739417732895186E-002           1      272023           0
</event>
<event>
      5   9999  3.19816E-02  3.41113E+01 -1.00000E+00  1.49264E-01
      21    -1     0     0   511   501  0.000000000E+00  0.000000000E+00  5.612537801E+02  5.612537801E+02  0.000000000E+00  0.00000E+00  9.000E+00
      21    -1     0     0   501   502  0.000000000E+00  0.000000000E+00 -3.829024963E+02  3.829024963E+02  0.000000000E+00  0.00000E+00  9.000E+00
      25     1     1     2     0     0 -2.912334743E+02 -1.641722847E+02 -2.082271584E+02  4.132227307E+02  1.250000000E+02  0.00000E+00  9.000E+00
      25     1     1     2     0     0  2.724476076E+02  1.356999989E+02  3.393996017E+02  4.727147959E+02  1.250000000E+02  0.00000E+00  9.000E+00
      21     1     1     2   511   502  1.878586674E+01  2.847228577E+01  4.717884053E+01  5.821874990E+01  6.743495762E-07  0.00000E+00  9.000E+00
#rwgt            1           1   3.0540636398218361E-002           1      272264           0
</event>
<event>
      5   9999  3.19816E-02  9.35750E+01 -1.00000E+00  1.25139E-01
      21    -1     0     0   512   501  0.000000000E+00  0.000000000E+00  4.764397161E+02  4.764397161E+02  0.000000000E+00  0.00000E+00  9.000E+00
      21    -1     0     0   501   502  0.000000000E+00  0.000000000E+00 -2.643819984E+02  2.643819984E+02  0.000000000E+00  0.00000E+00  9.000E+00
      25     1     1     2     0     0  1.043150256E+02 -1.057229926E+02  2.592766819E+02  3.238956213E+02  1.250000000E+02  0.00000E+00  9.000E+00
      25     1     1     2     0     0 -1.566045407E+02  1.833250551E+02 -1.214309088E+02  2.974954178E+02  1.250000000E+02  0.00000E+00  9.000E+00
      21     1     1     2   512   502  5.228951516E+01 -7.760206243E+01  7.421194469E+01  1.194306754E+02  1.907348633E-06  0.00000E+00  9.000E+00
#rwgt            1           1   3.1017563473785956E-002           1      272419           0
</event>
<event>
      5   9999  3.19816E-02  7.62447E+01 -1.00000E+00  1.29368E-01
      21    -1     0     0   502   501  0.000000000E+00  0.000000000E+00  1.379314192E+03  1.379314192E+03  0.000000000E+00  0.00000E+00  9.000E+00
      21    -1     0     0   511   502  0.000000000E+00  0.000000000E+00 -2.015134299E+02  2.015134299E+02  0.000000000E+00  0.00000E+00  9.000E+00
      25     1     1     2     0     0 -2.866695807E+02  2.882842257E+02  1.783011173E+02  4.611979312E+02  1.250000000E+02  0.00000E+00  9.000E+00
      25     1     1     2     0     0  2.112091005E+02 -2.991918704E+02  9.571394645E+02  1.032407872E+03  1.250000000E+02  0.00000E+00  9.000E+00
      21     1     1     2   511   501  7.546048022E+01  1.090764469E+01  4.236017990E+01  8.722181854E+01  1.168007728E-06  0.00000E+00  9.000E+00
#rwgt            2          11   5.8853254210332407E-003           1      272555           0
</event>
<event>
      5   9999  3.19816E-02  1.37228E+02 -1.00000E+00  1.17946E-01
      21    -1     0     0   502   501  0.000000000E+00  0.000000000E+00  5.574708404E+02  5.574708404E+02  0.000000000E+00  0.00000E+00  9.000E+00
       1    -1     0     0   501     0  0.000000000E+00  0.000000000E+00 -1.645825694E+03  1.645825694E+03  0.000000000E+00  0.00000E+00  9.000E+00
      25     1     1     2     0     0  1.976681835E+02 -6.225908207E+02 -2.998483502E+02  7.295382608E+02  1.250000000E+02  0.00000E+00  9.000E+00
      25     1     1     2     0     0 -2.383225704E+02  4.915226104E+02  1.047018503E+02  5.700698217E+02  1.250000000E+02  0.00000E+00  9.000E+00
       1     1     1     2   502     0  4.065438692E+01  1.310682103E+02 -8.932083538E+02  9.036884520E+02  1.078959322E-05  0.00000E+00  9.000E+00
#rwgt            1           1   2.8871992726916661E-002           1      272605           0
</event>
<event>
      5   9999  3.19816E-02  7.25738E+01 -1.00000E+00  1.30431E-01
      21    -1     0     0   502   511  0.000000000E+00  0.000000000E+00  1.083170378E+02  1.083170378E+02  0.000000000E+00  0.00000E+00  9.000E+00
      21    -1     0     0   501   502  0.000000000E+00  0.000000000E+00 -8.632323542E+02  8.632323542E+02  0.000000000E+00  0.00000E+00  9.000E+00
      25     1     1     2     0     0  1.441164489E+02  7.584848399E+01 -5.920002448E+02  6.265874505E+02  1.250000000E+02  0.00000E+00  9.000E+00
      25     1     1     2     0     0 -1.458138325E+02 -3.294577827E+00 -1.874104135E+02  2.683657785E+02  1.250000000E+02  0.00000E+00  9.000E+00
      21     1     1     2   501   511  1.697383612E+00 -7.255390616E+01  2.449534181E+01  7.659616296E+01  7.539457465E-07  0.00000E+00  9.000E+00
#rwgt            1           1   3.3423324067302890E-002           1      272702           0
</event>
<event>
      5   9999  3.19816E-02  1.05306E+02 -1.00000E+00  1.22826E-01
      21    -1     0     0   502   501  0.000000000E+00  0.000000000E+00  7.580758736E+02  7.580758736E+02  0.000000000E+00  0.00000E+00  9.000E+00
      21    -1     0     0   512   502  0.000000000E+00  0.000000000E+00 -1.238086545E+03  1.238086545E+03  0.000000000E+00  0.00000E+00  9.000E+00
      25     1     1     2     0     0  4.327361060E+02 -3.664213503E+02  2.215646712E+01  5.810688879E+02  1.250000000E+02  0.00000E+00  9.000E+00
      25     1     1     2     0     0 -5.269631516E+02  4.134380538E+02  1.960336635E+02  7.089960400E+02  1.250000000E+02  0.00000E+00  9.000E+00
      21     1     1     2   512   501  9.422704563E+01 -4.701670345E+01 -6.982008023E+02  7.060974910E+02  7.629394531E-06  0.00000E+00  9.000E+00
#rwgt            1           1   3.1747005313518858E-002           1      272806           0
</event>
<event>
      5   9999  3.19816E-02  1.91073E+01 -1.00000E+00  1.68022E-01
      21    -1     0     0   502   511  0.000000000E+00  0.000000000E+00  1.288866113E+02  1.288866113E+02  0.000000000E+00  0.00000E+00  9.000E+00
      21    -1     0     0   501   502  0.000000000E+00  0.000000000E+00 -6.073957696E+02  6.073957696E+02  0.000000000E+00  0.00000E+00  9.000E+00
      25     1     1     2     0     0 -9.312080011E+01  4.308351146E+01 -2.235203467E+02  2.758876905E+02  1.250000000E+02  0.00000E+00  9.000E+00
      25     1     1     2     0     0  9.593955653E+01 -2.418523751E+01 -3.388002392E+02  3.744328062E+02  1.250000000E+02  0.00000E+00  9.000E+00
      21     1     1     2   501   511 -2.818756418E+00 -1.889827395E+01  8.381142762E+01  8.596188427E+01  1.907348633E-06  0.00000E+00  9.000E+00
#rwgt            1           1   2.4684385361521191E-002           1      272836           0
</event>
<event>
      5   9999  3.19816E-02  7.05503E+00 -1.00000E+00  2.15074E-01
      21    -1     0     0   502   501  0.000000000E+00  0.000000000E+00  8.248130117E+01  8.248130117E+01  0.000000000E+00  0.00000E+00  9.000E+00
      21    -1     0     0   501   512  0.000000000E+00  0.000000000E+00 -7.587157895E+02  7.587157895E+02  0.000000000E+00  0.00000E+00  9.000E+00
      25     1     1     2     0     0  1.488746894E+02  3.964868182E+01 -4.855492689E+02  5.245176676E+02  1.250000000E+02  0.00000E+00  9.000E+00
      25     1     1     2     0     0 -1.546796268E+02 -4.365819313E+01 -1.020285868E+02  2.277425241E+02  1.250000000E+02  0.00000E+00  9.000E+00
      21     1     1     2   502   512  5.804937350E+00  4.009511306E+00 -8.865663267E+01  8.893689895E+01  0.000000000E+00  0.00000E+00  9.000E+00
#rwgt            1           1   2.9084964891790858E-002           1      272936           0
</event>
<event>
      5   9999  3.19816E-02  2.60301E+01 -1.00000E+00  1.57449E-01
      21    -1     0     0   511   501  0.000000000E+00  0.000000000E+00  6.168155378E+02  6.168155378E+02  0.000000000E+00  0.00000E+00  9.000E+00
      21    -1     0     0   501   502  0.000000000E+00  0.000000000E+00 -3.248508701E+02  3.248508701E+02  0.000000000E+00  0.00000E+00  9.000E+00
      25     1     1     2     0     0  2.801416159E+01 -4.456552225E+01 -2.824278652E+02  3.133071625E+02  1.250000000E+02  0.00000E+00  9.000E+00
      25     1     1     2     0     0 -1.752742746E+01  2.074130662E+01  1.271486340E+02  1.803584976E+02  1.250000000E+02  0.00000E+00  9.000E+00
      21     1     1     2   511   502 -1.048673413E+01  2.382421563E+01  4.472438990E+02  4.480007478E+02  5.394796609E-06  0.00000E+00  9.000E+00
#rwgt            2          11   2.0732855760350641E-003           1      273141           0
</event>
<event>
      5   9999  3.19816E-02  4.76229E+02 -1.00000E+00  9.94567E-02
      21    -1     0     0   502   501  0.000000000E+00  0.000000000E+00  6.089854750E+02  6.089854750E+02  0.000000000E+00  0.00000E+00  9.000E+00
       2    -1     0     0   501     0  0.000000000E+00  0.000000000E+00 -1.964014640E+03  1.964014640E+03  0.000000000E+00  0.00000E+00  9.000E+00
      25     1     1     2     0     0 -1.233347880E+02 -2.192929882E+02  4.404908163E+02  5.224538676E+02  1.250000000E+02  0.00000E+00  9.000E+00
      25     1     1     2     0     0 -3.314047109E+02  3.607372687E+02 -7.893998360E+02  9.374100279E+02  1.250000000E+02  0.00000E+00  9.000E+00
       2     1     1     2   502     0  4.547394989E+02 -1.414442806E+02 -1.006120145E+03  1.113136219E+03  1.525878906E-05  0.00000E+00  9.000E+00
#rwgt            2          13   1.4735696695687395E-003           1      273161           0
</event>
<event>
      5   9999  3.19816E-02  4.50157E+01 -1.00000E+00  1.41729E-01
      21    -1     0     0   502   511  0.000000000E+00  0.000000000E+00  1.584571609E+03  1.584571609E+03  0.000000000E+00  0.00000E+00  9.000E+00
      21    -1     0     0   501   502  0.000000000E+00  0.000000000E+00 -6.586046937E+01  6.586046937E+01  0.000000000E+00  0.00000E+00  9.000E+00
      25     1     1     2     0     0  1.957699658E+01  1.175913883E+02  8.327176423E+01  1.917555217E+02  1.250000000E+02  0.00000E+00  9.000E+00
      25     1     1     2     0     0 -4.413240623E+01 -1.553199523E+02  9.818624732E+02  1.002871314E+03  1.250000000E+02  0.00000E+00  9.000E+00
      21     1     1     2   501   511  2.455540965E+01  3.772856402E+01  4.535769020E+02  4.558052421E+02  0.000000000E+00  0.00000E+00  9.000E+00
#rwgt            1           1   2.7692952272622171E-002           1      273180           0
</event>
<event>
      5   9999  3.19816E-02  1.00148E+02 -1.00000E+00  1.23799E-01
      21    -1     0     0   502   501  0.000000000E+00  0.000000000E+00  2.716271745E+02  2.716271745E+02  0.000000000E+00  0.00000E+00  9.000E+00
      21    -1     0     0   501   512  0.000000000E+00  0.000000000E+00 -3.207777938E+02  3.207777938E+02  0.000000000E+00  0.00000E+00  9.000E+00
      25     1     1     2     0     0  1.088144719E+02  9.981044948E+01  7.178392118E+01  2.063507850E+02  1.250000000E+02  0.00000E+00  9.000E+00
      25     1     1     2     0     0 -1.228777769E+02 -1.989661731E+02 -1.021560888E+02  2.841607865E+02  1.250000000E+02  0.00000E+00  9.000E+00
      21     1     1     2   502   512  1.406330498E+01  9.915572367E+01 -1.877845161E+01  1.018933969E+02  1.507891493E-06  0.00000E+00  9.000E+00
#rwgt            1           1   2.8677892530318962E-002           1      273247           0
</event>
<event>
      5   9999  3.19816E-02  2.49969E+02 -1.00000E+00  1.08232E-01
      21    -1     0     0   502   501  0.000000000E+00  0.000000000E+00  1.916902557E+03  1.916902557E+03  0.000000000E+00  0.00000E+00  9.000E+00
      21    -1     0     0   511   502  0.000000000E+00  0.000000000E+00 -9.623289266E+01  9.623289266E+01  0.000000000E+00  0.00000E+00  9.000E+00
      25     1     1     2     0     0 -4.708107818E+01  3.902019165E+00  2.493062388E+01  1.359352408E+02  1.250000000E+02  0.00000E+00  9.000E+00
      25     1     1     2     0     0 -1.027791203E+02  1.961639490E+02  1.268068162E+03  1.293315780E+03  1.250000000E+02  0.00000E+00  9.000E+00
      21     1     1     2   511   501  1.498601984E+02 -2.000659681E+02  5.276708779E+02  5.838844287E+02  0.000000000E+00  0.00000E+00  9.000E+00
#rwgt            2          11   2.6838859027988235E-003           1      273323           0
</event>
<event>
      5   9999  3.19816E-02  3.69229E+02 -1.00000E+00  1.02743E-01
      21    -1     0     0   502   501  0.000000000E+00  0.000000000E+00  9.906180592E+02  9.906180592E+02  0.000000000E+00  0.00000E+00  9.000E+00
       2    -1     0     0   501     0  0.000000000E+00  0.000000000E+00 -2.219991089E+02  2.219991089E+02  0.000000000E+00  0.00000E+00  9.000E+00
      25     1     1     2     0     0  3.478639951E+02 -9.550618387E+00  3.086466388E+02  4.816516595E+02  1.250000000E+02  0.00000E+00  9.000E+00
      25     1     1     2     0     0 -3.563461739E+00  1.429192149E+02  9.716660567E+01  2.133188916E+02  1.250000000E+02  0.00000E+00  9.000E+00
       2     1     1     2   502     0 -3.443005334E+02 -1.333685966E+02  3.628057058E+02  5.176466169E+02  7.629394531E-06  0.00000E+00  9.000E+00
#rwgt            1           1   3.1374124909389067E-002           1      273388           0
</event>
<event>
      5   9999  3.19816E-02  1.76191E+02 -1.00000E+00  1.13689E-01
      21    -1     0     0   502   501  0.000000000E+00  0.000000000E+00  1.771718908E+03  1.771718908E+03  0.000000000E+00  0.00000E+00  9.000E+00
      21    -1     0     0   511   502  0.000000000E+00  0.000000000E+00 -1.707303059E+02  1.707303059E+02  0.000000000E+00  0.00000E+00  9.000E+00
      25     1     1     2     0     0 -1.877879672E+02 -5.685115847E+01  1.215139792E+02  2.624633727E+02  1.250000000E+02  0.00000E+00  9.000E+00
      25     1     1     2     0     0  5.113669091E+01 -5.436800148E+01  1.495957808E+03  1.503025484E+03  1.250000000E+02  0.00000E+00  9.000E+00
      21     1     1     2   511   501  1.366512763E+02  1.112191599E+02 -1.648318506E+01  1.769603578E+02  1.348699152E-06  0.00000E+00  9.000E+00
#rwgt            1           1   2.6728930658781878E-002           1      273442           0
</event>
<event>
      5   9999  3.19816E-02  2.36727E+01 -1.00000E+00  1.60546E-01
      21    -1     0     0   502   512  0.000000000E+00  0.000000000E+00  2.747991905E+03  2.747991905E+03  0.000000000E+00  0.00000E+00  9.000E+00
      21    -1     0     0   501   502  0.000000000E+00  0.000000000E+00 -1.447367905E+02  1.447367905E+02  0.000000000E+00  0.00000E+00  9.000E+00
      25     1     1     2     0     0 -6.431743453E+01  2.185560230E+02 -2.899401800E+00  2.598785757E+02  1.250000000E+02  0.00000E+00  9.000E+00
      25     1     1     2     0     0  4.247884677E+01 -2.094196472E+02  1.142908373E+03  1.169412498E+03  1.250000000E+02  0.00000E+00  9.000E+00
      21     1     1     2   501   512  2.183858776E+01 -9.136375829E+00  1.463246143E+03  1.463437621E+03  0.000000000E+00  0.00000E+00  9.000E+00
#rwgt            1           1   2.6455910697630893E-002           1      273555           0
</event>
<event>
      5   9999  3.19816E-02  3.02945E+01 -1.00000E+00  1.52746E-01
      21    -1     0     0   502   501  0.000000000E+00  0.000000000E+00  5.594613745E+02  5.594613745E+02  0.000000000E+00  0.00000E+00  9.000E+00
       5    -1     0     0   501     0  0.000000000E+00  0.000000000E+00 -2.265740601E+02  2.265740601E+02  0.000000000E+00  0.00000E+00  9.000E+00
      25     1     1     2     0     0  1.105411296E+02 -1.413138322E+02  8.440372693E+01  2.343884161E+02  1.250000000E+02  0.00000E+00  9.000E+00
      25     1     1     2     0     0 -1.194686193E+02  1.702630400E+02  3.610795730E+02  4.350467927E+02  1.250000000E+02  0.00000E+00  9.000E+00
       5     1     1     2   502     0  8.927489682E+00 -2.894920780E+01 -1.125959855E+02  1.166002258E+02  1.907348633E-06  0.00000E+00  9.000E+00
#rwgt            1           1   2.7513562169978561E-002           1      273755           0
</event>
<event>
      5   9999  3.19816E-02  4.51357E+01 -1.00000E+00  1.41660E-01
      21    -1     0     0   502   511  0.000000000E+00  0.000000000E+00  8.475220344E+02  8.475220344E+02  0.000000000E+00  0.00000E+00  9.000E+00
      21    -1     0     0   501   502  0.000000000E+00  0.000000000E+00 -2.157469881E+02  2.157469881E+02  0.000000000E+00  0.00000E+00  9.000E+00
      25     1     1     2     0     0  4.931603498E+01 -1.408634142E+02 -4.984436233E+01  2.009577897E+02  1.250000000E+02  0.00000E+00  9.000E+00
      25     1     1     2     0     0 -5.393599595E+01  1.857620071E+02  5.858255504E+01  2.376416013E+02  1.250000000E+02  0.00000E+00  9.000E+00
      21     1     1     2   501   511  4.619960965E+00 -4.489859287E+01  6.230368536E+02  6.246696316E+02  0.000000000E+00  0.00000E+00  9.000E+00
#rwgt            1           1   2.4932258221519562E-002           1      273816           0
</event>
<event>
      5   9999  3.19816E-02  3.55851E+01 -1.00000E+00  1.48062E-01
      21    -1     0     0   502   501  0.000000000E+00  0.000000000E+00  4.385227612E+02  4.385227612E+02  0.000000000E+00  0.00000E+00  9.000E+00
      21    -1     0     0   512   502  0.000000000E+00  0.000000000E+00 -4.968247101E+02  4.968247101E+02  0.000000000E+00  0.00000E+00  9.000E+00
      25     1     1     2     0     0 -2.921929757E+01 -2.993682433E+02 -2.591794731E+02  4.162620710E+02  1.250000000E+02  0.00000E+00  9.000E+00
      25     1     1     2     0     0  2.865494361E+01  3.349488938E+02  2.648714801E+02  4.458629478E+02  1.250000000E+02  0.00000E+00  9.000E+00
      21     1     1     2   512   501  5.643539586E-01 -3.558065048E+01 -6.399395585E+01  7.322245263E+01  9.536743164E-07  0.00000E+00  9.000E+00
#rwgt            1           1   2.6985860171279054E-002           1      273924           0
</event>
<event>
      5   9999  3.19816E-02  4.77680E+01 -1.00000E+00  1.40217E-01
      21    -1     0     0   502   511  0.000000000E+00  0.000000000E+00  4.296487502E+02  4.296487502E+02  0.000000000E+00  0.00000E+00  9.000E+00
      21    -1     0     0   501   502  0.000000000E+00  0.000000000E+00 -6.431349830E+02  6.431349830E+02  0.000000000E+00  0.00000E+00  9.000E+00
      25     1     1     2     0     0 -4.234179788E+02 -7.134459208E+00  8.689671216E+01  4.500108042E+02  1.250000000E+02  0.00000E+00  9.000E+00
      25     1     1     2     0     0  4.492205027E+02  4.733412976E+01 -3.237158259E+02  5.696108460E+02  1.250000000E+02  0.00000E+00  9.000E+00
      21     1     1     2   501   511 -2.580252389E+01 -4.019967055E+01  2.333288092E+01  5.316208314E+01  1.168007728E-06  0.00000E+00  9.000E+00
#rwgt            1           1   2.8108116493319617E-002           1      274084           0
</event>
<event>
      5   9999  3.19816E-02  1.75580E+01 -1.00000E+00  1.71175E-01
      21    -1     0     0   512   501  0.000000000E+00  0.000000000E+00  2.215260176E+03  2.215260176E+03  0.000000000E+00  0.00000E+00  9.000E+00
      21    -1     0     0   501   502  0.000000000E+00  0.000000000E+00 -1.118306211E+02  1.118306211E+02  0.000000000E+00  0.00000E+00  9.000E+00
      25     1     1     2     0     0  1.293468252E+02 -1.789740562E+02  7.993091219E+02  8.386193334E+02  1.250000000E+02  0.00000E+00  9.000E+00
      25     1     1     2     0     0 -1.140636969E+02  1.876174548E+02  8.114258612E+01  2.653675858E+02  1.250000000E+02  0.00000E+00  9.000E+00
      21     1     1     2   512   502 -1.528312827E+01 -8.643398536E+00  1.222977847E+03  1.223103878E+03  0.000000000E+00  0.00000E+00  9.000E+00
#rwgt            1           1   3.3197696271393566E-002           1      274249           0
</event>
<event>
      5   9999  3.19816E-02  5.89540E+01 -1.00000E+00  1.35113E-01
      21    -1     0     0   502   501  0.000000000E+00  0.000000000E+00  4.171626900E+02  4.171626900E+02  0.000000000E+00  0.00000E+00  9.000E+00
       2    -1     0     0   501     0  0.000000000E+00  0.000000000E+00 -1.332881734E+03  1.332881734E+03  0.000000000E+00  0.00000E+00  9.000E+00
      25     1     1     2     0     0  2.604585823E+02 -2.232504880E+02  1.157247307E+02  3.830100087E+02  1.250000000E+02  0.00000E+00  9.000E+00
      25     1     1     2     0     0 -2.610310848E+02  2.822017114E+02 -7.789446527E+01  4.116644032E+02  1.250000000E+02  0.00000E+00  9.000E+00
       2     1     1     2   502     0  5.725025440E-01 -5.895122343E+01 -9.535493093E+02  9.553700120E+02  1.078959322E-05  0.00000E+00  9.000E+00
#rwgt            1           1   2.9182439015205883E-002           1      274449           0
</event>
<event>
      5   9999  3.19816E-02  1.22805E+02 -1.00000E+00  1.19944E-01
      21    -1     0     0   502   501  0.000000000E+00  0.000000000E+00  1.193414643E+03  1.193414643E+03  0.000000000E+00  0.00000E+00  9.000E+00
      21    -1     0     0   511   502  0.000000000E+00  0.000000000E+00 -6.489601806E+02  6.489601806E+02  0.000000000E+00  0.00000E+00  9.000E+00
      25     1     1     2     0     0 -3.738114408E+02 -5.004386911E+02  7.821557221E+02  1.008744988E+03  1.250000000E+02  0.00000E+00  9.000E+00
      25     1     1     2     0     0  3.573572129E+02  3.787408171E+02  3.284238255E+01  5.365187846E+02  1.250000000E+02  0.00000E+00  9.000E+00
      21     1     1     2   511   501  1.645422790E+01  1.216978741E+02 -2.705436425E+02  2.971110510E+02  0.000000000E+00  0.00000E+00  9.000E+00
#rwgt            1           1   3.2586952236552884E-002           1      274572           0
</event>
<event>
      5   9999  3.19816E-02  1.29989E+01 -1.00000E+00  1.83450E-01
      21    -1     0     0   512   501  0.000000000E+00  0.000000000E+00  2.532917683E+02  2.532917683E+02  0.000000000E+00  0.00000E+00  9.000E+00
      21    -1     0     0   501   502  0.000000000E+00  0.000000000E+00 -6.219578331E+02  6.219578331E+02  0.000000000E+00  0.00000E+00  9.000E+00
      25     1     1     2     0     0  2.434777501E+02  2.459724215E+02 -1.622446136E+02  4.021593734E+02  1.250000000E+02  0.00000E+00  9.000E+00
      25     1     1     2     0     0 -2.311623026E+02 -2.501318162E+02 -2.413988058E+02  4.357755374E+02  1.250000000E+02  0.00000E+00  9.000E+00
      21     1     1     2   512   502 -1.231544755E+01  4.159394637E+00  3.497735445E+01  3.731469063E+01  6.743495762E-07  0.00000E+00  9.000E+00
#rwgt            1           1   2.8647240748683547E-002           1      274677           0
</event>
<event>
      5   9999  3.19816E-02  1.55730E+02 -1.00000E+00  1.15752E-01
      21    -1     0     0   502   501  0.000000000E+00  0.000000000E+00  4.420976041E+02  4.420976041E+02  0.000000000E+00  0.00000E+00  9.000E+00
      21    -1     0     0   511   502  0.000000000E+00  0.000000000E+00 -2.937421811E+02  2.937421811E+02  0.000000000E+00  0.00000E+00  9.000E+00
      25     1     1     2     0     0 -2.264298808E+02  9.475024159E+01 -3.821463719E+01  2.780889384E+02  1.250000000E+02  0.00000E+00  9.000E+00
      25     1     1     2     0     0  7.174927543E+01 -7.670415972E+01  2.424503045E+02  2.922988826E+02  1.250000000E+02  0.00000E+00  9.000E+00
      21     1     1     2   511   501  1.546806053E+02 -1.804608187E+01 -5.588024431E+01  1.654519641E+02  4.101908334E-06  0.00000E+00  9.000E+00
#rwgt            1           1   2.9996344404059107E-002           1      274898           0
</event>
<event>
      5   9999  3.19816E-02  4.38995E+01 -1.00000E+00  1.42378E-01
      21    -1     0     0   512   501  0.000000000E+00  0.000000000E+00  9.638450063E+02  9.638450063E+02  0.000000000E+00  0.00000E+00  9.000E+00
      21    -1     0     0   501   502  0.000000000E+00  0.000000000E+00 -2.562658598E+02  2.562658598E+02  0.000000000E+00  0.00000E+00  9.000E+00
      25     1     1     2     0     0  2.581389411E+02  3.538814272E+02  5.028043783E+02  6.784578250E+02  1.250000000E+02  0.00000E+00  9.000E+00
      25     1     1     2     0     0 -2.145907286E+02 -3.483390531E+02  1.169999625E+02  4.435124214E+02  1.250000000E+02  0.00000E+00  9.000E+00
      21     1     1     2   512   502 -4.354821245E+01 -5.542374147E+00  8.777480571E+01  9.814061970E+01  1.348699152E-06  0.00000E+00  9.000E+00
#rwgt            1           1   3.0323167441763003E-002           1      274967           0
</event>
<event>
      5   9999  3.19816E-02  1.54824E+01 -1.00000E+00  1.76098E-01
      21    -1     0     0   502   501  0.000000000E+00  0.000000000E+00  9.581253600E+02  9.581253600E+02  0.000000000E+00  0.00000E+00  9.000E+00
      21    -1     0     0   511   502  0.000000000E+00  0.000000000E+00 -9.328704018E+01  9.328704018E+01  0.000000000E+00  0.00000E+00  9.000E+00
      25     1     1     2     0     0  1.263013389E+02  1.646402301E+02  7.170017304E+02  7.568189446E+02  1.250000000E+02  0.00000E+00  9.000E+00
      25     1     1     2     0     0 -1.354302618E+02 -1.521354832E+02  1.423714935E+02  2.781747710E+02  1.250000000E+02  0.00000E+00  9.000E+00
      21     1     1     2   511   501  9.128922877E+00 -1.250474693E+01  5.465095987E+00  1.641868457E+01  3.039252468E-07  0.00000E+00  9.000E+00
#rwgt            1           1   2.8511705117110150E-002           1      275065           0
</event>
<event>
      5   9999  3.19816E-02  4.36496E+01 -1.00000E+00  1.42527E-01
      21    -1     0     0   512   501  0.000000000E+00  0.000000000E+00  1.658697391E+03  1.658697391E+03  0.000000000E+00  0.00000E+00  9.000E+00
      21    -1     0     0   501   502  0.000000000E+00  0.000000000E+00 -1.892237717E+02  1.892237717E+02  0.000000000E+00  0.00000E+00  9.000E+00
      25     1     1     2     0     0 -1.506017613E+02 -4.934091925E+02  9.839895130E+02  1.118031253E+03  1.250000000E+02  0.00000E+00  9.000E+00
      25     1     1     2     0     0  1.538993451E+02  4.498843654E+02  3.996012635E+02  6.335511979E+02  1.250000000E+02  0.00000E+00  9.000E+00
      21     1     1     2   512   502 -3.297583864E+00  4.352482715E+01  8.588284268E+01  9.633871136E+01  0.000000000E+00  0.00000E+00  9.000E+00
#rwgt            1           1   2.5422783575888216E-002           1      275240           0
</event>
<event>
      5   9999  3.19816E-02  4.42179E+01 -1.00000E+00  1.42191E-01
      21    -1     0     0   511   501  0.000000000E+00  0.000000000E+00  9.889540887E+02  9.889540887E+02  0.000000000E+00  0.00000E+00  9.000E+00
      21    -1     0     0   501   502  0.000000000E+00  0.000000000E+00 -1.596552938E+02  1.596552938E+02  0.000000000E+00  0.00000E+00  9.000E+00
      25     1     1     2     0     0 -1.028913452E+02 -1.012882522E+02 -7.294914628E+01  2.044321816E+02  1.250000000E+02  0.00000E+00  9.000E+00
      25     1     1     2     0     0  1.149786255E+02  1.438220038E+02  6.253610353E+02  6.637817997E+02  1.250000000E+02  0.00000E+00  9.000E+00
      21     1     1     2   511   502 -1.208728033E+01 -4.253375158E+01  2.768869058E+02  2.803954011E+02  3.814697266E-06  0.00000E+00  9.000E+00
#rwgt            1           1   2.7365775687203903E-002           1      275388           0
</event>
<event>
      5   9999  3.19816E-02  1.51053E+01 -1.00000E+00  1.77098E-01
      21    -1     0     0   502   501  0.000000000E+00  0.000000000E+00  3.228101989E+02  3.228101989E+02  0.000000000E+00  0.00000E+00  9.000E+00
      21    -1     0     0   501   512  0.000000000E+00  0.000000000E+00 -2.502615883E+02  2.502615883E+02  0.000000000E+00  0.00000E+00  9.000E+00
      25     1     1     2     0     0  2.946596516E+01 -1.401775201E+02 -1.609611049E+02  2.491012997E+02  1.250000000E+02  0.00000E+00  9.000E+00
      25     1     1     2     0     0 -3.254937968E+01  1.549647411E+02  2.338728087E+02  3.088608485E+02  1.250000000E+02  0.00000E+00  9.000E+00
      21     1     1     2   502   512  3.083414521E+00 -1.478722107E+01 -3.630930737E-01  1.510963893E+01  2.324055725E-07  0.00000E+00  9.000E+00
#rwgt            1           1   2.6852253754527589E-002           1      275490           0
</event>
<event>
      5   9999  3.19816E-02  2.12269E+01 -1.00000E+00  1.64264E-01
      21    -1     0     0   502   501  0.000000000E+00  0.000000000E+00  3.017699854E+02  3.017699854E+02  0.000000000E+00  0.00000E+00  9.000E+00
      -1    -1     0     0     0   502  0.000000000E+00  0.000000000E+00 -7.976701003E+02  7.976701003E+02  0.000000000E+00  0.00000E+00  9.000E+00
      25     1     1     2     0     0 -9.171892467E+01 -1.187040709E+02 -5.621103996E+02  5.950597608E+02  1.250000000E+02  0.00000E+00  9.000E+00
      25     1     1     2     0     0  9.402929049E+01  1.398048487E+02  2.460194506E+02  3.233225530E+02  1.250000000E+02  0.00000E+00  9.000E+00
      -1     1     1     2     0   501 -2.310365824E+00 -2.110077777E+01 -1.798091660E+02  1.810577719E+02  2.697398305E-06  0.00000E+00  9.000E+00
#rwgt            1           1   2.6914643216034758E-002           1      275689           0
</event>
<event>
      5   9999  3.19816E-02  1.38236E+02 -1.00000E+00  1.17817E-01
      21    -1     0     0   502   501  0.000000000E+00  0.000000000E+00  7.676183112E+02  7.676183112E+02  0.000000000E+00  0.00000E+00  9.000E+00
      -1    -1     0     0     0   502  0.000000000E+00  0.000000000E+00 -4.459435552E+02  4.459435552E+02  0.000000000E+00  0.00000E+00  9.000E+00
      25     1     1     2     0     0 -2.008042251E+01 -1.721282319E+01  5.612454231E+02  5.756048380E+02  1.250000000E+02  0.00000E+00  9.000E+00
      25     1     1     2     0     0 -2.525185391E+01  1.478047324E+02 -3.884821365E+02  4.347726595E+02  1.250000000E+02  0.00000E+00  9.000E+00
      -1     1     1     2     0   501  4.533227642E+01 -1.305919092E+02  1.489114694E+02  2.031843689E+02  2.697398305E-06  0.00000E+00  9.000E+00
#rwgt            2          10   1.0204377175713936E-005           1      275945           0
</event>
<event>
      5   9999  3.19816E-02  3.64395E+01 -1.00000E+00  1.47397E-01
      21    -1     0     0   511   501  0.000000000E+00  0.000000000E+00  2.901425799E+02  2.901425799E+02  0.000000000E+00  0.00000E+00  9.000E+00
      21    -1     0     0   501   502  0.000000000E+00  0.000000000E+00 -1.897969741E+03  1.897969741E+03  0.000000000E+00  0.00000E+00  9.000E+00
      25     1     1     2     0     0  4.311372625E+02 -4.607159946E+02 -3.607079581E+02  7.374779982E+02  1.250000000E+02  0.00000E+00  9.000E+00
      25     1     1     2     0     0 -4.075892534E+02  4.885247645E+02 -1.255679767E+03  1.413202789E+03  1.250000000E+02  0.00000E+00  9.000E+00
      21     1     1     2   511   502 -2.354800913E+01 -2.780876999E+01  8.560564628E+00  3.743153335E+01  6.743495762E-07  0.00000E+00  9.000E+00
#rwgt            1           1   2.6577630796357908E-002           1      275964           0
</event>
<event>
      5   9999  3.19816E-02  1.57713E+01 -1.00000E+00  1.75356E-01
      21    -1     0     0   512   501  0.000000000E+00  0.000000000E+00  1.504808655E+03  1.504808655E+03  0.000000000E+00  0.00000E+00  9.000E+00
      21    -1     0     0   501   502  0.000000000E+00  0.000000000E+00 -3.302475051E+02  3.302475051E+02  0.000000000E+00  0.00000E+00  9.000E+00
      25     1     1     2     0     0 -2.877432027E+02 -2.297032853E+02 -1.608406837E+02  4.207784162E+02  1.250000000E+02  0.00000E+00  9.000E+00
      25     1     1     2     0     0  2.788697801E+02  2.166650624E+02  8.532155940E+02  9.318336511E+02  1.250000000E+02  0.00000E+00  9.000E+00
      21     1     1     2   512   502  8.873422617E+00  1.303822298E+01  4.821862401E+02  4.824440931E+02  7.629394531E-06  0.00000E+00  9.000E+00
#rwgt            2          11   9.6570418900920917E-004           1      276446           0
</event>
<event>
      5   9999  3.19816E-02  1.59173E+02 -1.00000E+00  1.15381E-01
      21    -1     0     0   502   501  0.000000000E+00  0.000000000E+00  5.998793107E+02  5.998793107E+02  0.000000000E+00  0.00000E+00  9.000E+00
       2    -1     0     0   501     0  0.000000000E+00  0.000000000E+00 -3.461248728E+02  3.461248728E+02  0.000000000E+00  0.00000E+00  9.000E+00
      25     1     1     2     0     0  4.864771195E+00  1.484720319E+02  8.214141147E+01  2.108075467E+02  1.250000000E+02  0.00000E+00  9.000E+00
      25     1     1     2     0     0  6.060257838E+01 -2.935587730E+02  3.624663160E+02  4.866788016E+02  1.250000000E+02  0.00000E+00  9.000E+00
       2     1     1     2   502     0 -6.546734958E+01  1.450867411E+02 -1.908532896E+02  2.485178353E+02  2.697398305E-06  0.00000E+00  9.000E+00
#rwgt            1           1   3.4617997224306390E-002           1      276496           0
</event>
<event>
      5   9999  3.19816E-02  1.27206E+02 -1.00000E+00  1.19303E-01
      21    -1     0     0   502   501  0.000000000E+00  0.000000000E+00  2.092822804E+03  2.092822804E+03  0.000000000E+00  0.00000E+00  9.000E+00
       2    -1     0     0   501     0  0.000000000E+00  0.000000000E+00 -1.016498749E+03  1.016498749E+03  0.000000000E+00  0.00000E+00  9.000E+00
      25     1     1     2     0     0 -1.216782959E+02  2.135366804E+01  2.056748891E+03  2.064243829E+03  1.250000000E+02  0.00000E+00  9.000E+00
      25     1     1     2     0     0  9.617000614E+01  1.032687517E+02 -3.110035191E+02  3.636774588E+02  1.250000000E+02  0.00000E+00  9.000E+00
       2     1     1     2   502     0  2.550828977E+01 -1.246224197E+02 -6.694213169E+02  6.814002641E+02  7.629394531E-06  0.00000E+00  9.000E+00
#rwgt            1           1   1.1849206847078990E-002           1      276584           0
</event>
<event>
      5   9999  3.19816E-02  3.08712E+01 -1.00000E+00  1.52181E-01
      21    -1     0     0   502   501  0.000000000E+00  0.000000000E+00  1.113106348E+03  1.113106348E+03  0.000000000E+00  0.00000E+00  9.000E+00
       1    -1     0     0   501     0  0.000000000E+00  0.000000000E+00 -1.443157050E+02  1.443157050E+02  0.000000000E+00  0.00000E+00  9.000E+00
      25     1     1     2     0     0 -1.415167428E+02  6.263045840E+01  2.239797973E+02  2.995688776E+02  1.250000000E+02  0.00000E+00  9.000E+00
      25     1     1     2     0     0  1.113864261E+02 -6.935338058E+01  8.391997097E+02  8.585441049E+02  1.250000000E+02  0.00000E+00  9.000E+00
       1     1     1     2   502     0  3.013031665E+01  6.722922185E+00 -9.438886443E+01  9.930907004E+01  0.000000000E+00  0.00000E+00  9.000E+00
#rwgt            1           1   2.8733291211971160E-002           1      276691           0
</event>
<event>
      5   9999  3.19816E-02  5.88543E+01 -1.00000E+00  1.35152E-01
      21    -1     0     0   502   511  0.000000000E+00  0.000000000E+00  2.011076953E+02  2.011076953E+02  0.000000000E+00  0.00000E+00  9.000E+00
      21    -1     0     0   501   502  0.000000000E+00  0.000000000E+00 -1.032391584E+03  1.032391584E+03  0.000000000E+00  0.00000E+00  9.000E+00
      25     1     1     2     0     0 -2.273416649E+02  2.750865816E+01 -8.947246163E+02  9.319861039E+02  1.250000000E+02  0.00000E+00  9.000E+00
      25     1     1     2     0     0  1.687071285E+02 -3.258962981E+01  9.720429904E+01  2.336618388E+02  1.250000000E+02  0.00000E+00  9.000E+00
      21     1     1     2   501   511  5.863453645E+01  5.080971651E+00 -3.376357172E+01  6.785133685E+01  1.066240300E-06  0.00000E+00  9.000E+00
#rwgt            1           1   3.2068245486645768E-002           1      276772           0
</event>
<event>
      5   9999  3.19816E-02  3.41381E+01 -1.00000E+00  1.49242E-01
      21    -1     0     0   502   501  0.000000000E+00  0.000000000E+00  1.813793799E+03  1.813793799E+03  0.000000000E+00  0.00000E+00  9.000E+00
      21    -1     0     0   512   502  0.000000000E+00  0.000000000E+00 -3.741135384E+01  3.741135384E+01  0.000000000E+00  0.00000E+00  9.000E+00
      25     1     1     2     0     0  1.156007211E+02  1.594181374E+02  9.068062504E+02  9.363227248E+02  1.250000000E+02  0.00000E+00  9.000E+00
      25     1     1     2     0     0 -8.301039051E+01 -1.695808214E+02  8.391138729E+02  8.691291455E+02  1.250000000E+02  0.00000E+00  9.000E+00
      21     1     1     2   512   501 -3.259033063E+01  1.016268398E+01  3.046232161E+01  4.575328222E+01  4.768371582E-07  0.00000E+00  9.000E+00
#rwgt            1           1   2.9676606189821653E-002           1      276872           0
</event>
<event>
      5   9999  3.19816E-02  2.39254E+02 -1.00000E+00  1.08886E-01
      21    -1     0     0   511   501  0.000000000E+00  0.000000000E+00  1.426221198E+03  1.426221198E+03  0.000000000E+00  0.00000E+00  9.000E+00
      21    -1     0     0   501   502  0.000000000E+00  0.000000000E+00 -1.181250452E+02  1.181250452E+02  0.000000000E+00  0.00000E+00  9.000E+00
      25     1     1     2     0     0 -1.001975180E+01 -1.350650951E+02  1.226012914E+02  2.213572949E+02  1.250000000E+02  0.00000E+00  9.000E+00
      25     1     1     2     0     0  2.322866796E+02  2.236089328E+02  6.433614288E+02  7.304087790E+02  1.250000000E+02  0.00000E+00  9.000E+00
      21     1     1     2   511   502 -2.222669278E+02 -8.854383767E+01  5.421334322E+02  5.925801690E+02  1.078959322E-05  0.00000E+00  9.000E+00
#rwgt            1           1   2.6498530707867850E-002           1      276990           0
</event>
<event>
      5   9999  3.19816E-02  7.35754E+01 -1.00000E+00  1.30134E-01
      21    -1     0     0   512   501  0.000000000E+00  0.000000000E+00  3.631478133E+02  3.631478133E+02  0.000000000E+00  0.00000E+00  9.000E+00
      21    -1     0     0   501   502  0.000000000E+00  0.000000000E+00 -5.017453185E+02  5.017453185E+02  0.000000000E+00  0.00000E+00  9.000E+00
      25     1     1     2     0     0 -2.054146961E+02  6.056014986E+01 -2.701703492E+01  2.494346594E+02  1.250000000E+02  0.00000E+00  9.000E+00
      25     1     1     2     0     0  1.776858034E+02 -1.287102896E+02 -3.123370921E+02  4.016441740E+02  1.250000000E+02  0.00000E+00  9.000E+00
      21     1     1     2   512   502  2.772889263E+01  6.815013973E+01  2.007566218E+02  2.138142985E+02  2.697398305E-06  0.00000E+00  9.000E+00
#rwgt            1           1   2.7792749604974812E-002           1      277018           0
</event>
<event>
      5   9999  3.19816E-02  3.67769E+01 -1.00000E+00  1.47140E-01
      21    -1     0     0   502   501  0.000000000E+00  0.000000000E+00  2.162692785E+02  2.162692785E+02  0.000000000E+00  0.00000E+00  9.000E+00
      21    -1     0     0   501   511  0.000000000E+00  0.000000000E+00 -9.300694176E+02  9.300694176E+02  0.000000000E+00  0.00000E+00  9.000E+00
      25     1     1     2     0     0  2.126818279E+02 -2.038841912E+02 -6.341167882E+00  3.201055041E+02  1.250000000E+02  0.00000E+00  9.000E+00
      25     1     1     2     0     0 -1.786680217E+02  1.898983509E+02 -2.983599518E+02  4.154844239E+02  1.250000000E+02  0.00000E+00  9.000E+00
      21     1     1     2   502   511 -3.401380626E+01  1.398584032E+01 -4.090990195E+02  4.107487681E+02  5.394796609E-06  0.00000E+00  9.000E+00
#rwgt            1           1   3.2694516874113129E-002           1      277137           0
</event>
<event>
      5   9999  3.19816E-02  1.02909E+02 -1.00000E+00  1.23270E-01
       2    -1     0     0   502     0  0.000000000E+00  0.000000000E+00  1.481519079E+03  1.481519079E+03  0.000000000E+00  0.00000E+00  9.000E+00
      21    -1     0     0   501   502  0.000000000E+00  0.000000000E+00 -4.998156120E+02  4.998156120E+02  0.000000000E+00  0.00000E+00  9.000E+00
      25     1     1     2     0     0  4.034798710E+01 -7.231334293E+00 -4.743151982E+02  4.922196252E+02  1.250000000E+02  0.00000E+00  9.000E+00
      25     1     1     2     0     0  6.224811645E+01  1.525189645E+01  3.333325591E+02  3.617223290E+02  1.250000000E+02  0.00000E+00  9.000E+00
       2     1     1     2   501     0 -1.025961036E+02 -8.020562159E+00  1.122686106E+03  1.127392737E+03  2.157918644E-05  0.00000E+00  9.000E+00
#rwgt            1           1   3.0989905454776763E-002           1      277251           0
</event>
<event>
      5   9999  3.19816E-02  1.33078E+02 -1.00000E+00  1.18492E-01
      21    -1     0     0   502   501  0.000000000E+00  0.000000000E+00  4.843852665E+02  4.843852665E+02  0.000000000E+00  0.00000E+00  9.000E+00
      21    -1     0     0   501   511  0.000000000E+00  0.000000000E+00 -2.321460760E+02  2.321460760E+02  0.000000000E+00  0.00000E+00  9.000E+00
      25     1     1     2     0     0 -2.470641207E+01 -1.327342469E+02  2.430964795E+02  3.048765085E+02  1.250000000E+02  0.00000E+00  9.000E+00
      25     1     1     2     0     0 -7.026533399E+01  2.259545951E+02 -3.836628815E+01  2.703510094E+02  1.250000000E+02  0.00000E+00  9.000E+00
      21     1     1     2   502   511  9.497174606E+01 -9.322034816E+01  4.750899910E+01  1.413038246E+02  1.651812370E-06  0.00000E+00  9.000E+00
#rwgt            2          11   3.5011127305311133E-003           1      277306           0
</event>
<event>
      5   9999  3.19816E-02  1.13532E+02 -1.00000E+00  1.21399E-01
      21    -1     0     0   502   501  0.000000000E+00  0.000000000E+00  2.048863067E+02  2.048863067E+02  0.000000000E+00  0.00000E+00  9.000E+00
      21    -1     0     0   501   512  0.000000000E+00  0.000000000E+00 -1.128450310E+03  1.128450310E+03  0.000000000E+00  0.00000E+00  9.000E+00
      25     1     1     2     0     0  3.585474026E+02 -7.402228517E+01 -1.613052662E+02  4.191418943E+02  1.250000000E+02  0.00000E+00  9.000E+00
      25     1     1     2     0     0 -3.128219845E+02 -2.989492622E+01 -3.504521273E+02  4.870246340E+02  1.250000000E+02  0.00000E+00  9.000E+00
      21     1     1     2   502   512 -4.572541814E+01  1.039172114E+02 -4.118066099E+02  4.271700886E+02  5.394796609E-06  0.00000E+00  9.000E+00
#rwgt            1           1   2.5106587177166684E-002           1      277416           0
</event>
<event>
      5   9999  3.19816E-02  2.22739E+01 -1.00000E+00  1.62601E-01
      21    -1     0     0   502   501  0.000000000E+00  0.000000000E+00  1.304922192E+03  1.304922192E+03  0.000000000E+00  0.00000E+00  9.000E+00
      21    -1     0     0   511   502  0.000000000E+00  0.000000000E+00 -2.347856758E+02  2.347856758E+02  0.000000000E+00  0.00000E+00  9.000E+00
      25     1     1     2     0     0 -1.073362940E+02 -4.717785574E+01 -4.161962460E+01  1.763633273E+02  1.250000000E+02  0.00000E+00  9.000E+00
      25     1     1     2     0     0  1.292724031E+02  5.104199426E+01  1.229441096E+03  1.243570282E+03  1.250000000E+02  0.00000E+00  9.000E+00
      21     1     1     2   511   501 -2.193610914E+01 -3.864138522E+00 -1.176849546E+02  1.197742585E+02  1.907348633E-06  0.00000E+00  9.000E+00
#rwgt            1           1   2.7834087334472651E-002           1      277509           0
</event>
<event>
      5   9999  3.23643E-02  2.12083E+01 -1.00000E+00  1.64294E-01
      21    -1     0     0   512   501  0.000000000E+00  0.000000000E+00  2.393088770E+03  2.393088770E+03  0.000000000E+00  0.00000E+00  9.000E+00
      21    -1     0     0   501   502  0.000000000E+00  0.000000000E+00 -3.242984733E+01  3.242984733E+01  0.000000000E+00  0.00000E+00  9.000E+00
      25     1     1     2     0     0 -7.209047301E+01  1.783419581E+02  5.172820227E+02  5.658697565E+02  1.250000000E+02  0.00000E+00  9.000E+00
      25     1     1     2     0     0  7.337157491E+01 -1.571723975E+02  1.447538832E+03  1.463243049E+03  1.250000000E+02  0.00000E+00  9.000E+00
      21     1     1     2   512   502 -1.281101891E+00 -2.116956059E+01  3.958380682E+02  3.964058119E+02  0.000000000E+00  0.00000E+00  9.000E+00
#rwgt            1           1   8.9234410371926004E-002           1      277696           0
</event>
<event>
      5   9999  3.47962E-02  2.46768E+01 -1.00000E+00  1.59175E-01
      21    -1     0     0   502   501  0.000000000E+00  0.000000000E+00  2.355097487E+03  2.355097487E+03  0.000000000E+00  0.00000E+00  9.000E+00
      21    -1     0     0   511   502  0.000000000E+00  0.000000000E+00 -3.093245233E+02  3.093245233E+02  0.000000000E+00  0.00000E+00  9.000E+00
      25     1     1     2     0     0 -7.155447298E+01  2.027560293E+02  2.008378737E+03  2.023719397E+03  1.250000000E+02  0.00000E+00  9.000E+00
      25     1     1     2     0     0  8.283729469E+01 -1.808097189E+02  2.977079751E+02  3.792218484E+02  1.250000000E+02  0.00000E+00  9.000E+00
      21     1     1     2   511   501 -1.128282171E+01 -2.194631045E+01 -2.603137482E+02  2.614807643E+02  5.394796609E-06  0.00000E+00  9.000E+00
#rwgt            1           1   9.5927142580114380E-002           1      277831           0
</event>
<event>
      5   9999  3.19816E-02  3.09697E+01 -1.00000E+00  1.52086E-01
      21    -1     0     0   502   501  0.000000000E+00  0.000000000E+00  8.123621055E+01  8.123621055E+01  0.000000000E+00  0.00000E+00  9.000E+00
      21    -1     0     0   501   512  0.000000000E+00  0.000000000E+00 -1.171823800E+03  1.171823800E+03  0.000000000E+00  0.00000E+00  9.000E+00
      25     1     1     2     0     0  3.520098440E+01 -1.263029178E+02 -4.056873775E+01  1.856404019E+02  1.250000000E+02  0.00000E+00  9.000E+00
      25     1     1     2     0     0 -2.667958867E+01  9.652863319E+01 -9.131304657E+02  9.270716396E+02  1.250000000E+02  0.00000E+00  9.000E+00
      21     1     1     2   502   512 -8.521395723E+00  2.977428458E+01 -1.368883860E+02  1.403479691E+02  3.303624740E-06  0.00000E+00  9.000E+00
#rwgt            1           1   2.9157358467072961E-002           1      277917           0
</event>
<event>
      5   9999  3.19816E-02  1.58279E+02 -1.00000E+00  1.15476E-01
      21    -1     0     0   511   501  0.000000000E+00  0.000000000E+00  1.047539497E+02  1.047539497E+02  0.000000000E+00  0.00000E+00  9.000E+00
      21    -1     0     0   501   502  0.000000000E+00  0.000000000E+00 -1.292321087E+03  1.292321087E+03  0.000000000E+00  0.00000E+00  9.000E+00
      25     1     1     2     0     0 -7.233314563E+01 -1.294830461E+02 -7.913163014E+02  8.147419420E+02  1.250000000E+02  0.00000E+00  9.000E+00
      25     1     1     2     0     0  2.215555417E+02  7.671039350E+01 -2.157412445E+02  3.422581294E+02  1.250000000E+02  0.00000E+00  9.000E+00
      21     1     1     2   511   502 -1.492223961E+02  5.277265260E+01 -1.805095909E+02  2.400749649E+02  3.303624740E-06  0.00000E+00  9.000E+00
#rwgt            1           1   2.9934673827723031E-002           1      278005           0
</event>
<event>
      5   9999  3.19816E-02  1.27194E+02 -1.00000E+00  1.19305E-01
      21    -1     0     0   512   501  0.000000000E+00  0.000000000E+00  4.235706163E+02  4.235706163E+02  0.000000000E+00  0.00000E+00  9.000E+00
      21    -1     0     0   501   502  0.000000000E+00  0.000000000E+00 -4.174620359E+02  4.174620359E+02  0.000000000E+00  0.00000E+00  9.000E+00
      25     1     1     2     0     0  2.857621559E+02  1.439271354E+02 -2.161342741E+02  4.058497930E+02  1.250000000E+02  0.00000E+00  9.000E+00
      25     1     1     2     0     0 -1.966580404E+02 -5.316006623E+01  1.862084958E+02  3.029834672E+02  1.250000000E+02  0.00000E+00  9.000E+00
      21     1     1     2   512   502 -8.910411550E+01 -9.076706919E+01  3.603435866E+01  1.321993920E+02  8.259061849E-07  0.00000E+00  9.000E+00
#rwgt            1           1   2.9764602349544877E-002           1      278064           0
</event>
<event>
      5   9999  3.19816E-02  5.44716E+01 -1.00000E+00  1.36986E-01
      21    -1     0     0   502   501  0.000000000E+00  0.000000000E+00  1.462752108E+03  1.462752108E+03  0.000000000E+00  0.00000E+00  9.000E+00
      21    -1     0     0   501   511  0.000000000E+00  0.000000000E+00 -3.597758711E+02  3.597758711E+02  0.000000000E+00  0.00000E+00  9.000E+00
      25     1     1     2     0     0 -2.063806917E+02  5.954028759E+02  9.694227881E+02  1.162971675E+03  1.250000000E+02  0.00000E+00  9.000E+00
      25     1     1     2     0     0  2.020095917E+02 -5.411069358E+02  1.291696820E+02  6.049085863E+02  1.250000000E+02  0.00000E+00  9.000E+00
      21     1     1     2   502   511  4.371099981E+00 -5.429594016E+01  4.383766514E+00  5.464771763E+01  2.795705652E-07  0.00000E+00  9.000E+00
#rwgt            1           1   2.1295114562053064E-002           1      278116           0
</event>
<event>
      5   9999  3.19816E-02  3.88678E+01 -1.00000E+00  1.45618E-01
      21    -1     0     0   502   501  0.000000000E+00  0.000000000E+00  1.532720981E+03  1.532720981E+03  0.000000000E+00  0.00000E+00  9.000E+00
      21    -1     0     0   501   512  0.000000000E+00  0.000000000E+00 -2.999735988E+02  2.999735988E+02  0.000000000E+00  0.00000E+00  9.000E+00
      25     1     1     2     0     0  5.270745584E+01 -2.670502573E+02 -1.047942275E+02  3.173338083E+02  1.250000000E+02  0.00000E+00  9.000E+00
      25     1     1     2     0     0 -2.820711896E+01  2.972236993E+02  1.402662605E+03  1.439522474E+03  1.250000000E+02  0.00000E+00  9.000E+00
      21     1     1     2   502   512 -2.450033688E+01 -3.017344201E+01 -6.512099627E+01  7.583829683E+01  9.536743164E-07  0.00000E+00  9.000E+00
#rwgt            1           1   2.9274103724388406E-002           1      278224           0
</event>
<event>
      5   9999  3.19816E-02  3.64368E+02 -1.00000E+00  1.02920E-01
      -1    -1     0     0     0   501  0.000000000E+00  0.000000000E+00  2.898945571E+03  2.898945571E+03  0.000000000E+00  0.00000E+00  9.000E+00
      21    -1     0     0   501   502  0.000000000E+00  0.000000000E+00 -5.544403954E+02  5.544403954E+02  0.000000000E+00  0.00000E+00  9.000E+00
      25     1     1     2     0     0  5.648618598E+02  1.490364491E+02 -2.197240999E+02  6.365410151E+02  1.250000000E+02  0.00000E+00  9.000E+00
      25     1     1     2     0     0 -2.408767131E+02  1.768925232E+01  5.020128323E+01  2.765495786E+02  1.250000000E+02  0.00000E+00  9.000E+00
      -1     1     1     2     0   502 -3.239851467E+02 -1.667257015E+02  2.514027993E+03  2.540295373E+03  4.315837288E-05  0.00000E+00  9.000E+00
#rwgt            2           5   2.0287395157434088E-005           1      278374           0
</event>
<event>
      5   9999  3.19816E-02  6.88276E+01 -1.00000E+00  1.31593E-01
      21    -1     0     0   502   501  0.000000000E+00  0.000000000E+00  1.012474774E+02  1.012474774E+02  0.000000000E+00  0.00000E+00  9.000E+00
      21    -1     0     0   511   502  0.000000000E+00  0.000000000E+00 -1.145024805E+03  1.145024805E+03  0.000000000E+00  0.00000E+00  9.000E+00
      25     1     1     2     0     0  4.381159545E+01 -1.833352428E+02 -4.640406554E+02  5.162266915E+02  1.250000000E+02  0.00000E+00  9.000E+00
      25     1     1     2     0     0 -1.837364132E+01  1.193809513E+02 -3.045768927E+01  1.764711678E+02  1.250000000E+02  0.00000E+00  9.000E+00
      21     1     1     2   511   501 -2.543795413E+01  6.395429147E+01 -5.492789826E+02  5.535744229E+02  7.629394531E-06  0.00000E+00  9.000E+00
#rwgt            1           1   2.3879709663723023E-002           1      278408           0
</event>
<event>
      5   9999  3.19816E-02  5.83288E+02 -1.00000E+00  9.69875E-02
      21    -1     0     0   512   501  0.000000000E+00  0.000000000E+00  1.107671007E+03  1.107671007E+03  0.000000000E+00  0.00000E+00  9.000E+00
      21    -1     0     0   501   502  0.000000000E+00  0.000000000E+00 -1.096505501E+03  1.096505501E+03  0.000000000E+00  0.00000E+00  9.000E+00
      25     1     1     2     0     0  6.714816968E+02 -4.402741890E+02 -4.981639740E+02  9.531638766E+02  1.250000000E+02  0.00000E+00  9.000E+00
      25     1     1     2     0     0 -4.783658084E+02 -1.101178638E+02  4.258816222E+02  6.617854235E+02  1.250000000E+02  0.00000E+00  9.000E+00
      21     1     1     2   512   502 -1.931158884E+02  5.503920528E+02  8.344785817E+01  5.892272084E+02  2.336015456E-06  0.00000E+00  9.000E+00
#rwgt            2          11   2.4306700988288438E-003           1      278466           0
</event>
<event>
      5   9999  3.19816E-02  4.84710E+01 -1.00000E+00  1.39849E-01
      21    -1     0     0   502   511  0.000000000E+00  0.000000000E+00  1.414767008E+02  1.414767008E+02  0.000000000E+00  0.00000E+00  9.000E+00
      21    -1     0     0   501   502  0.000000000E+00  0.000000000E+00 -1.727106583E+03  1.727106583E+03  0.000000000E+00  0.00000E+00  9.000E+00
      25     1     1     2     0     0 -2.451890956E+02 -3.305208485E+02 -9.934135686E+02  1.082523553E+03  1.250000000E+02  0.00000E+00  9.000E+00
      25     1     1     2     0     0  2.561524397E+02  2.833059438E+02 -6.132705246E+02  7.332135204E+02  1.250000000E+02  0.00000E+00  9.000E+00
      21     1     1     2   501   511 -1.096334417E+01  4.721490471E+01  2.105421131E+01  5.284621043E+01  1.702649219E-06  0.00000E+00  9.000E+00
#rwgt            1           1   3.1558788921617495E-002           1      278486           0
</event>
<event>
      5   9999  3.19816E-02  2.44970E+01 -1.00000E+00  1.59415E-01
      21    -1     0     0   512   501  0.000000000E+00  0.000000000E+00  9.791602332E+01  9.791602332E+01  0.000000000E+00  0.00000E+00  9.000E+00
      21    -1     0     0   501   502  0.000000000E+00  0.000000000E+00 -4.245557276E+02  4.245557276E+02  0.000000000E+00  0.00000E+00  9.000E+00
      25     1     1     2     0     0 -1.148001471E+02 -6.721759457E+00 -1.694798008E+02  2.399430322E+02  1.250000000E+02  0.00000E+00  9.000E+00
      25     1     1     2     0     0  1.389711978E+02  2.739185160E+00 -1.718833492E+02  2.539475983E+02  1.250000000E+02  0.00000E+00  9.000E+00
      21     1     1     2   512   502 -2.417105074E+01  3.982574297E+00  1.472344569E+01  2.858112043E+01  2.920019320E-07  0.00000E+00  9.000E+00
#rwgt            1           1   3.0029724042724443E-002           1      278589           0
</event>
<event>
      5   9999  3.19816E-02  6.73305E+01 -1.00000E+00  1.32082E-01
      -2    -1     0     0     0   501  0.000000000E+00  0.000000000E+00  1.132340251E+02  1.132340251E+02  0.000000000E+00  0.00000E+00  9.000E+00
      21    -1     0     0   501   502  0.000000000E+00  0.000000000E+00 -1.949698739E+03  1.949698739E+03  0.000000000E+00  0.00000E+00  9.000E+00
      25     1     1     2     0     0  3.284516320E+02  2.739108619E+02 -6.542906879E+02  7.915989762E+02  1.250000000E+02  0.00000E+00  9.000E+00
      25     1     1     2     0     0 -2.923885709E+02 -2.170526642E+02 -1.098006361E+03  1.163548841E+03  1.250000000E+02  0.00000E+00  9.000E+00
      -2     1     1     2     0   502 -3.606306114E+01 -5.685819772E+01 -8.416766450E+01  1.077849469E+02  9.536743164E-07  0.00000E+00  9.000E+00
#rwgt            1           1   3.0974653194252071E-002           1      278686           0
</event>
<event>
      5   9999  3.19816E-02  1.73696E+02 -1.00000E+00  1.13924E-01
      21    -1     0     0   511   501  0.000000000E+00  0.000000000E+00  7.859470262E+02  7.859470262E+02  0.000000000E+00  0.00000E+00  9.000E+00
      21    -1     0     0   501   502  0.000000000E+00  0.000000000E+00 -1.705174566E+03  1.705174566E+03  0.000000000E+00  0.00000E+00  9.000E+00
      25     1     1     2     0     0  1.967303917E+02 -2.913151754E+02  6.266013769E+02  7.292610396E+02  1.250000000E+02  0.00000E+00  9.000E+00
      25     1     1     2     0     0 -2.529947973E+02  1.269844337E+02 -1.557337747E+03  1.587783761E+03  1.250000000E+02  0.00000E+00  9.000E+00
      21     1     1     2   511   502  5.626440555E+01  1.643307416E+02  1.150883078E+01  1.740767910E+02  2.795705652E-06  0.00000E+00  9.000E+00
#rwgt            1           1   3.2944133400949836E-002           1      278780           0
</event>
<event>
      5   9999  3.19816E-02  2.85757E+02 -1.00000E+00  1.06283E-01
      21    -1     0     0   512   501  0.000000000E+00  0.000000000E+00  3.358903840E+03  3.358903840E+03  0.000000000E+00  0.00000E+00  9.000E+00
      21    -1     0     0   501   502  0.000000000E+00  0.000000000E+00 -7.587091398E+01  7.587091398E+01  0.000000000E+00  0.00000E+00  9.000E+00
      25     1     1     2     0     0  8.532897936E+01  1.926865537E+02  9.162342381E+02  9.484299246E+02  1.250000000E+02  0.00000E+00  9.000E+00
      25     1     1     2     0     0 -3.500714933E+02 -8.513008416E+01  7.181879092E+02  8.131519259E+02  1.250000000E+02  0.00000E+00  9.000E+00
      21     1     1     2   512   502  2.647425139E+02 -1.075564696E+02  1.648610779E+03  1.673192904E+03  2.157918644E-05  0.00000E+00  9.000E+00
#rwgt            1           1   3.5616947516101796E-002           1      278923           0
</event>
<event>
      5   9999  3.19816E-02  5.72427E+00 -1.00000E+00  2.28692E-01
      21    -1     0     0   502   501  0.000000000E+00  0.000000000E+00  5.639329507E+02  5.639329507E+02  0.000000000E+00  0.00000E+00  9.000E+00
       2    -1     0     0   501     0  0.000000000E+00  0.000000000E+00 -2.395963959E+02  2.395963959E+02  0.000000000E+00  0.00000E+00  9.000E+00
      25     1     1     2     0     0  1.728309775E+02 -4.982255315E+01  1.049922760E+02  2.429016501E+02  1.250000000E+02  0.00000E+00  9.000E+00
      25     1     1     2     0     0 -1.678365909E+02  5.261959148E+01  3.600742354E+02  4.197813689E+02  1.250000000E+02  0.00000E+00  9.000E+00
       2     1     1     2   502     0 -4.994386541E+00 -2.797038331E+00 -1.407299566E+02  1.408463277E+02  0.000000000E+00  0.00000E+00  9.000E+00
#rwgt            1           1   2.7542202200462686E-002           1      278957           0
</event>
<event>
      5   9999  3.19816E-02  3.99314E+01 -1.00000E+00  1.44886E-01
       2    -1     0     0   502     0  0.000000000E+00  0.000000000E+00  1.507094743E+02  1.507094743E+02  0.000000000E+00  0.00000E+00  9.000E+00
      21    -1     0     0   501   502  0.000000000E+00  0.000000000E+00 -2.170176289E+02  2.170176289E+02  0.000000000E+00  0.00000E+00  9.000E+00
      25     1     1     2     0     0 -4.072664872E+01 -6.618989151E-01  4.837981900E+01  1.400882040E+02  1.250000000E+02  0.00000E+00  9.000E+00
      25     1     1     2     0     0  1.982155062E+01  3.468391334E+01 -1.301447988E+02  1.848202813E+02  1.250000000E+02  0.00000E+00  9.000E+00
       2     1     1     2   501     0  2.090509810E+01 -3.402201443E+01  1.545682520E+01  4.281861788E+01  7.152557373E-07  0.00000E+00  9.000E+00
#rwgt            1           1   7.0753477252058786E-002           1      279267           0
</event>
<event>
      5   9999  3.19816E-02  4.89064E+01 -1.00000E+00  1.39626E-01
       2    -1     0     0   502     0  0.000000000E+00  0.000000000E+00  6.836130840E+02  6.836130840E+02  0.000000000E+00  0.00000E+00  9.000E+00
      21    -1     0     0   501   502  0.000000000E+00  0.000000000E+00 -7.285293858E+02  7.285293858E+02  0.000000000E+00  0.00000E+00  9.000E+00
      25     1     1     2     0     0  1.216558666E+02 -2.732474549E+02 -2.478665267E+02  4.080773659E+02  1.250000000E+02  0.00000E+00  9.000E+00
      25     1     1     2     0     0 -1.095748123E+02  2.258566931E+02 -3.502627101E+02  4.486946082E+02  1.250000000E+02  0.00000E+00  9.000E+00
       2     1     1     2   501     0 -1.208105433E+01  4.739076181E+01  5.532129349E+02  5.553704957E+02  1.078959322E-05  0.00000E+00  9.000E+00
#rwgt            1           1   2.8058057093707268E-002           1      279332           0
</event>
<event>
      5   9999  3.19816E-02  6.21362E+02 -1.00000E+00  9.62429E-02
       2    -1     0     0   502     0  0.000000000E+00  0.000000000E+00  1.524745714E+03  1.524745714E+03  0.000000000E+00  0.00000E+00  9.000E+00
      21    -1     0     0   501   502  0.000000000E+00  0.000000000E+00 -1.613320501E+03  1.613320501E+03  0.000000000E+00  0.00000E+00  9.000E+00
      25     1     1     2     0     0  6.612214634E+02 -3.446838885E+02  6.271421566E+02  9.823202590E+02  1.250000000E+02  0.00000E+00  9.000E+00
      25     1     1     2     0     0 -8.527638744E+02 -2.464182205E+02 -1.104721299E+03  1.422660295E+03  1.250000000E+02  0.00000E+00  9.000E+00
       2     1     1     2   501     0  1.915424111E+02  5.911021090E+02  3.890043559E+02  7.330856617E+02  7.629394531E-06  0.00000E+00  9.000E+00
#rwgt            2          18   1.0748837312658025E-003           1      279452           0
</event>
<event>
      5   9999  3.19816E-02  1.40847E+02 -1.00000E+00  1.17488E-01
      21    -1     0     0   502   511  0.000000000E+00  0.000000000E+00  2.153958433E+03  2.153958433E+03  0.000000000E+00  0.00000E+00  9.000E+00
      21    -1     0     0   501   502  0.000000000E+00  0.000000000E+00 -3.189489853E+02  3.189489853E+02  0.000000000E+00  0.00000E+00  9.000E+00
      25     1     1     2     0     0 -2.122209193E+02  4.905046363E+02  3.464788819E+02  6.490802204E+02  1.250000000E+02  0.00000E+00  9.000E+00
      25     1     1     2     0     0  1.297057897E+02 -3.763593420E+02  1.011721262E+02  4.293375657E+02  1.250000000E+02  0.00000E+00  9.000E+00
      21     1     1     2   501   511  8.251512968E+01 -1.141452943E+02  1.387358440E+03  1.394489633E+03  2.642899792E-05  0.00000E+00  9.000E+00
#rwgt            1           1   2.8753288570835901E-002           1      279471           0
</event>
<event>
      5   9999  3.19816E-02  1.47369E+02 -1.00000E+00  1.16699E-01
      21    -1     0     0   502   512  0.000000000E+00  0.000000000E+00  2.494231230E+02  2.494231230E+02  0.000000000E+00  0.00000E+00  9.000E+00
      21    -1     0     0   501   502  0.000000000E+00  0.000000000E+00 -1.452382057E+03  1.452382057E+03  0.000000000E+00  0.00000E+00  9.000E+00
      25     1     1     2     0     0 -5.026821767E+01  5.718622409E+02 -5.982678728E+02  8.385122324E+02  1.250000000E+02  0.00000E+00  9.000E+00
      25     1     1     2     0     0  6.020409277E+01 -4.248280717E+02 -5.436959007E+02  7.037994428E+02  1.250000000E+02  0.00000E+00  9.000E+00
      21     1     1     2   501   512 -9.935875100E+00 -1.470341692E+02 -6.099516093E+01  1.594935052E+02  2.023048729E-06  0.00000E+00  9.000E+00
#rwgt            1           1   3.2495945043747212E-002           1      279527           0
</event>
<event>
      5   9999  3.19816E-02  8.13404E+01 -1.00000E+00  1.28001E-01
      21    -1     0     0   502   501  0.000000000E+00  0.000000000E+00  3.709026112E+02  3.709026112E+02  0.000000000E+00  0.00000E+00  9.000E+00
       1    -1     0     0   501     0  0.000000000E+00  0.000000000E+00 -1.526542943E+03  1.526542943E+03  0.000000000E+00  0.00000E+00  9.000E+00
      25     1     1     2     0     0  1.221170731E+02 -3.252834254E+02 -3.786332789E+02  5.288762107E+02  1.250000000E+02  0.00000E+00  9.000E+00
      25     1     1     2     0     0 -2.016617969E+02  3.082865551E+02  1.653573510E+02  4.227009982E+02  1.250000000E+02  0.00000E+00  9.000E+00
       1     1     1     2   502     0  7.954472385E+01  1.699687029E+01 -9.423644040E+02  9.458683453E+02  1.078959322E-05  0.00000E+00  9.000E+00
#rwgt            2          12   5.9232125450603954E-004           1      279581           0
</event>
<event>
      5   9999  3.19816E-02  1.73261E+02 -1.00000E+00  1.13965E-01
      21    -1     0     0   502   501  0.000000000E+00  0.000000000E+00  2.443479767E+02  2.443479767E+02  0.000000000E+00  0.00000E+00  9.000E+00
      21    -1     0     0   501   511  0.000000000E+00  0.000000000E+00 -4.616168413E+02  4.616168413E+02  0.000000000E+00  0.00000E+00  9.000E+00
      25     1     1     2     0     0 -6.439021415E+01  3.550416812E+01 -2.242946761E+02  2.670950156E+02  1.250000000E+02  0.00000E+00  9.000E+00
      25     1     1     2     0     0 -3.280998713E+01 -1.789321058E+02  9.991039060E+01  2.422814064E+02  1.250000000E+02  0.00000E+00  9.000E+00
      21     1     1     2   502   511  9.720020128E+01  1.434279376E+02 -9.288457910E+01  1.965883960E+02  2.697398305E-06  0.00000E+00  9.000E+00
#rwgt            1           1   2.7063985164415098E-002           1      279615           0
</event>
<event>
      5   9999  3.19816E-02  1.32586E+02 -1.00000E+00  1.18558E-01
      21    -1     0     0   512   501  0.000000000E+00  0.000000000E+00  5.702118612E+02  5.702118612E+02  0.000000000E+00  0.00000E+00  9.000E+00
      21    -1     0     0   501   502  0.000000000E+00  0.000000000E+00 -1.376334846E+03  1.376334846E+03  0.000000000E+00  0.00000E+00  9.000E+00
      25     1     1     2     0     0 -2.908849410E+02  1.135339942E+02 -7.154549943E+02  7.905724923E+02  1.250000000E+02  0.00000E+00  9.000E+00
      25     1     1     2     0     0  4.224699806E+02 -1.297939250E+02 -5.275174833E+02  6.994476697E+02  1.250000000E+02  0.00000E+00  9.000E+00
      21     1     1     2   512   502 -1.315850396E+02  1.625993080E+01  4.368494923E+02  4.565265457E+02  0.000000000E+00  0.00000E+00  9.000E+00
#rwgt            1           1   1.4622062860260443E-002           1      279686           0
</event>
<event>
      5   9999  3.19816E-02  1.13598E+02 -1.00000E+00  1.21388E-01
      21    -1     0     0   502   501  0.000000000E+00  0.000000000E+00  8.521863676E+02  8.521863676E+02  0.000000000E+00  0.00000E+00  9.000E+00
      21    -1     0     0   511   502  0.000000000E+00  0.000000000E+00 -5.841076415E+02  5.841076415E+02  0.000000000E+00  0.00000E+00  9.000E+00
      25     1     1     2     0     0 -6.415601648E+01 -2.285530239E+02  7.578698129E+02  8.039553051E+02  1.250000000E+02  0.00000E+00  9.000E+00
      25     1     1     2     0     0  1.716981825E+02  1.919585796E+02 -3.451491045E+02  4.484208587E+02  1.250000000E+02  0.00000E+00  9.000E+00
      21     1     1     2   511   501 -1.075421660E+02  3.659444424E+01 -1.446419823E+02  1.839178454E+02  1.907348633E-06  0.00000E+00  9.000E+00
#rwgt            1           1   3.3525395126558076E-002           1      279754           0
</event>
<event>
      5   9999  3.19816E-02  2.34933E+01 -1.00000E+00  1.60800E-01
      21    -1     0     0   512   501  0.000000000E+00  0.000000000E+00  5.215389953E+02  5.215389953E+02  0.000000000E+00  0.00000E+00  9.000E+00
      21    -1     0     0   501   502  0.000000000E+00  0.000000000E+00 -1.941380536E+02  1.941380536E+02  0.000000000E+00  0.00000E+00  9.000E+00
      25     1     1     2     0     0  1.687853616E+02  5.193472768E+01  3.498679729E+02  4.113615353E+02  1.250000000E+02  0.00000E+00  9.000E+00
      25     1     1     2     0     0 -1.754501921E+02 -2.940665196E+01 -8.810834355E+01  2.345966779E+02  1.250000000E+02  0.00000E+00  9.000E+00
      21     1     1     2   512   502  6.664830515E+00 -2.252807571E+01  6.564131236E+01  6.971883569E+01  0.000000000E+00  0.00000E+00  9.000E+00
#rwgt            1           1   3.0663978953177136E-002           1      279830           0
</event>
<event>
      5   9999  3.19816E-02  8.53867E+01 -1.00000E+00  1.26995E-01
      21    -1     0     0   502   511  0.000000000E+00  0.000000000E+00  4.027389006E+02  4.027389006E+02  0.000000000E+00  0.00000E+00  9.000E+00
      21    -1     0     0   501   502  0.000000000E+00  0.000000000E+00 -5.283743734E+02  5.283743734E+02  0.000000000E+00  0.00000E+00  9.000E+00
      25     1     1     2     0     0 -1.328654369E+01 -1.733119542E+02 -2.513941268E+01  2.155703036E+02  1.250000000E+02  0.00000E+00  9.000E+00
      25     1     1     2     0     0  9.846431682E+01  1.673426160E+02 -3.681615641E+02  4.345879774E+02  1.250000000E+02  0.00000E+00  9.000E+00
      21     1     1     2   501   511 -8.517777313E+01  5.969338208E+00  2.676655040E+02  2.809549929E+02  3.814697266E-06  0.00000E+00  9.000E+00
#rwgt            1           1   2.8177983639267185E-002           1      279985           0
</event>
<event>
      5   9999  3.19816E-02  1.45384E+02 -1.00000E+00  1.16934E-01
      21    -1     0     0   502   501  0.000000000E+00  0.000000000E+00  2.956016012E+02  2.956016012E+02  0.000000000E+00  0.00000E+00  9.000E+00
      21    -1     0     0   512   502  0.000000000E+00  0.000000000E+00 -6.825182279E+02  6.825182279E+02  0.000000000E+00  0.00000E+00  9.000E+00
      25     1     1     2     0     0 -4.192433276E+02  1.979272235E+01 -2.001208650E+02  4.814873624E+02  1.250000000E+02  0.00000E+00  9.000E+00
      25     1     1     2     0     0  2.852266736E+02  3.656394816E+01 -1.105782047E+02  3.324811528E+02  1.250000000E+02  0.00000E+00  9.000E+00
      21     1     1     2   512   501  1.340166540E+02 -5.635667051E+01 -7.621755694E+01  1.641513139E+02  3.438521648E-06  0.00000E+00  9.000E+00
#rwgt            1           1   2.8238433801297497E-002           1      280068           0
</event>
<event>
      5   9999  3.19816E-02  2.14975E+02 -1.00000E+00  1.10518E-01
      21    -1     0     0   502   501  0.000000000E+00  0.000000000E+00  1.726761095E+02  1.726761095E+02  0.000000000E+00  0.00000E+00  9.000E+00
       2    -1     0     0   501     0  0.000000000E+00  0.000000000E+00 -1.793611747E+03  1.793611747E+03  0.000000000E+00  0.00000E+00  9.000E+00
      25     1     1     2     0     0 -7.361655388E+01  3.451210840E+02 -8.909808112E+02  9.664366330E+02  1.250000000E+02  0.00000E+00  9.000E+00
      25     1     1     2     0     0 -1.397736111E+02 -3.711761289E+02 -2.804431874E+02  5.015792683E+02  1.250000000E+02  0.00000E+00  9.000E+00
       2     1     1     2   502     0  2.133901650E+02  2.605504496E+01 -4.495116387E+02  4.982719551E+02  1.206313194E-05  0.00000E+00  9.000E+00
#rwgt            1           1   2.8503154592620362E-002           1      280116           0
</event>
<event>
      5   9999  3.19816E-02  2.36270E+02 -1.00000E+00  1.09075E-01
       2    -1     0     0   502     0  0.000000000E+00  0.000000000E+00  1.715290701E+03  1.715290701E+03  0.000000000E+00  0.00000E+00  9.000E+00
      21    -1     0     0   501   502  0.000000000E+00  0.000000000E+00 -1.267835921E+02  1.267835921E+02  0.000000000E+00  0.00000E+00  9.000E+00
      25     1     1     2     0     0 -2.002825422E+02 -5.933696076E+00  4.594693163E+02  5.166094831E+02  1.250000000E+02  0.00000E+00  9.000E+00
      25     1     1     2     0     0  7.297253736E+01 -1.931027901E+02  8.629869552E+01  2.562930815E+02  1.250000000E+02  0.00000E+00  9.000E+00
       2     1     1     2   501     0  1.273100049E+02  1.990364862E+02  1.042739097E+03  1.069171728E+03  0.000000000E+00  0.00000E+00  9.000E+00
#rwgt            1           1   3.1970079943334992E-002           1      280168           0
</event>
<event>
      5   9999  3.19816E-02  1.01083E+02 -1.00000E+00  1.23618E-01
      21    -1     0     0   502   501  0.000000000E+00  0.000000000E+00  3.193544261E+02  3.193544261E+02  0.000000000E+00  0.00000E+00  9.000E+00
      21    -1     0     0   511   502  0.000000000E+00  0.000000000E+00 -1.184533932E+03  1.184533932E+03  0.000000000E+00  0.00000E+00  9.000E+00
      25     1     1     2     0     0 -3.162007413E+02  3.524154195E+02 -1.027507981E+02  5.003621320E+02  1.250000000E+02  0.00000E+00  9.000E+00
      25     1     1     2     0     0  2.880146288E+02 -4.494891844E+02 -6.054288559E+02  8.167998854E+02  1.250000000E+02  0.00000E+00  9.000E+00
      21     1     1     2   511   501  2.818611249E+01  9.707376492E+01 -1.569998517E+02  1.867263404E+02  1.907348633E-06  0.00000E+00  9.000E+00
#rwgt            1           1   3.1018495788354274E-002           1      280203           0
</event>
<event>
      5   9999  3.19816E-02  5.12157E+01 -1.00000E+00  1.38483E-01
      21    -1     0     0   502   501  0.000000000E+00  0.000000000E+00  2.411844109E+02  2.411844109E+02  0.000000000E+00  0.00000E+00  9.000E+00
       2    -1     0     0   501     0  0.000000000E+00  0.000000000E+00 -2.061863726E+03  2.061863726E+03  0.000000000E+00  0.00000E+00  9.000E+00
      25     1     1     2     0     0 -2.420056074E+02  5.199207381E+02 -1.027188322E+03  1.183057538E+03  1.250000000E+02  0.00000E+00  9.000E+00
      25     1     1     2     0     0  2.930433731E+02 -5.156546572E+02 -4.069550763E+02  7.300764194E+02  1.250000000E+02  0.00000E+00  9.000E+00
       2     1     1     2   502     0 -5.103776564E+01 -4.266080853E+00 -3.865359165E+02  3.899141799E+02  5.394796609E-06  0.00000E+00  9.000E+00
#rwgt            1           1   2.9292454929496732E-002           1      280263           0
</event>
<event>
      5   9999  3.19816E-02  1.86316E+01 -1.00000E+00  1.68949E-01
      21    -1     0     0   502   501  0.000000000E+00  0.000000000E+00  2.979989414E+03  2.979989414E+03  0.000000000E+00  0.00000E+00  9.000E+00
      21    -1     0     0   501   511  0.000000000E+00  0.000000000E+00 -6.809188924E+01  6.809188924E+01  0.000000000E+00  0.00000E+00  9.000E+00
      25     1     1     2     0     0  2.114941524E+02 -2.183085260E+02  4.272128012E+02  5.390029374E+02  1.250000000E+02  0.00000E+00  9.000E+00
      25     1     1     2     0     0 -1.938259632E+02  2.242222985E+02  2.432326684E+03  2.453504074E+03  1.250000000E+02  0.00000E+00  9.000E+00
      21     1     1     2   502   511 -1.766818917E+01 -5.913772467E+00  5.235803958E+01  5.557429192E+01  1.168007728E-06  0.00000E+00  9.000E+00
#rwgt            1           1   4.9079512070842483E-002           1      280451           0
</event>
<event>
      5   9999  3.19816E-02  1.64099E+02 -1.00000E+00  1.14868E-01
      21    -1     0     0   502   512  0.000000000E+00  0.000000000E+00  1.474837640E+03  1.474837640E+03  0.000000000E+00  0.00000E+00  9.000E+00
      21    -1     0     0   501   502  0.000000000E+00  0.000000000E+00 -2.762673787E+02  2.762673787E+02  0.000000000E+00  0.00000E+00  9.000E+00
      25     1     1     2     0     0 -9.159609476E+01 -2.525954258E+02  1.081971387E+03  1.121820563E+03  1.250000000E+02  0.00000E+00  9.000E+00
      25     1     1     2     0     0 -3.986941955E+01  3.508063907E+02 -6.975275794E+01  3.809791879E+02  1.250000000E+02  0.00000E+00  9.000E+00
      21     1     1     2   501   512  1.314655143E+02 -9.821096490E+01  1.863516327E+02  2.483052679E+02  2.697398305E-06  0.00000E+00  9.000E+00
#rwgt            1           1   3.3419078564537533E-002           1      280631           0
</event>
<event>
      5   9999  3.19816E-02  2.90376E+02 -1.00000E+00  1.06054E-01
      21    -1     0     0   502   501  0.000000000E+00  0.000000000E+00  1.096437903E+02  1.096437903E+02  0.000000000E+00  0.00000E+00  9.000E+00
       1    -1     0     0   501     0  0.000000000E+00  0.000000000E+00 -2.229530267E+03  2.229530267E+03  0.000000000E+00  0.00000E+00  9.000E+00
      25     1     1     2     0     0  2.757994700E+02 -8.541016002E+01 -1.191899842E+03  1.232724818E+03  1.250000000E+02  0.00000E+00  9.000E+00
      25     1     1     2     0     0 -2.070955725E+02 -1.967211823E+02 -4.606430529E+02  5.562416938E+02  1.250000000E+02  0.00000E+00  9.000E+00
       1     1     1     2   502     0 -6.870389745E+01  2.821313423E+02 -4.673435816E+02  5.502075455E+02  9.344061824E-06  0.00000E+00  9.000E+00
#rwgt            2          12   4.9965443892283610E-004           1      280692           0
</event>
<event>
      5   9999  3.19816E-02  1.78212E+02 -1.00000E+00  1.13503E-01
      21    -1     0     0   502   501  0.000000000E+00  0.000000000E+00  3.462538082E+02  3.462538082E+02  0.000000000E+00  0.00000E+00  9.000E+00
      21    -1     0     0   501   511  0.000000000E+00  0.000000000E+00 -1.251404766E+03  1.251404766E+03  0.000000000E+00  0.00000E+00  9.000E+00
      25     1     1     2     0     0  4.556479938E+02 -1.302560408E+02 -3.287158269E+01  4.912100074E+02  1.250000000E+02  0.00000E+00  9.000E+00
      25     1     1     2     0     0 -3.666366877E+02  2.846464387E+02 -7.481450885E+02  8.892649376E+02  1.250000000E+02  0.00000E+00  9.000E+00
      21     1     1     2   502   511 -8.901130613E+01 -1.543903978E+02 -1.241342862E+02  2.171836287E+02  3.568322551E-06  0.00000E+00  9.000E+00
#rwgt            2          11   5.2447089306513249E-003           1      280861           0
</event>
<event>
      5   9999  3.19816E-02  2.82972E+01 -1.00000E+00  1.54824E-01
      21    -1     0     0   512   501  0.000000000E+00  0.000000000E+00  1.177671934E+03  1.177671934E+03  0.000000000E+00  0.00000E+00  9.000E+00
      21    -1     0     0   501   502  0.000000000E+00  0.000000000E+00 -3.562550539E+01  3.562550539E+01  0.000000000E+00  0.00000E+00  9.000E+00
      25     1     1     2     0     0 -4.244591341E+01 -7.366566684E+01  1.931101938E+02  2.452444351E+02  1.250000000E+02  0.00000E+00  9.000E+00
      25     1     1     2     0     0  7.073103690E+01  7.449063379E+01  8.440462395E+02  8.594130488E+02  1.250000000E+02  0.00000E+00  9.000E+00
      21     1     1     2   512   502 -2.828512349E+01 -8.249669493E-01  1.048899950E+02  1.086399551E+02  0.000000000E+00  0.00000E+00  9.000E+00
#rwgt            1           1   3.2565630305711836E-002           1      280911           0
</event>
<event>
      5   9999  3.19816E-02  1.65017E+01 -1.00000E+00  1.73567E-01
      21    -1     0     0   502   501  0.000000000E+00  0.000000000E+00  2.819879839E+02  2.819879839E+02  0.000000000E+00  0.00000E+00  9.000E+00
      21    -1     0     0   511   502  0.000000000E+00  0.000000000E+00 -1.030685506E+02  1.030685506E+02  0.000000000E+00  0.00000E+00  9.000E+00
      25     1     1     2     0     0  6.064063986E+01  7.960982904E+00  1.337233854E+01  1.398015876E+02  1.250000000E+02  0.00000E+00  9.000E+00
      25     1     1     2     0     0 -6.442735696E+01 -2.402231290E+01  1.753552564E+02  2.260584477E+02  1.250000000E+02  0.00000E+00  9.000E+00
      21     1     1     2   511   501  3.786717104E+00  1.606132999E+01 -9.808161584E+00  1.919649919E+01  2.064765462E-07  0.00000E+00  9.000E+00
#rwgt            1           1   6.7654512265198169E-002           1      281014           0
</event>
<event>
      5   9999  3.19816E-02  2.06134E+02 -1.00000E+00  1.11173E-01
       2    -1     0     0   502     0  0.000000000E+00  0.000000000E+00  3.961167697E+03  3.961167697E+03  0.000000000E+00  0.00000E+00  9.000E+00
      21    -1     0     0   501   502  0.000000000E+00  0.000000000E+00 -4.781735378E+02  4.781735378E+02  0.000000000E+00  0.00000E+00  9.000E+00
      25     1     1     2     0     0  4.890698547E+02 -4.561945542E+02 -1.763260180E+02  7.028646090E+02  1.250000000E+02  0.00000E+00  9.000E+00
      25     1     1     2     0     0 -2.829520105E+02  4.535938685E+02  2.701735990E+03  2.756956946E+03  1.250000000E+02  0.00000E+00  9.000E+00
       2     1     1     2   501     0 -2.061178442E+02  2.600685617E+00  9.575841864E+02  9.795196799E+02  1.525878906E-05  0.00000E+00  9.000E+00
#rwgt            1           1   7.4431437415756604E-003           1      281195           0
</event>
<event>
      5   9999  3.19816E-02  1.82772E+02 -1.00000E+00  1.13091E-01
      21    -1     0     0   511   501  0.000000000E+00  0.000000000E+00  2.749840462E+03  2.749840462E+03  0.000000000E+00  0.00000E+00  9.000E+00
      21    -1     0     0   501   502  0.000000000E+00  0.000000000E+00 -8.180988235E+01  8.180988235E+01  0.000000000E+00  0.00000E+00  9.000E+00
      25     1     1     2     0     0  1.590244404E+02 -3.467202572E+02  7.938286333E+02  8.895462936E+02  1.250000000E+02  0.00000E+00  9.000E+00
      25     1     1     2     0     0  1.385995045E+01  2.874203410E+02  9.651600907E+02  1.014870214E+03  1.250000000E+02  0.00000E+00  9.000E+00
      21     1     1     2   511   502 -1.728843909E+02  5.929991615E+01  9.090418560E+02  9.272338371E+02  0.000000000E+00  0.00000E+00  9.000E+00
#rwgt            1           1   3.5007478956452988E-002           1      281261           0
</event>
<event>
      5   9999  3.19816E-02  8.23621E+01 -1.00000E+00  1.27741E-01
      21    -1     0     0   502   512  0.000000000E+00  0.000000000E+00  2.660194543E+02  2.660194543E+02  0.000000000E+00  0.00000E+00  9.000E+00
      21    -1     0     0   501   502  0.000000000E+00  0.000000000E+00 -8.035860454E+02  8.035860454E+02  0.000000000E+00  0.00000E+00  9.000E+00
      25     1     1     2     0     0 -1.526447607E+02 -2.170514320E+02 -3.371070670E+02  4.468533560E+02  1.250000000E+02  0.00000E+00  9.000E+00
      25     1     1     2     0     0  2.237763133E+02  2.585702927E+02 -3.151596150E+02  4.815444088E+02  1.250000000E+02  0.00000E+00  9.000E+00
      21     1     1     2   501   512 -7.113155260E+01 -4.151886070E+01  1.147000909E+02  1.412077350E+02  0.000000000E+00  0.00000E+00  9.000E+00
#rwgt            1           1   2.5485526188192692E-002           1      281309           0
</event>
<event>
      5   9999  3.19816E-02  7.36518E+00 -1.00000E+00  2.12479E-01
      21    -1     0     0   502   501  0.000000000E+00  0.000000000E+00  1.815621549E+02  1.815621549E+02  0.000000000E+00  0.00000E+00  9.000E+00
      21    -1     0     0   511   502  0.000000000E+00  0.000000000E+00 -1.809983877E+03  1.809983877E+03  0.000000000E+00  0.00000E+00  9.000E+00
      25     1     1     2     0     0  4.429407962E+02  3.110352199E+02 -6.740581098E+02  8.734522267E+02  1.250000000E+02  0.00000E+00  9.000E+00
      25     1     1     2     0     0 -4.486226812E+02 -3.063488499E+02 -8.690665039E+02  1.032479305E+03  1.250000000E+02  0.00000E+00  9.000E+00
      21     1     1     2   511   501  5.681885078E+00 -4.686370015E+00 -8.529710885E+01  8.561450029E+01  9.536743164E-07  0.00000E+00  9.000E+00
#rwgt            1           1   2.9588364880996507E-002           1      281426           0
</event>
<event>
      5   9999  3.19816E-02  7.76350E+01 -1.00000E+00  1.28983E-01
      21    -1     0     0   502   501  0.000000000E+00  0.000000000E+00  1.182675644E+02  1.182675644E+02  0.000000000E+00  0.00000E+00  9.000E+00
       2    -1     0     0   501     0  0.000000000E+00  0.000000000E+00 -1.916798037E+03  1.916798037E+03  0.000000000E+00  0.00000E+00  9.000E+00
      25     1     1     2     0     0 -8.808541558E+01  3.355665572E+02 -4.201062297E+02  5.589974946E+02  1.250000000E+02  0.00000E+00  9.000E+00
      25     1     1     2     0     0  4.998519293E+01 -4.032094434E+02 -9.514511578E+02  1.042094372E+03  1.250000000E+02  0.00000E+00  9.000E+00
       2     1     1     2   502     0  3.810022264E+01  6.764288621E+01 -4.269730855E+02  4.339737351E+02  0.000000000E+00  0.00000E+00  9.000E+00
#rwgt            1           1   2.8350521530606371E-002           1      281792           0
</event>
<event>
      5   9999  3.19816E-02  4.03449E+00 -1.00000E+00  2.62595E-01
      21    -1     0     0   502   501  0.000000000E+00  0.000000000E+00  5.221126632E+02  5.221126632E+02  0.000000000E+00  0.00000E+00  9.000E+00
      21    -1     0     0   511   502  0.000000000E+00  0.000000000E+00 -1.257855955E+02  1.257855955E+02  0.000000000E+00  0.00000E+00  9.000E+00
      25     1     1     2     0     0 -1.176156931E+02 -7.273653912E+01 -7.407616369E-01  1.864124570E+02  1.250000000E+02  0.00000E+00  9.000E+00
      25     1     1     2     0     0  1.156609506E+02  7.626585589E+01  4.086414789E+02  4.492291114E+02  1.250000000E+02  0.00000E+00  9.000E+00
      21     1     1     2   511   501  1.954742446E+00 -3.529316768E+00 -1.157364955E+01  1.225669037E+01  1.685873940E-07  0.00000E+00  9.000E+00
#rwgt            1           1   2.9063128316524960E-002           1      281881           0
</event>
<event>
      5   9999  3.19816E-02  2.16067E+01 -1.00000E+00  1.63647E-01
      21    -1     0     0   502   501  0.000000000E+00  0.000000000E+00  1.802927276E+03  1.802927276E+03  0.000000000E+00  0.00000E+00  9.000E+00
      21    -1     0     0   501   512  0.000000000E+00  0.000000000E+00 -1.190035553E+02  1.190035553E+02  0.000000000E+00  0.00000E+00  9.000E+00
      25     1     1     2     0     0 -2.802085796E+01 -1.060303926E+02  7.040702408E+02  7.234414397E+02  1.250000000E+02  0.00000E+00  9.000E+00
      25     1     1     2     0     0  4.769159804E+01  1.149696497E+02  1.080879109E+03  1.095179053E+03  1.250000000E+02  0.00000E+00  9.000E+00
      21     1     1     2   502   512 -1.967074008E+01 -8.939257114E+00 -1.010256293E+02  1.033103388E+02  2.336015456E-06  0.00000E+00  9.000E+00
#rwgt            1           1   7.3678010874867847E-002           1      282279           0
</event>
<event>
      5   9999  3.19816E-02  9.47914E+01 -1.00000E+00  1.24882E-01
      21    -1     0     0   511   501  0.000000000E+00  0.000000000E+00  6.398807469E+02  6.398807469E+02  0.000000000E+00  0.00000E+00  9.000E+00
      21    -1     0     0   501   502  0.000000000E+00  0.000000000E+00 -3.408663148E+02  3.408663148E+02  0.000000000E+00  0.00000E+00  9.000E+00
      25     1     1     2     0     0 -1.704522850E+02  1.556031317E+02 -6.541315172E+01  2.704999010E+02  1.250000000E+02  0.00000E+00  9.000E+00
      25     1     1     2     0     0  1.024486586E+02 -2.216404094E+02 -5.540362281E+01  2.798477446E+02  1.250000000E+02  0.00000E+00  9.000E+00
      21     1     1     2   511   502  6.800362632E+01  6.603727770E+01  4.198312067E+02  4.303994161E+02  0.000000000E+00  0.00000E+00  9.000E+00
#rwgt            1           1   2.7222208249770126E-002           1      282473           0
</event>
<event>
      5   9999  3.19816E-02  5.74002E+01 -1.00000E+00  1.35740E-01
      21    -1     0     0   502   512  0.000000000E+00  0.000000000E+00  7.424817181E+02  7.424817181E+02  0.000000000E+00  0.00000E+00  9.000E+00
      21    -1     0     0   501   502  0.000000000E+00  0.000000000E+00 -5.082429462E+02  5.082429462E+02  0.000000000E+00  0.00000E+00  9.000E+00
      25     1     1     2     0     0 -1.214139647E+01  6.544382481E+01 -4.784831360E+02  4.990004200E+02  1.250000000E+02  0.00000E+00  9.000E+00
      25     1     1     2     0     0  6.222105960E+00 -1.225379676E+02  6.026107712E+02  6.275500057E+02  1.250000000E+02  0.00000E+00  9.000E+00
      21     1     1     2   501   512  5.919290509E+00  5.709414277E+01  1.101111367E+02  1.241742387E+02  2.336015456E-06  0.00000E+00  9.000E+00
#rwgt            1           1   3.3452546447580805E-002           1      282541           0
</event>
<event>
      5   9999  3.19816E-02  3.53987E+01 -1.00000E+00  1.48210E-01
      21    -1     0     0   502   501  0.000000000E+00  0.000000000E+00  9.718442548E+02  9.718442548E+02  0.000000000E+00  0.00000E+00  9.000E+00
      21    -1     0     0   501   511  0.000000000E+00  0.000000000E+00 -1.665705327E+02  1.665705327E+02  0.000000000E+00  0.00000E+00  9.000E+00
      25     1     1     2     0     0  1.204388949E+02 -9.491877663E+01  8.734484244E+02  8.955736997E+02  1.250000000E+02  0.00000E+00  9.000E+00
      25     1     1     2     0     0 -9.530313562E+01  1.198439456E+02 -5.878542099E+01  2.062182938E+02  1.250000000E+02  0.00000E+00  9.000E+00
      21     1     1     2   502   511 -2.513575929E+01 -2.492516898E+01 -9.389281249E+00  3.662279408E+01  1.137184145E-06  0.00000E+00  9.000E+00
#rwgt            1           1   2.8025215151275432E-002           1      282695           0
</event>
<event>
      5   9999  3.19816E-02  7.09692E+01 -1.00000E+00  1.30919E-01
      21    -1     0     0   502   501  0.000000000E+00  0.000000000E+00  7.565700325E+02  7.565700325E+02  0.000000000E+00  0.00000E+00  9.000E+00
      21    -1     0     0   501   512  0.000000000E+00  0.000000000E+00 -1.993461647E+02  1.993461647E+02  0.000000000E+00  0.00000E+00  9.000E+00
      25     1     1     2     0     0 -1.235050220E+02  6.780403481E+01  3.757020773E+02  4.202712558E+02  1.250000000E+02  0.00000E+00  9.000E+00
      25     1     1     2     0     0  1.597126061E+02 -1.288420797E+02  3.079873019E+02  3.906271575E+02  1.250000000E+02  0.00000E+00  9.000E+00
      21     1     1     2   502   512 -3.620758406E+01  6.103804493E+01 -1.264655114E+02  1.450177839E+02  3.814697266E-06  0.00000E+00  9.000E+00
#rwgt            1           1   2.7888290156000698E-002           1      282826           0
</event>
<event>
      5   9999  3.19816E-02  9.29894E+00 -1.00000E+00  1.99478E-01
      21    -1     0     0   502   501  0.000000000E+00  0.000000000E+00  2.810437181E+02  2.810437181E+02  0.000000000E+00  0.00000E+00  9.000E+00
      21    -1     0     0   511   502  0.000000000E+00  0.000000000E+00 -2.580122936E+02  2.580122936E+02  0.000000000E+00  0.00000E+00  9.000E+00
      25     1     1     2     0     0 -5.665746379E+01 -1.829293394E+02 -6.101721246E+01  2.366882161E+02  1.250000000E+02  0.00000E+00  9.000E+00
      25     1     1     2     0     0  6.372544697E+01  1.889720167E+02  1.207326215E+02  2.645235747E+02  1.250000000E+02  0.00000E+00  9.000E+00
      21     1     1     2   511   501 -7.067983171E+00 -6.042677281E+00 -3.668398448E+01  3.784422086E+01  0.000000000E+00  0.00000E+00  9.000E+00
#rwgt            1           1   2.9051161987749419E-002           1      282881           0
</event>
<event>
      5   9999  3.19816E-02  9.43734E+01 -1.00000E+00  1.24970E-01
      21    -1     0     0   502   501  0.000000000E+00  0.000000000E+00  1.533422255E+02  1.533422255E+02  0.000000000E+00  0.00000E+00  9.000E+00
      21    -1     0     0   512   502  0.000000000E+00  0.000000000E+00 -7.509917865E+02  7.509917865E+02  0.000000000E+00  0.00000E+00  9.000E+00
      25     1     1     2     0     0 -1.729590294E+02  2.346349966E+01 -4.163890647E+01  2.186873572E+02  1.250000000E+02  0.00000E+00  9.000E+00
      25     1     1     2     0     0  1.585781051E+02 -1.167347315E+02 -1.709144209E+02  2.891552390E+02  1.250000000E+02  0.00000E+00  9.000E+00
      21     1     1     2   512   501  1.438092430E+01  9.327123182E+01 -3.850962336E+02  3.964914158E+02  0.000000000E+00  0.00000E+00  9.000E+00
#rwgt            1           1   2.6228725246990863E-002           1      283122           0
</event>
<event>
      5   9999  3.19816E-02  1.80693E+01 -1.00000E+00  1.70091E-01
      21    -1     0     0   502   511  0.000000000E+00  0.000000000E+00  1.759225924E+02  1.759225924E+02  0.000000000E+00  0.00000E+00  9.000E+00
      21    -1     0     0   501   502  0.000000000E+00  0.000000000E+00 -2.750694256E+02  2.750694256E+02  0.000000000E+00  0.00000E+00  9.000E+00
      25     1     1     2     0     0 -4.474711265E+01  1.214645966E+02  2.831090336E+01  1.821605324E+02  1.250000000E+02  0.00000E+00  9.000E+00
      25     1     1     2     0     0  6.056958557E+01 -1.127381976E+02 -1.544538215E+02  2.363462690E+02  1.250000000E+02  0.00000E+00  9.000E+00
      21     1     1     2   501   511 -1.582247292E+01 -8.726399009E+00  2.699608499E+01  3.248521654E+01  4.768371582E-07  0.00000E+00  9.000E+00
#rwgt            1           1   2.5529494237382360E-002           1      283206           0
</event>
<event>
      5   9999  3.19816E-02  4.19893E+01 -1.00000E+00  1.43545E-01
      21    -1     0     0   512   501  0.000000000E+00  0.000000000E+00  1.805814744E+02  1.805814744E+02  0.000000000E+00  0.00000E+00  9.000E+00
      21    -1     0     0   501   502  0.000000000E+00  0.000000000E+00 -1.053966057E+03  1.053966057E+03  0.000000000E+00  0.00000E+00  9.000E+00
      25     1     1     2     0     0  4.407892763E+01  3.711331595E+02 -3.713754794E+02  5.415048667E+02  1.250000000E+02  0.00000E+00  9.000E+00
      25     1     1     2     0     0 -2.233590099E+01 -4.070544486E+02 -4.896176036E+02  6.492631318E+02  1.250000000E+02  0.00000E+00  9.000E+00
      21     1     1     2   512   502 -2.174302663E+01  3.592128913E+01 -1.239149921E+01  4.377953258E+01  9.386548846E-07  0.00000E+00  9.000E+00
#rwgt            1           1   3.3239716415505480E-002           1      283385           0
</event>
<event>
      5   9999  3.19816E-02  2.95993E+01 -1.00000E+00  1.53447E-01
      21    -1     0     0   502   511  0.000000000E+00  0.000000000E+00  1.592865456E+03  1.592865456E+03  0.000000000E+00  0.00000E+00  9.000E+00
      21    -1     0     0   501   502  0.000000000E+00  0.000000000E+00 -3.107978412E+02  3.107978412E+02  0.000000000E+00  0.00000E+00  9.000E+00
      25     1     1     2     0     0 -1.579874138E+02  6.368102398E+02  4.774682235E+02  8.210287504E+02  1.250000000E+02  0.00000E+00  9.000E+00
      25     1     1     2     0     0  1.510074332E+02 -6.655747578E+02  7.597822516E+02  1.028925203E+03  1.250000000E+02  0.00000E+00  9.000E+00
      21     1     1     2   501   511  6.979980622E+00  2.876451796E+01  4.481713926E+01  5.370934364E+01  6.743495762E-07  0.00000E+00  9.000E+00
#rwgt            1           1   2.2934740543970898E-002           1      283546           0
</event>
<event>
      5   9999  3.19816E-02  4.11978E+01 -1.00000E+00  1.44050E-01
      21    -1     0     0   502   501  0.000000000E+00  0.000000000E+00  8.666588719E+02  8.666588719E+02  0.000000000E+00  0.00000E+00  9.000E+00
      21    -1     0     0   501   512  0.000000000E+00  0.000000000E+00 -1.061056439E+03  1.061056439E+03  0.000000000E+00  0.00000E+00  9.000E+00
      25     1     1     2     0     0  1.493001165E+02  2.207439047E+02  3.480266543E+02  4.558135018E+02  1.250000000E+02  0.00000E+00  9.000E+00
      25     1     1     2     0     0 -1.237072807E+02 -1.884597044E+02  4.285248585E+02  5.000790996E+02  1.250000000E+02  0.00000E+00  9.000E+00
      21     1     1     2   502   512 -2.559283581E+01 -3.228420037E+01 -9.709490795E+02  9.718227091E+02  1.078959322E-05  0.00000E+00  9.000E+00
#rwgt            1           1   2.6455064899134774E-002           1      283707           0
</event>
<event>
      5   9999  3.19816E-02  1.56425E+02 -1.00000E+00  1.15676E-01
      21    -1     0     0   502   501  0.000000000E+00  0.000000000E+00  8.046723902E+02  8.046723902E+02  0.000000000E+00  0.00000E+00  9.000E+00
      21    -1     0     0   501   511  0.000000000E+00  0.000000000E+00 -3.070972605E+02  3.070972605E+02  0.000000000E+00  0.00000E+00  9.000E+00
      25     1     1     2     0     0  1.486855292E+02 -3.048255275E+02  5.539879882E+02  6.614784047E+02  1.250000000E+02  0.00000E+00  9.000E+00
      25     1     1     2     0     0 -1.837903189E+02  1.523901117E+02  3.071457228E+01  2.712379258E+02  1.250000000E+02  0.00000E+00  9.000E+00
      21     1     1     2   502   511  3.510478966E+01  1.524354159E+02 -8.712743078E+01  1.790533202E+02  2.697398305E-06  0.00000E+00  9.000E+00
#rwgt            1           1   2.9326710396393597E-002           1      283828           0
</event>
<event>
      5   9999  3.19816E-02  2.97258E+02 -1.00000E+00  1.05722E-01
      21    -1     0     0   502   512  0.000000000E+00  0.000000000E+00  1.973596086E+03  1.973596086E+03  0.000000000E+00  0.00000E+00  9.000E+00
      21    -1     0     0   501   502  0.000000000E+00  0.000000000E+00 -1.783321745E+02  1.783321745E+02  0.000000000E+00  0.00000E+00  9.000E+00
      25     1     1     2     0     0 -2.807026106E+02 -4.971590253E+01  1.733233934E+02  3.562746486E+02  1.250000000E+02  0.00000E+00  9.000E+00
      25     1     1     2     0     0  1.861661198E+02 -2.321092406E+02  2.997606533E+02  4.404701727E+02  1.250000000E+02  0.00000E+00  9.000E+00
      21     1     1     2   501   512  9.453649076E+01  2.818251431E+02  1.322179864E+03  1.355183439E+03  1.525878906E-05  0.00000E+00  9.000E+00
#rwgt            1           1   2.1730138528682930E-002           1      283918           0
</event>
<event>
      5   9999  3.19816E-02  1.44971E+02 -1.00000E+00  1.16984E-01
      21    -1     0     0   502   511  0.000000000E+00  0.000000000E+00  4.243963615E+02  4.243963615E+02  0.000000000E+00  0.00000E+00  9.000E+00
      21    -1     0     0   501   502  0.000000000E+00  0.000000000E+00 -3.046651786E+02  3.046651786E+02  0.000000000E+00  0.00000E+00  9.000E+00
      25     1     1     2     0     0 -2.019613798E+02 -1.991002666E+01  5.872818236E+01  2.454766944E+02  1.250000000E+02  0.00000E+00  9.000E+00
      25     1     1     2     0     0  2.618517271E+02 -1.121118590E+02 -2.985825540E+01  3.124930580E+02  1.250000000E+02  0.00000E+00  9.000E+00
      21     1     1     2   501   511 -5.989034728E+01  1.320218857E+02  9.086125593E+01  1.710917877E+02  4.046097457E-06  0.00000E+00  9.000E+00
#rwgt            1           1   2.3720750854326272E-002           1      283948           0
</event>
<event>
      5   9999  3.19816E-02  6.70174E+01 -1.00000E+00  1.32186E-01
      21    -1     0     0   502   501  0.000000000E+00  0.000000000E+00  6.906230296E+02  6.906230296E+02  0.000000000E+00  0.00000E+00  9.000E+00
      21    -1     0     0   512   502  0.000000000E+00  0.000000000E+00 -4.483859254E+02  4.483859254E+02  0.000000000E+00  0.00000E+00  9.000E+00
      25     1     1     2     0     0  3.526502419E+02 -1.949160317E+02 -1.227142394E+02  4.393611693E+02  1.250000000E+02  0.00000E+00  9.000E+00
      25     1     1     2     0     0 -4.183307947E+02  2.082350335E+02  3.966096205E+02  6.255291153E+02  1.250000000E+02  0.00000E+00  9.000E+00
      21     1     1     2   512   501  6.568055274E+01 -1.331900188E+01 -3.165827687E+01  7.411867048E+01  1.685873940E-06  0.00000E+00  9.000E+00
#rwgt            1           1   2.7862959796111031E-002           1      283992           0
</event>
<event>
      5   9999  3.19816E-02  2.86928E+01 -1.00000E+00  1.54396E-01
      21    -1     0     0   502   511  0.000000000E+00  0.000000000E+00  3.153662330E+02  3.153662330E+02  0.000000000E+00  0.00000E+00  9.000E+00
      21    -1     0     0   501   502  0.000000000E+00  0.000000000E+00 -8.825323410E+02  8.825323410E+02  0.000000000E+00  0.00000E+00  9.000E+00
      25     1     1     2     0     0  3.745688877E+02  2.289157207E+02 -2.378368421E+01  4.570502406E+02  1.250000000E+02  0.00000E+00  9.000E+00
      25     1     1     2     0     0 -3.990966633E+02 -2.140272821E+02 -5.326095651E+02  7.101998120E+02  1.250000000E+02  0.00000E+00  9.000E+00
      21     1     1     2   501   511  2.452777559E+01 -1.488843866E+01 -1.077285862E+01  3.064852140E+01  4.298152060E-07  0.00000E+00  9.000E+00
#rwgt            1           1   3.0504371443210956E-002           1      284125           0
</event>
<event>
      5   9999  3.19816E-02  1.34406E+02 -1.00000E+00  1.18315E-01
      21    -1     0     0   502   512  0.000000000E+00  0.000000000E+00  1.184268980E+03  1.184268980E+03  0.000000000E+00  0.00000E+00  9.000E+00
      21    -1     0     0   501   502  0.000000000E+00  0.000000000E+00 -1.006995830E+03  1.006995830E+03  0.000000000E+00  0.00000E+00  9.000E+00
      25     1     1     2     0     0 -3.807755197E+02  7.816146620E+02  4.811511364E+01  8.796883200E+02  1.250000000E+02  0.00000E+00  9.000E+00
      25     1     1     2     0     0  2.726941933E+02 -8.615113698E+02 -2.191819968E+02  9.382055804E+02  1.250000000E+02  0.00000E+00  9.000E+00
      21     1     1     2   501   512  1.080813264E+02  7.989670778E+01  3.483400336E+02  3.733709095E+02  5.394796609E-06  0.00000E+00  9.000E+00
#rwgt            1           1   3.8523949050052075E-002           1      284253           0
</event>
<event>
      5   9999  3.19816E-02  1.42296E+02 -1.00000E+00  1.17308E-01
      21    -1     0     0   502   501  0.000000000E+00  0.000000000E+00  6.606638404E+02  6.606638404E+02  0.000000000E+00  0.00000E+00  9.000E+00
      21    -1     0     0   511   502  0.000000000E+00  0.000000000E+00 -5.808497755E+02  5.808497755E+02  0.000000000E+00  0.00000E+00  9.000E+00
      25     1     1     2     0     0 -1.809502985E+02  3.844587342E+02  3.936444849E+02  5.925643503E+02  1.250000000E+02  0.00000E+00  9.000E+00
      25     1     1     2     0     0  1.854373282E+02 -2.422330385E+02 -2.949708371E+01  3.309968664E+02  1.250000000E+02  0.00000E+00  9.000E+00
      21     1     1     2   511   501 -4.487029741E+00 -1.422256957E+02 -2.843333363E+02  3.179523991E+02  6.607249480E-06  0.00000E+00  9.000E+00
#rwgt            1           1   2.9802990167255454E-002           1      284315           0
</event>
<event>
      5   9999  3.19816E-02  1.85892E+01 -1.00000E+00  1.69034E-01
      21    -1     0     0   502   501  0.000000000E+00  0.000000000E+00  1.033806901E+02  1.033806901E+02  0.000000000E+00  0.00000E+00  9.000E+00
      21    -1     0     0   512   502  0.000000000E+00  0.000000000E+00 -5.040037028E+02  5.040037028E+02  0.000000000E+00  0.00000E+00  9.000E+00
      25     1     1     2     0     0 -6.616831097E+01 -1.071215518E+02 -2.771090712E+01  1.795721766E+02  1.250000000E+02  0.00000E+00  9.000E+00
      25     1     1     2     0     0  6.314198034E+01  1.254627825E+02 -3.563641121E+02  4.029245585E+02  1.250000000E+02  0.00000E+00  9.000E+00
      21     1     1     2   512   501  3.026330629E+00 -1.834123067E+01 -1.654799343E+01  2.488765770E+01  3.371747881E-07  0.00000E+00  9.000E+00
#rwgt            1           1   2.6673423627566986E-002           1      284397           0
</event>
<event>
      5   9999  3.19816E-02  6.10961E+01 -1.00000E+00  1.34285E-01
      21    -1     0     0   502   501  0.000000000E+00  0.000000000E+00  2.527494888E+02  2.527494888E+02  0.000000000E+00  0.00000E+00  9.000E+00
      21    -1     0     0   501   511  0.000000000E+00  0.000000000E+00 -1.004245589E+03  1.004245589E+03  0.000000000E+00  0.00000E+00  9.000E+00
      25     1     1     2     0     0  2.556576767E+02  3.170327166E+02 -1.519599328E+02  4.523134005E+02  1.250000000E+02  0.00000E+00  9.000E+00
      25     1     1     2     0     0 -3.166070032E+02 -3.212655341E+02 -4.799605243E+02  6.704018517E+02  1.250000000E+02  0.00000E+00  9.000E+00
      21     1     1     2   502   511  6.094932644E+01  4.232817448E+00 -1.195756435E+02  1.342798260E+02  1.907348633E-06  0.00000E+00  9.000E+00
#rwgt            1           1   2.8753605898044259E-002           1      284521           0
</event>
<event>
      5   9999  3.19816E-02  9.41921E+01 -1.00000E+00  1.25008E-01
      21    -1     0     0   502   501  0.000000000E+00  0.000000000E+00  6.627924663E+02  6.627924663E+02  0.000000000E+00  0.00000E+00  9.000E+00
      21    -1     0     0   512   502  0.000000000E+00  0.000000000E+00 -1.407807552E+03  1.407807552E+03  0.000000000E+00  0.00000E+00  9.000E+00
      25     1     1     2     0     0 -2.354635135E+02  8.777003588E+02 -4.288439499E+02  1.012587339E+03  1.250000000E+02  0.00000E+00  9.000E+00
      25     1     1     2     0     0  1.413588827E+02 -8.817589687E+02 -2.305723186E+02  9.307361639E+02  1.250000000E+02  0.00000E+00  9.000E+00
      21     1     1     2   512   501  9.410463085E+01  4.058609881E+00 -8.559881773E+01  1.272765157E+02  1.348699152E-06  0.00000E+00  9.000E+00
#rwgt            1           1   2.5880065590716525E-002           1      284606           0
</event>
<event>
      5   9999  3.19816E-02  1.12332E+02 -1.00000E+00  1.21598E-01
      21    -1     0     0   511   501  0.000000000E+00  0.000000000E+00  1.224368900E+03  1.224368900E+03  0.000000000E+00  0.00000E+00  9.000E+00
      21    -1     0     0   501   502  0.000000000E+00  0.000000000E+00 -3.602541014E+02  3.602541014E+02  0.000000000E+00  0.00000E+00  9.000E+00
      25     1     1     2     0     0  7.421105528E+01 -1.015313385E+02 -2.869930487E+02  3.373513057E+02  1.250000000E+02  0.00000E+00  9.000E+00
      25     1     1     2     0     0 -1.847638820E+02  8.161519066E+01  2.724366541E+02  3.614491139E+02  1.250000000E+02  0.00000E+00  9.000E+00
      21     1     1     2   511   502  1.105528268E+02  1.991614788E+01  8.786711928E+02  8.858225813E+02  0.000000000E+00  0.00000E+00  9.000E+00
#rwgt            2          11   2.3910808567989268E-003           1      284686           0
</event>
<event>
      5   9999  3.19816E-02  3.94250E+01 -1.00000E+00  1.45231E-01
      21    -1     0     0   502   512  0.000000000E+00  0.000000000E+00  3.195359396E+02  3.195359396E+02  0.000000000E+00  0.00000E+00  9.000E+00
      21    -1     0     0   501   502  0.000000000E+00  0.000000000E+00 -1.330721908E+03  1.330721908E+03  0.000000000E+00  0.00000E+00  9.000E+00
      25     1     1     2     0     0  4.774584881E+02 -1.783018648E+02 -9.075089719E+02  1.048310878E+03  1.250000000E+02  0.00000E+00  9.000E+00
      25     1     1     2     0     0 -5.137613217E+02  1.629255293E+02 -9.242833653E+01  5.609486796E+02  1.250000000E+02  0.00000E+00  9.000E+00
      21     1     1     2   501   512  3.630283364E+01  1.537633556E+01 -1.124865977E+01  4.099828987E+01  8.429369702E-07  0.00000E+00  9.000E+00
#rwgt            1           1   3.0364068045859907E-002           1      284721           0
</event>
<event>
      5   9999  3.19816E-02  3.44689E+02 -1.00000E+00  1.03669E-01
       2    -1     0     0   502     0  0.000000000E+00  0.000000000E+00  3.103742009E+03  3.103742009E+03  0.000000000E+00  0.00000E+00  9.000E+00
      21    -1     0     0   501   502  0.000000000E+00  0.000000000E+00 -4.858269396E+02  4.858269396E+02  0.000000000E+00  0.00000E+00  9.000E+00
      25     1     1     2     0     0 -2.471479960E+02  4.301813904E+02 -6.585511846E+01  5.158488705E+02  1.250000000E+02  0.00000E+00  9.000E+00
      25     1     1     2     0     0  3.158295547E+02 -9.240462658E+01 -1.567244747E+01  3.523599697E+02  1.250000000E+02  0.00000E+00  9.000E+00
       2     1     1     2   501     0 -6.868155863E+01 -3.377767638E+02  2.699442635E+03  2.721360108E+03  0.000000000E+00  0.00000E+00  9.000E+00
#rwgt            1           1   2.8116723554243283E-002           1      284891           0
</event>
<event>
      5   9999  3.19816E-02  6.16883E+01 -1.00000E+00  1.34063E-01
      21    -1     0     0   511   501  0.000000000E+00  0.000000000E+00  2.380238709E+02  2.380238709E+02  0.000000000E+00  0.00000E+00  9.000E+00
      21    -1     0     0   501   502  0.000000000E+00  0.000000000E+00 -1.430981497E+03  1.430981497E+03  0.000000000E+00  0.00000E+00  9.000E+00
      25     1     1     2     0     0 -4.446433717E+01 -3.350994879E+00 -9.843949938E+01  1.652381357E+02  1.250000000E+02  0.00000E+00  9.000E+00
      25     1     1     2     0     0  4.469616331E+01 -5.833685481E+01 -1.290338296E+03  1.298460185E+03  1.250000000E+02  0.00000E+00  9.000E+00
      21     1     1     2   511   502 -2.318261440E-01  6.168784968E+01  1.958201694E+02  2.053070463E+02  0.000000000E+00  0.00000E+00  9.000E+00
#rwgt            1           1   3.8817300482759186E-002           1      284925           0
</event>
<event>
      5   9999  3.19816E-02  1.68141E+02 -1.00000E+00  1.14462E-01
       2    -1     0     0   502     0  0.000000000E+00  0.000000000E+00  1.551522190E+03  1.551522190E+03  0.000000000E+00  0.00000E+00  9.000E+00
      21    -1     0     0   501   502  0.000000000E+00  0.000000000E+00 -1.178257822E+02  1.178257822E+02  0.000000000E+00  0.00000E+00  9.000E+00
      25     1     1     2     0     0 -1.342513742E+02  8.031899375E+01  7.631100496E+02  7.889464621E+02  1.250000000E+02  0.00000E+00  9.000E+00
      25     1     1     2     0     0  1.898699504E+02 -2.389945228E+02  2.123317404E+02  3.922738176E+02  1.250000000E+02  0.00000E+00  9.000E+00
       2     1     1     2   501     0 -5.561857621E+01  1.586755290E+02  4.582546177E+02  4.881276925E+02  7.629394531E-06  0.00000E+00  9.000E+00
#rwgt            1           1   2.6355438916189720E-002           1      285007           0
</event>
<event>
      5   9999  3.19816E-02  1.18652E+02 -1.00000E+00  1.20577E-01
      21    -1     0     0   502   501  0.000000000E+00  0.000000000E+00  3.793758684E+03  3.793758684E+03  0.000000000E+00  0.00000E+00  9.000E+00
      21    -1     0     0   511   502  0.000000000E+00  0.000000000E+00 -7.943795325E+01  7.943795325E+01  0.000000000E+00  0.00000E+00  9.000E+00
      25     1     1     2     0     0 -6.113173145E+01 -2.284097622E+02  2.823395895E+03  2.836035523E+03  1.250000000E+02  0.00000E+00  9.000E+00
      25     1     1     2     0     0  7.533623190E+01  1.106110697E+02  8.997353166E+02  9.181824418E+02  1.250000000E+02  0.00000E+00  9.000E+00
      21     1     1     2   511   501 -1.420450045E+01  1.177986926E+02 -8.810481239E+00  1.189786720E+02  2.122461058E-06  0.00000E+00  9.000E+00
#rwgt            1           1   9.3945849541368261E-003           1      285054           0
</event>
<event>
      5   9999  3.19816E-02  4.30229E+01 -1.00000E+00  1.42905E-01
      21    -1     0     0   502   512  0.000000000E+00  0.000000000E+00  6.269765864E+02  6.269765864E+02  0.000000000E+00  0.00000E+00  9.000E+00
      21    -1     0     0   501   502  0.000000000E+00  0.000000000E+00 -3.499472177E+02  3.499472177E+02  0.000000000E+00  0.00000E+00  9.000E+00
      25     1     1     2     0     0 -3.146311339E+02  1.873457202E+02 -8.105018612E+01  3.953293589E+02  1.250000000E+02  0.00000E+00  9.000E+00
      25     1     1     2     0     0  3.436165899E+02 -1.555524975E+02  2.610042547E+02  4.754126222E+02  1.250000000E+02  0.00000E+00  9.000E+00
      21     1     1     2   501   512 -2.898545596E+01 -3.179322273E+01  9.707530013E+01  1.061818231E+02  1.348699152E-06  0.00000E+00  9.000E+00
#rwgt            1           1   2.5060440375186916E-002           1      285095           0
</event>
<event>
      5   9999  3.19816E-02  8.77134E+00 -1.00000E+00  2.02577E-01
      21    -1     0     0   502   501  0.000000000E+00  0.000000000E+00  8.621679047E+01  8.621679047E+01  0.000000000E+00  0.00000E+00  9.000E+00
      21    -1     0     0   501   511  0.000000000E+00  0.000000000E+00 -1.082329288E+03  1.082329288E+03  0.000000000E+00  0.00000E+00  9.000E+00
      25     1     1     2     0     0 -4.465391364E+01 -1.444669518E+02 -1.727840746E+02  2.614268704E+02  1.250000000E+02  0.00000E+00  9.000E+00
      25     1     1     2     0     0  5.241778084E+01  1.485484717E+02 -1.996241671E+02  2.833532782E+02  1.250000000E+02  0.00000E+00  9.000E+00
      21     1     1     2   502   511 -7.763867204E+00 -4.081519938E+00 -6.237042554E+02  6.237659294E+02  1.321449896E-05  0.00000E+00  9.000E+00
#rwgt            1           1   3.1764671035834385E-002           1      285229           0
</event>
<event>
      5   9999  3.19816E-02  1.51024E+02 -1.00000E+00  1.16277E-01
      21    -1     0     0   512   501  0.000000000E+00  0.000000000E+00  8.151978939E+02  8.151978939E+02  0.000000000E+00  0.00000E+00  9.000E+00
      21    -1     0     0   501   502  0.000000000E+00  0.000000000E+00 -1.666151321E+02  1.666151321E+02  0.000000000E+00  0.00000E+00  9.000E+00
      25     1     1     2     0     0  1.234867566E+02 -1.081906232E+02  1.758937080E+02  2.711416355E+02  1.250000000E+02  0.00000E+00  9.000E+00
      25     1     1     2     0     0 -2.723268627E+02  8.260170814E+01  1.313897026E+02  3.374510576E+02  1.250000000E+02  0.00000E+00  9.000E+00
      21     1     1     2   512   502  1.488401061E+02  2.558891503E+01  3.412993512E+02  3.732203329E+02  5.394796609E-06  0.00000E+00  9.000E+00
#rwgt            1           1   2.4180823006689337E-002           1      285419           0
</event>
<event>
      5   9999  3.19816E-02  4.03665E+01 -1.00000E+00  1.44595E-01
      21    -1     0     0   502   501  0.000000000E+00  0.000000000E+00  2.665565121E+03  2.665565121E+03  0.000000000E+00  0.00000E+00  9.000E+00
      21    -1     0     0   511   502  0.000000000E+00  0.000000000E+00 -7.812652518E+01  7.812652518E+01  0.000000000E+00  0.00000E+00  9.000E+00
      25     1     1     2     0     0 -3.664086902E+01 -3.259047170E+02  1.974660636E+03  2.005608652E+03  1.250000000E+02  0.00000E+00  9.000E+00
      25     1     1     2     0     0  7.597158569E+01  3.168188740E+02  6.027720649E+02  6.964948262E+02  1.250000000E+02  0.00000E+00  9.000E+00
      21     1     1     2   511   501 -3.933071667E+01  9.085842911E+00  1.000589558E+01  4.158816853E+01  1.011524364E-06  0.00000E+00  9.000E+00
#rwgt            1           1   6.1120991680760350E-002           1      285472           0
</event>
<event>
      5   9999  3.19816E-02  3.46525E+01 -1.00000E+00  1.48814E-01
      21    -1     0     0   502   501  0.000000000E+00  0.000000000E+00  8.786494134E+02  8.786494134E+02  0.000000000E+00  0.00000E+00  9.000E+00
      21    -1     0     0   512   502  0.000000000E+00  0.000000000E+00 -4.332174032E+02  4.332174032E+02  0.000000000E+00  0.00000E+00  9.000E+00
      25     1     1     2     0     0 -1.615309876E+02  2.711758958E+02 -2.764363695E+02  4.378021160E+02  1.250000000E+02  0.00000E+00  9.000E+00
      25     1     1     2     0     0  1.948126657E+02 -2.808261154E+02  7.472187397E+02  8.311294284E+02  1.250000000E+02  0.00000E+00  9.000E+00
      21     1     1     2   512   501 -3.328167813E+01  9.650219594E+00 -2.535036009E+01  4.293527214E+01  0.000000000E+00  0.00000E+00  9.000E+00
#rwgt            1           1   3.1371908796198104E-002           1      285631           0
</event>
<event>
      5   9999  3.19816E-02  1.38158E+02 -1.00000E+00  1.17827E-01
      21    -1     0     0   502   501  0.000000000E+00  0.000000000E+00  3.682784866E+02  3.682784866E+02  0.000000000E+00  0.00000E+00  9.000E+00
       2    -1     0     0   501     0  0.000000000E+00  0.000000000E+00 -2.304623082E+03  2.304623082E+03  0.000000000E+00  0.00000E+00  9.000E+00
      25     1     1     2     0     0  6.671945348E+02 -1.078656162E+02 -4.482381810E+02  8.205644431E+02  1.250000000E+02  0.00000E+00  9.000E+00
      25     1     1     2     0     0 -5.293340771E+02  1.169288979E+02 -2.558025197E+02  6.123127154E+02  1.250000000E+02  0.00000E+00  9.000E+00
       2     1     1     2   502     0 -1.378604577E+02 -9.063281760E+00 -1.232303895E+03  1.240024411E+03  2.157918644E-05  0.00000E+00  9.000E+00
#rwgt            1           1   2.8430099971852130E-002           1      285770           0
</event>
<event>
      5   9999  3.19816E-02  2.04239E+01 -1.00000E+00  1.65621E-01
      21    -1     0     0   511   501  0.000000000E+00  0.000000000E+00  2.370554461E+02  2.370554461E+02  0.000000000E+00  0.00000E+00  9.000E+00
      21    -1     0     0   501   502  0.000000000E+00  0.000000000E+00 -5.685426147E+02  5.685426147E+02  0.000000000E+00  0.00000E+00  9.000E+00
      25     1     1     2     0     0 -8.201933754E+00  3.020347978E+02 -3.091771330E+02  4.500086559E+02  1.250000000E+02  0.00000E+00  9.000E+00
      25     1     1     2     0     0 -1.175470907E+01 -2.976908459E+02 -4.368716690E+01  3.260238971E+02  1.250000000E+02  0.00000E+00  9.000E+00
      21     1     1     2   511   502  1.995664282E+01 -4.343951895E+00  2.137713133E+01  2.956550786E+01  3.371747881E-07  0.00000E+00  9.000E+00
#rwgt            1           1   2.8122115270075673E-002           1      285845           0
</event>
<event>
      5   9999  3.19816E-02  2.38504E+01 -1.00000E+00  1.60298E-01
      21    -1     0     0   502   501  0.000000000E+00  0.000000000E+00  7.417251938E+02  7.417251938E+02  0.000000000E+00  0.00000E+00  9.000E+00
      21    -1     0     0   512   502  0.000000000E+00  0.000000000E+00 -3.342273262E+02  3.342273262E+02  0.000000000E+00  0.00000E+00  9.000E+00
      25     1     1     2     0     0  2.579298756E+02  2.688687324E+01  4.113721545E+02  5.020983710E+02  1.250000000E+02  0.00000E+00  9.000E+00
      25     1     1     2     0     0 -2.796975407E+02 -1.713948160E+01  2.015091808E+02  3.670904875E+02  1.250000000E+02  0.00000E+00  9.000E+00
      21     1     1     2   512   501  2.176766511E+01 -9.747391643E+00 -2.053834677E+02  2.067636614E+02  5.394796609E-06  0.00000E+00  9.000E+00
#rwgt            1           1   2.7863981983860336E-002           1      285979           0
</event>
<event>
      5   9999  3.19816E-02  3.97068E+01 -1.00000E+00  1.45039E-01
      21    -1     0     0   502   501  0.000000000E+00  0.000000000E+00  1.745778368E+02  1.745778368E+02  0.000000000E+00  0.00000E+00  9.000E+00
       1    -1     0     0   501     0  0.000000000E+00  0.000000000E+00 -1.003558038E+03  1.003558038E+03  0.000000000E+00  0.00000E+00  9.000E+00
      25     1     1     2     0     0  1.130997453E+02  7.649574138E+01  5.855025401E+01  1.941553066E+02  1.250000000E+02  0.00000E+00  9.000E+00
      25     1     1     2     0     0 -1.117473621E+02 -1.161795448E+02 -1.705177490E+02  2.658692579E+02  1.250000000E+02  0.00000E+00  9.000E+00
       1     1     1     2   502     0 -1.352383219E+00  3.968380347E+01 -7.170127064E+02  7.181113105E+02  7.629394531E-06  0.00000E+00  9.000E+00
#rwgt            1           1   2.7218372581669797E-002           1      286167           0
</event>
<event>
      5   9999  3.19816E-02  5.93897E+01 -1.00000E+00  1.34941E-01
      21    -1     0     0   502   501  0.000000000E+00  0.000000000E+00  5.671563506E+02  5.671563506E+02  0.000000000E+00  0.00000E+00  9.000E+00
      21    -1     0     0   511   502  0.000000000E+00  0.000000000E+00 -7.231412530E+02  7.231412530E+02  0.000000000E+00  0.00000E+00  9.000E+00
      25     1     1     2     0     0 -1.567532821E+02 -4.172092958E+02  1.127434596E+02  4.764150245E+02  1.250000000E+02  0.00000E+00  9.000E+00
      25     1     1     2     0     0  2.100752552E+02  4.433608032E+02  3.204769976E+01  5.072991915E+02  1.250000000E+02  0.00000E+00  9.000E+00
      21     1     1     2   511   501 -5.332197313E+01 -2.615150745E+01 -3.007760618E+02  3.065833875E+02  3.814697266E-06  0.00000E+00  9.000E+00
#rwgt            1           1   2.6921520292649780E-002           1      286240           0
</event>
<event>
      5   9999  3.19816E-02  4.29999E+01 -1.00000E+00  1.42919E-01
      21    -1     0     0   502   501  0.000000000E+00  0.000000000E+00  1.360304843E+03  1.360304843E+03  0.000000000E+00  0.00000E+00  9.000E+00
      21    -1     0     0   512   502  0.000000000E+00  0.000000000E+00 -5.644184450E+02  5.644184450E+02  0.000000000E+00  0.00000E+00  9.000E+00
      25     1     1     2     0     0  7.431214174E+01 -7.778770527E+02  7.626683695E+02  1.099046426E+03  1.250000000E+02  0.00000E+00  9.000E+00
      25     1     1     2     0     0 -1.056073933E+02  7.483881632E+02  6.977063767E+01  7.692403436E+02  1.250000000E+02  0.00000E+00  9.000E+00
      21     1     1     2   512   501  3.129525155E+01  2.948888952E+01 -3.655260948E+01  5.643651862E+01  8.259061849E-07  0.00000E+00  9.000E+00
#rwgt            1           1   2.8203145120166920E-002           1      286339           0
</event>
<event>
      5   9999  3.19816E-02  1.71577E+02 -1.00000E+00  1.14126E-01
      21    -1     0     0   502   511  0.000000000E+00  0.000000000E+00  5.619740022E+02  5.619740022E+02  0.000000000E+00  0.00000E+00  9.000E+00
      21    -1     0     0   501   502  0.000000000E+00  0.000000000E+00 -2.214069114E+03  2.214069114E+03  0.000000000E+00  0.00000E+00  9.000E+00
      25     1     1     2     0     0  1.528945412E+02 -1.788709625E+02  9.753945884E+01  2.837437365E+02  1.250000000E+02  0.00000E+00  9.000E+00
      25     1     1     2     0     0 -2.328648137E+01  2.913006788E+02 -2.088460284E+03  2.112507918E+03  1.250000000E+02  0.00000E+00  9.000E+00
      21     1     1     2   501   511 -1.296080598E+02 -1.124297163E+02  3.388257134E+02  3.797914616E+02  9.344061824E-06  0.00000E+00  9.000E+00
#rwgt            1           1   2.5410438624286616E-002           1      286501           0
</event>
<event>
      5   9999  3.19816E-02  2.30146E+02 -1.00000E+00  1.09473E-01
      21    -1     0     0   502   501  0.000000000E+00  0.000000000E+00  1.056888474E+03  1.056888474E+03  0.000000000E+00  0.00000E+00  9.000E+00
      21    -1     0     0   501   512  0.000000000E+00  0.000000000E+00 -1.688892387E+03  1.688892387E+03  0.000000000E+00  0.00000E+00  9.000E+00
      25     1     1     2     0     0  1.099040573E+03  7.065069231E+02 -3.735237038E+02  1.364619790E+03  1.250000000E+02  0.00000E+00  9.000E+00
      25     1     1     2     0     0 -9.777585382E+02 -5.109111516E+02 -1.306998801E+02  1.117921921E+03  1.250000000E+02  0.00000E+00  9.000E+00
      21     1     1     2   502   512 -1.212820345E+02 -1.955957715E+02 -1.277803290E+02  2.632391502E+02  3.568322551E-06  0.00000E+00  9.000E+00
#rwgt            1           1   5.2196309089292375E-002           1      286591           0
</event>
<event>
      5   9999  3.19816E-02  8.64560E+01 -1.00000E+00  1.26739E-01
      21    -1     0     0   502   511  0.000000000E+00  0.000000000E+00  4.473688377E+02  4.473688377E+02  0.000000000E+00  0.00000E+00  9.000E+00
      21    -1     0     0   501   502  0.000000000E+00  0.000000000E+00 -7.532693540E+02  7.532693540E+02  0.000000000E+00  0.00000E+00  9.000E+00
      25     1     1     2     0     0 -3.691371108E+02 -2.157687472E+02 -2.713008149E+01  4.462951940E+02  1.250000000E+02  0.00000E+00  9.000E+00
      25     1     1     2     0     0  4.555336095E+02  2.125624667E+02 -3.638751692E+02  6.330274957E+02  1.250000000E+02  0.00000E+00  9.000E+00
      21     1     1     2   501   511 -8.639649865E+01  3.206280447E+00  8.510473438E+01  1.213155020E+02  1.907348633E-06  0.00000E+00  9.000E+00
#rwgt            1           1   2.8767780167977885E-002           1      286709           0
</event>
<event>
      5   9999  3.19816E-02  4.00705E+01 -1.00000E+00  1.44793E-01
      21    -1     0     0   502   501  0.000000000E+00  0.000000000E+00  5.797629473E+02  5.797629473E+02  0.000000000E+00  0.00000E+00  9.000E+00
       2    -1     0     0   501     0  0.000000000E+00  0.000000000E+00 -8.401427588E+02  8.401427588E+02  0.000000000E+00  0.00000E+00  9.000E+00
      25     1     1     2     0     0 -4.593666656E+02 -1.056420922E+02  3.901760040E+01  4.892089106E+02  1.250000000E+02  0.00000E+00  9.000E+00
      25     1     1     2     0     0  4.228294546E+02  1.220944549E+02  1.485016523E+02  4.810088818E+02  1.250000000E+02  0.00000E+00  9.000E+00
       2     1     1     2   502     0  3.653721095E+01 -1.645236276E+01 -4.478990642E+02  4.496879137E+02  5.394796609E-06  0.00000E+00  9.000E+00
#rwgt            1           1   2.3864576820339569E-002           1      286858           0
</event>
<event>
      5   9999  3.19816E-02  5.90863E+01 -1.00000E+00  1.35060E-01
      21    -1     0     0   502   511  0.000000000E+00  0.000000000E+00  1.778151173E+03  1.778151173E+03  0.000000000E+00  0.00000E+00  9.000E+00
      21    -1     0     0   501   502  0.000000000E+00  0.000000000E+00 -1.142159016E+03  1.142159016E+03  0.000000000E+00  0.00000E+00  9.000E+00
      25     1     1     2     0     0 -1.156982433E+03 -7.696144190E+02  6.514083446E+01  1.396704347E+03  1.250000000E+02  0.00000E+00  9.000E+00
      25     1     1     2     0     0  1.141554075E+03  7.125779598E+02  5.296553462E+02  1.451575985E+03  1.250000000E+02  0.00000E+00  9.000E+00
      21     1     1     2   501   511  1.542835793E+01  5.703645918E+01  4.119597623E+01  7.202985744E+01  8.259061849E-07  0.00000E+00  9.000E+00
#rwgt            1           1   5.0558060290513629E-002           1      287001           0
</event>
<event>
      5   9999  3.19816E-02  4.54884E+01 -1.00000E+00  1.41460E-01
      21    -1     0     0   502   512  0.000000000E+00  0.000000000E+00  2.387269113E+03  2.387269113E+03  0.000000000E+00  0.00000E+00  9.000E+00
      21    -1     0     0   501   502  0.000000000E+00  0.000000000E+00 -3.252530914E+02  3.252530914E+02  0.000000000E+00  0.00000E+00  9.000E+00
      25     1     1     2     0     0 -4.020459135E+02  7.097961243E+02  1.000820389E+03  1.297196171E+03  1.250000000E+02  0.00000E+00  9.000E+00
      25     1     1     2     0     0  3.597468156E+02 -7.265286984E+02  7.849355891E+02  1.135346027E+03  1.250000000E+02  0.00000E+00  9.000E+00
      21     1     1     2   501   512  4.229909793E+01  1.673257413E+01  2.762600433E+02  2.799800069E+02  5.394796609E-06  0.00000E+00  9.000E+00
#rwgt            1           1   2.9113248032313056E-002           1      287190           0
</event>
<event>
      5   9999  3.19816E-02  2.36031E+01 -1.00000E+00  1.60644E-01
      21    -1     0     0   502   511  0.000000000E+00  0.000000000E+00  1.755365996E+03  1.755365996E+03  0.000000000E+00  0.00000E+00  9.000E+00
      21    -1     0     0   501   502  0.000000000E+00  0.000000000E+00 -4.225875443E+01  4.225875443E+01  0.000000000E+00  0.00000E+00  9.000E+00
      25     1     1     2     0     0 -1.550323275E+02  1.663398111E+02  7.886498743E+02  8.302394712E+02  1.250000000E+02  0.00000E+00  9.000E+00
      25     1     1     2     0     0  1.406434654E+02 -1.476297226E+02  6.621657752E+02  7.040338296E+02  1.250000000E+02  0.00000E+00  9.000E+00
      21     1     1     2   501   511  1.438886205E+01 -1.871008845E+01  2.622915925E+02  2.633514501E+02  0.000000000E+00  0.00000E+00  9.000E+00
#rwgt            1           1   3.4226153979500511E-002           1      287356           0
</event>
<event>
      5   9999  3.19816E-02  1.98095E+01 -1.00000E+00  1.66713E-01
      21    -1     0     0   502   512  0.000000000E+00  0.000000000E+00  7.149693655E+02  7.149693655E+02  0.000000000E+00  0.00000E+00  9.000E+00
      21    -1     0     0   501   502  0.000000000E+00  0.000000000E+00 -6.603527738E+01  6.603527738E+01  0.000000000E+00  0.00000E+00  9.000E+00
      25     1     1     2     0     0 -9.411884039E+00 -1.119303845E+02  4.604957649E+02  4.902023501E+02  1.250000000E+02  0.00000E+00  9.000E+00
      25     1     1     2     0     0  2.983761195E-02  9.448353672E+01  7.156232727E+01  1.722594157E+02  1.250000000E+02  0.00000E+00  9.000E+00
      21     1     1     2   501   512  9.382046427E+00  1.744684774E+01  1.168759959E+02  1.185428771E+02  1.348699152E-06  0.00000E+00  9.000E+00
#rwgt            1           1   2.5072965833652434E-002           1      287450           0
</event>
<event>
      5   9999  3.19816E-02  8.54389E+01 -1.00000E+00  1.26982E-01
      21    -1     0     0   502   501  0.000000000E+00  0.000000000E+00  2.455942031E+03  2.455942031E+03  0.000000000E+00  0.00000E+00  9.000E+00
       1    -1     0     0   501     0  0.000000000E+00  0.000000000E+00 -7.086262822E+02  7.086262822E+02  0.000000000E+00  0.00000E+00  9.000E+00
      25     1     1     2     0     0 -4.486644065E+02  1.788988604E+02  1.520147772E+03  1.599930874E+03  1.250000000E+02  0.00000E+00  9.000E+00
      25     1     1     2     0     0  4.331290071E+02 -2.629135156E+02  8.165617321E+02  9.690832347E+02  1.250000000E+02  0.00000E+00  9.000E+00
       1     1     1     2   502     0  1.553539942E+01  8.401465526E+01 -5.893937558E+02  5.955542043E+02  1.321449896E-05  0.00000E+00  9.000E+00
#rwgt            1           1   2.6159307226815375E-002           1      287576           0
</event>
<event>
      5   9999  3.19816E-02  4.43012E+01 -1.00000E+00  1.42142E-01
      21    -1     0     0   502   511  0.000000000E+00  0.000000000E+00  3.865048204E+02  3.865048204E+02  0.000000000E+00  0.00000E+00  9.000E+00
      21    -1     0     0   501   502  0.000000000E+00  0.000000000E+00 -4.130036063E+02  4.130036063E+02  0.000000000E+00  0.00000E+00  9.000E+00
      25     1     1     2     0     0 -4.791788597E+01  3.248793055E+02 -1.530610772E+02  3.832693313E+02  1.250000000E+02  0.00000E+00  9.000E+00
      25     1     1     2     0     0  5.510024311E+01 -2.811642351E+02  3.503003125E+01  3.145496256E+02  1.250000000E+02  0.00000E+00  9.000E+00
      21     1     1     2   501   511 -7.182357147E+00 -4.371507040E+01  9.153226013E+01  1.016894699E+02  1.348699152E-06  0.00000E+00  9.000E+00
#rwgt            1           1   2.8041190476577511E-002           1      287645           0
</event>
<event>
      5   9999  3.19816E-02  1.10187E+02 -1.00000E+00  1.21962E-01
      21    -1     0     0   502   512  0.000000000E+00  0.000000000E+00  2.357429720E+02  2.357429720E+02  0.000000000E+00  0.00000E+00  9.000E+00
      21    -1     0     0   501   502  0.000000000E+00  0.000000000E+00 -2.829586306E+02  2.829586306E+02  0.000000000E+00  0.00000E+00  9.000E+00
      25     1     1     2     0     0 -7.914715110E+01 -9.564870869E+01  6.613711050E+01  1.881809352E+02  1.250000000E+02  0.00000E+00  9.000E+00
      25     1     1     2     0     0  1.441493557E+02  6.677335309E+00 -1.098826537E+02  2.202789621E+02  1.250000000E+02  0.00000E+00  9.000E+00
      21     1     1     2   501   512 -6.500220460E+01  8.897137339E+01 -3.470115444E+00  1.102417053E+02  1.550293780E-06  0.00000E+00  9.000E+00
#rwgt            1           1   2.6459015689644465E-002           1      287774           0
</event>
<event>
      5   9999  3.19816E-02  9.61235E+01 -1.00000E+00  1.24605E-01
      21    -1     0     0   502   501  0.000000000E+00  0.000000000E+00  1.288683243E+02  1.288683243E+02  0.000000000E+00  0.00000E+00  9.000E+00
      21    -1     0     0   501   511  0.000000000E+00  0.000000000E+00 -2.442492663E+03  2.442492663E+03  0.000000000E+00  0.00000E+00  9.000E+00
      25     1     1     2     0     0 -4.443334477E+02  4.537598630E+01 -1.412828023E+03  1.487010160E+03  1.250000000E+02  0.00000E+00  9.000E+00
      25     1     1     2     0     0  4.002301499E+02  4.003260515E+01 -4.228585594E+02  5.968426456E+02  1.250000000E+02  0.00000E+00  9.000E+00
      21     1     1     2   502   511  4.410329777E+01 -8.540859145E+01 -4.779377558E+02  4.875081813E+02  5.394796609E-06  0.00000E+00  9.000E+00
#rwgt            1           1   2.6730287348603415E-002           1      287825           0
</event>
<event>
      5   9999  3.19816E-02  4.01174E+01 -1.00000E+00  1.44761E-01
      21    -1     0     0   502   512  0.000000000E+00  0.000000000E+00  9.879660001E+02  9.879660001E+02  0.000000000E+00  0.00000E+00  9.000E+00
      21    -1     0     0   501   502  0.000000000E+00  0.000000000E+00 -2.140315166E+02  2.140315166E+02  0.000000000E+00  0.00000E+00  9.000E+00
      25     1     1     2     0     0 -1.928314599E+02  1.094538664E+01 -1.250460341E+02  2.618497357E+02  1.250000000E+02  0.00000E+00  9.000E+00
      25     1     1     2     0     0  1.871686106E+02 -5.066107964E+01  6.959474557E+02  7.331892626E+02  1.250000000E+02  0.00000E+00  9.000E+00
      21     1     1     2   501   512  5.662849293E+00  3.971569300E+01  2.030330619E+02  2.069585184E+02  2.697398305E-06  0.00000E+00  9.000E+00
#rwgt            1           1   1.6696293472042864E-002           1      287907           0
</event>
<event>
      5   9999  3.19816E-02  1.26753E+02 -1.00000E+00  1.19368E-01
      21    -1     0     0   502   511  0.000000000E+00  0.000000000E+00  8.843761241E+02  8.843761241E+02  0.000000000E+00  0.00000E+00  9.000E+00
      21    -1     0     0   501   502  0.000000000E+00  0.000000000E+00 -1.221184046E+03  1.221184046E+03  0.000000000E+00  0.00000E+00  9.000E+00
      25     1     1     2     0     0  8.125828471E+02  4.278862226E+02 -5.745024408E+02  1.090438241E+03  1.250000000E+02  0.00000E+00  9.000E+00
      25     1     1     2     0     0 -6.870348754E+02 -4.453214277E+02  1.105137627E+02  8.355635139E+02  1.250000000E+02  0.00000E+00  9.000E+00
      21     1     1     2   501   511 -1.255479716E+02  1.743520509E+01  1.271807565E+02  1.795584149E+02  1.348699152E-06  0.00000E+00  9.000E+00
#rwgt            1           1   2.6434173330754394E-002           1      288058           0
</event>
<event>
      5   9999  3.19816E-02  9.61234E+01 -1.00000E+00  1.24605E-01
      21    -1     0     0   502   512  0.000000000E+00  0.000000000E+00  6.080828441E+02  6.080828441E+02  0.000000000E+00  0.00000E+00  9.000E+00
      21    -1     0     0   501   502  0.000000000E+00  0.000000000E+00 -7.359735909E+02  7.359735909E+02  0.000000000E+00  0.00000E+00  9.000E+00
      25     1     1     2     0     0  6.994348044E+01 -2.242865637E+02 -4.119150091E+01  2.692922072E+02  1.250000000E+02  0.00000E+00  9.000E+00
      25     1     1     2     0     0 -6.909892781E+01  3.204062791E+02 -5.220298935E+02  6.289475775E+02  1.250000000E+02  0.00000E+00  9.000E+00
      21     1     1     2   501   512 -8.445526344E-01 -9.611971542E+01  4.353306476E+02  4.458166504E+02  7.629394531E-06  0.00000E+00  9.000E+00
#rwgt            1           1   1.4255724221046125E-002           1      288140           0
</event>
<event>
      5   9999  3.19816E-02  2.35695E+01 -1.00000E+00  1.60692E-01
      21    -1     0     0   502   501  0.000000000E+00  0.000000000E+00  2.334173874E+02  2.334173874E+02  0.000000000E+00  0.00000E+00  9.000E+00
      21    -1     0     0   511   502  0.000000000E+00  0.000000000E+00 -2.644075312E+02  2.644075312E+02  0.000000000E+00  0.00000E+00  9.000E+00
      25     1     1     2     0     0 -5.724092764E+01  1.580175869E+02 -1.181286324E+02  2.404692400E+02  1.250000000E+02  0.00000E+00  9.000E+00
      25     1     1     2     0     0  6.650573524E+01 -1.363454102E+02  1.093798138E+02  2.249489439E+02  1.250000000E+02  0.00000E+00  9.000E+00
      21     1     1     2   511   501 -9.264807607E+00 -2.167217676E+01 -2.224132514E+01  3.240673463E+01  3.371747881E-07  0.00000E+00  9.000E+00
#rwgt            1           1   2.6383893290717338E-002           1      288176           0
</event>
<event>
      5   9999  3.19816E-02  1.45683E+01 -1.00000E+00  1.78587E-01
      21    -1     0     0   502   501  0.000000000E+00  0.000000000E+00  5.265453897E+01  5.265453897E+01  0.000000000E+00  0.00000E+00  9.000E+00
      21    -1     0     0   512   502  0.000000000E+00  0.000000000E+00 -1.843482393E+03  1.843482393E+03  0.000000000E+00  0.00000E+00  9.000E+00
      25     1     1     2     0     0 -6.917102393E-01 -1.126174144E+02 -1.030428045E+02  1.972966803E+02  1.250000000E+02  0.00000E+00  9.000E+00
      25     1     1     2     0     0  7.756615110E+00  1.253579467E+02 -1.485530894E+03  1.496062103E+03  1.250000000E+02  0.00000E+00  9.000E+00
      21     1     1     2   512   501 -7.064904871E+00 -1.274053227E+01 -2.022541559E+02  2.027781487E+02  0.000000000E+00  0.00000E+00  9.000E+00
#rwgt            1           1   3.2013497219528425E-002           1      288320           0
</event>
<event>
      5   9999  3.19816E-02  1.45039E+02 -1.00000E+00  1.16975E-01
      21    -1     0     0   511   501  0.000000000E+00  0.000000000E+00  1.161458214E+03  1.161458214E+03  0.000000000E+00  0.00000E+00  9.000E+00
      21    -1     0     0   501   502  0.000000000E+00  0.000000000E+00 -1.311116922E+02  1.311116922E+02  0.000000000E+00  0.00000E+00  9.000E+00
      25     1     1     2     0     0  1.224733188E+02  2.877211195E+02  3.889239348E+02  5.144608668E+02  1.250000000E+02  0.00000E+00  9.000E+00
      25     1     1     2     0     0 -6.816776059E+01 -1.532328530E+02  1.294455296E+02  2.459843409E+02  1.250000000E+02  0.00000E+00  9.000E+00
      21     1     1     2   511   502 -5.430555824E+01 -1.344882666E+02  5.119770579E+02  5.321246990E+02  5.394796609E-06  0.00000E+00  9.000E+00
#rwgt            1           1   2.7694831601372566E-002           1      288546           0
</event>
<event>
      5   9999  3.19816E-02  7.97106E+01 -1.00000E+00  1.28426E-01
      21    -1     0     0   502   501  0.000000000E+00  0.000000000E+00  1.348598653E+02  1.348598653E+02  0.000000000E+00  0.00000E+00  9.000E+00
       2    -1     0     0   501     0  0.000000000E+00  0.000000000E+00 -1.197872387E+03  1.197872387E+03  0.000000000E+00  0.00000E+00  9.000E+00
      25     1     1     2     0     0  1.260621784E+02  1.101696570E+02 -4.259535191E+02  4.744369574E+02  1.250000000E+02  0.00000E+00  9.000E+00
      25     1     1     2     0     0 -1.059139438E+02 -3.304745353E+01  4.380399495E+01  1.727821972E+02  1.250000000E+02  0.00000E+00  9.000E+00
       2     1     1     2   502     0 -2.014823454E+01 -7.712220350E+01 -6.808629976E+02  6.855130978E+02  7.629394531E-06  0.00000E+00  9.000E+00
#rwgt            1           1   2.7591133317501591E-002           1      288606           0
</event>
<event>
      5   9999  3.19816E-02  7.06840E+01 -1.00000E+00  1.31007E-01
      21    -1     0     0   502   501  0.000000000E+00  0.000000000E+00  6.101795154E+02  6.101795154E+02  0.000000000E+00  0.00000E+00  9.000E+00
      21    -1     0     0   501   511  0.000000000E+00  0.000000000E+00 -1.139743046E+02  1.139743046E+02  0.000000000E+00  0.00000E+00  9.000E+00
      25     1     1     2     0     0 -3.666575350E+01  1.323659386E+02  4.433942601E+01  1.909348158E+02  1.250000000E+02  0.00000E+00  9.000E+00
      25     1     1     2     0     0  9.600857819E+01 -9.396463425E+01  4.144212212E+02  4.532294652E+02  1.250000000E+02  0.00000E+00  9.000E+00
      21     1     1     2   502   511 -5.934282469E+01 -3.840130431E+01  3.744456354E+01  7.998953903E+01  1.430511475E-06  0.00000E+00  9.000E+00
#rwgt            1           1   3.1911951734373709E-002           1      288653           0
</event>
<event>
      5   9999  3.19816E-02  2.47666E+02 -1.00000E+00  1.08370E-01
       1    -1     0     0   502     0  0.000000000E+00  0.000000000E+00  1.785096606E+03  1.785096606E+03  0.000000000E+00  0.00000E+00  9.000E+00
      21    -1     0     0   501   502  0.000000000E+00  0.000000000E+00 -1.016788440E+02  1.016788440E+02  0.000000000E+00  0.00000E+00  9.000E+00
      25     1     1     2     0     0  2.405744764E+00  1.085255971E+02  1.906475637E+02  2.524976958E+02  1.250000000E+02  0.00000E+00  9.000E+00
      25     1     1     2     0     0  1.067648684E+02 -3.308320181E+02  5.731414241E+02  6.818831669E+02  1.250000000E+02  0.00000E+00  9.000E+00
       1     1     1     2   501     0 -1.091706131E+02  2.223064210E+02  9.196287742E+02  9.523945873E+02  1.078959322E-05  0.00000E+00  9.000E+00
#rwgt            2          17   5.7258617029244750E-004           1      289224           0
</event>
<event>
      5   9999  3.19816E-02  2.42732E+02 -1.00000E+00  1.08670E-01
      21    -1     0     0   511   501  0.000000000E+00  0.000000000E+00  1.978022607E+03  1.978022607E+03  0.000000000E+00  0.00000E+00  9.000E+00
      21    -1     0     0   501   502  0.000000000E+00  0.000000000E+00 -1.147789961E+02  1.147789961E+02  0.000000000E+00  0.00000E+00  9.000E+00
      25     1     1     2     0     0  7.959249550E+00  1.494796656E+02  4.670996443E+02  5.061764493E+02  1.250000000E+02  0.00000E+00  9.000E+00
      25     1     1     2     0     0 -1.234199564E+02  6.403340240E+01  1.863806577E+01  1.878966199E+02  1.250000000E+02  0.00000E+00  9.000E+00
      21     1     1     2   511   502  1.154607068E+02 -2.135130680E+02  1.377505901E+03  1.398728534E+03  2.157918644E-05  0.00000E+00  9.000E+00
#rwgt            1           1   2.7363629426941920E-002           1      289243           0
</event>
<event>
      5   9999  3.19816E-02  2.72379E+02 -1.00000E+00  1.06973E-01
      21    -1     0     0   502   501  0.000000000E+00  0.000000000E+00  4.242972876E+03  4.242972876E+03  0.000000000E+00  0.00000E+00  9.000E+00
      21    -1     0     0   501   512  0.000000000E+00  0.000000000E+00 -1.266218188E+02  1.266218188E+02  0.000000000E+00  0.00000E+00  9.000E+00
      25     1     1     2     0     0  2.817405243E+02  5.582489163E+02  3.012120529E+03  3.078882046E+03  1.250000000E+02  0.00000E+00  9.000E+00
      25     1     1     2     0     0 -1.130667306E+02 -3.443815737E+02  7.646305705E+02  8.553757438E+02  1.250000000E+02  0.00000E+00  9.000E+00
      21     1     1     2   502   512 -1.686737938E+02 -2.138673426E+02  3.395999576E+02  4.353369042E+02  8.529922400E-06  0.00000E+00  9.000E+00
#rwgt            2          11   1.1048337634244031E-003           1      289297           0
</event>
<event>
      5   9999  3.19816E-02  9.66787E+01 -1.00000E+00  1.24491E-01
      21    -1     0     0   502   501  0.000000000E+00  0.000000000E+00  3.445382636E+02  3.445382636E+02  0.000000000E+00  0.00000E+00  9.000E+00
       2    -1     0     0   501     0  0.000000000E+00  0.000000000E+00 -3.005391903E+03  3.005391903E+03  0.000000000E+00  0.00000E+00  9.000E+00
      25     1     1     2     0     0 -7.919897666E+02 -1.315054891E+02 -6.911496270E+02  1.066702532E+03  1.250000000E+02  0.00000E+00  9.000E+00
      25     1     1     2     0     0  7.615740140E+02  2.232751029E+02 -8.891489749E+02  1.198356228E+03  1.250000000E+02  0.00000E+00  9.000E+00
       2     1     1     2   502     0  3.041575256E+01 -9.176961379E+01 -1.080555037E+03  1.084871406E+03  2.642899792E-05  0.00000E+00  9.000E+00
#rwgt            1           1   3.2423183845187505E-002           1      289317           0
</event>
<event>
      5   9999  4.09024E-02  1.67176E+01 -1.00000E+00  1.73060E-01
      21    -1     0     0   502   501  0.000000000E+00  0.000000000E+00  2.773624028E+01  2.773624028E+01  0.000000000E+00  0.00000E+00  9.000E+00
      21    -1     0     0   511   502  0.000000000E+00  0.000000000E+00 -2.480493316E+03  2.480493316E+03  0.000000000E+00  0.00000E+00  9.000E+00
      25     1     1     2     0     0 -8.538401588E+01  8.257844668E+01 -2.982417266E+02  3.445036393E+02  1.250000000E+02  0.00000E+00  9.000E+00
      25     1     1     2     0     0  7.271777529E+01 -7.166769943E+01 -1.440266733E+03  1.449281683E+03  1.250000000E+02  0.00000E+00  9.000E+00
      21     1     1     2   511   501  1.266624059E+01 -1.091074724E+01 -7.142486160E+02  7.144442341E+02  1.321449896E-05  0.00000E+00  9.000E+00
#rwgt            1           1  0.12409062484010984                1      289417           0
</event>
<event>
      5   9999  3.19816E-02  1.35244E+02 -1.00000E+00  1.18204E-01
      21    -1     0     0   502   501  0.000000000E+00  0.000000000E+00  1.943406234E+03  1.943406234E+03  0.000000000E+00  0.00000E+00  9.000E+00
      21    -1     0     0   501   512  0.000000000E+00  0.000000000E+00 -4.273661250E+02  4.273661250E+02  0.000000000E+00  0.00000E+00  9.000E+00
      25     1     1     2     0     0 -5.139531782E+02 -2.220947955E+02  1.046478929E+03  1.193405680E+03  1.250000000E+02  0.00000E+00  9.000E+00
      25     1     1     2     0     0  4.829072256E+02  3.537270168E+02  6.879783016E+02  9.204679975E+02  1.250000000E+02  0.00000E+00  9.000E+00
      21     1     1     2   502   512  3.104595259E+01 -1.316322213E+02 -2.184171225E+02  2.568986809E+02  7.136645101E-06  0.00000E+00  9.000E+00
#rwgt            1           1   2.9310630811449846E-002           1      289573           0
</event>
<event>
      5   9999  3.19816E-02  1.58165E+02 -1.00000E+00  1.15489E-01
      21    -1     0     0   502   501  0.000000000E+00  0.000000000E+00  1.418750054E+03  1.418750054E+03  0.000000000E+00  0.00000E+00  9.000E+00
      21    -1     0     0   511   502  0.000000000E+00  0.000000000E+00 -5.215397912E+02  5.215397912E+02  0.000000000E+00  0.00000E+00  9.000E+00
      25     1     1     2     0     0  1.593962915E+02 -9.515260497E+01  1.312805771E+03  1.331745166E+03  1.250000000E+02  0.00000E+00  9.000E+00
      25     1     1     2     0     0 -9.738717968E+00  1.463269364E+02 -3.427022119E+01  1.957188366E+02  1.250000000E+02  0.00000E+00  9.000E+00
      21     1     1     2   511   501 -1.496575735E+02 -5.117433145E+01 -3.813252869E+02  4.128258422E+02  9.344061824E-06  0.00000E+00  9.000E+00
#rwgt            1           1   2.7585717363912642E-002           1      289651           0
</event>
<event>
      5   9999  3.19816E-02  5.51668E+01 -1.00000E+00  1.36682E-01
      21    -1     0     0   502   501  0.000000000E+00  0.000000000E+00  4.179261529E+02  4.179261529E+02  0.000000000E+00  0.00000E+00  9.000E+00
      21    -1     0     0   512   502  0.000000000E+00  0.000000000E+00 -2.223672873E+02  2.223672873E+02  0.000000000E+00  0.00000E+00  9.000E+00
      25     1     1     2     0     0  2.041785882E+02 -1.190680793E+00  2.155246913E+02  3.221276241E+02  1.250000000E+02  0.00000E+00  9.000E+00
      25     1     1     2     0     0 -2.175140923E+02  5.472145354E+01  6.771381521E+00  2.568611871E+02  1.250000000E+02  0.00000E+00  9.000E+00
      21     1     1     2   512   501  1.333550404E+01 -5.353077274E+01 -2.673720723E+01  6.130462910E+01  8.259061849E-07  0.00000E+00  9.000E+00
#rwgt            2          11   2.4921986571393873E-003           1      289731           0
</event>
<event>
      5   9999  3.19816E-02  1.13840E+02 -1.00000E+00  1.21348E-01
      21    -1     0     0   502   511  0.000000000E+00  0.000000000E+00  1.033715244E+03  1.033715244E+03  0.000000000E+00  0.00000E+00  9.000E+00
      21    -1     0     0   501   502  0.000000000E+00  0.000000000E+00 -1.044897232E+03  1.044897232E+03  0.000000000E+00  0.00000E+00  9.000E+00
      25     1     1     2     0     0  5.390840556E+02  5.535540969E+02  3.909773678E+02  8.749411748E+02  1.250000000E+02  0.00000E+00  9.000E+00
      25     1     1     2     0     0 -5.117779583E+02 -4.430376177E+02 -6.400529924E+02  9.399424676E+02  1.250000000E+02  0.00000E+00  9.000E+00
      21     1     1     2   501   511 -2.730609731E+01 -1.105164792E+02  2.378936372E+02  2.637288337E+02  2.697398305E-06  0.00000E+00  9.000E+00
#rwgt            1           1   3.2719967295470900E-002           1      289751           0
</event>
<event>
      5   9999  3.19816E-02  1.25347E+02 -1.00000E+00  1.19570E-01
      21    -1     0     0   502   501  0.000000000E+00  0.000000000E+00  7.549220729E+02  7.549220729E+02  0.000000000E+00  0.00000E+00  9.000E+00
      21    -1     0     0   501   512  0.000000000E+00  0.000000000E+00 -3.261168372E+02  3.261168372E+02  0.000000000E+00  0.00000E+00  9.000E+00
      25     1     1     2     0     0 -7.673331334E+01  2.083951665E+02  1.293204395E+02  2.857714521E+02  1.250000000E+02  0.00000E+00  9.000E+00
      25     1     1     2     0     0  3.082166913E+01 -3.250313641E+02  4.686757945E+02  5.847027991E+02  1.250000000E+02  0.00000E+00  9.000E+00
      21     1     1     2   502   512  4.591164420E+01  1.166361977E+02 -1.691909983E+02  2.105646589E+02  2.697398305E-06  0.00000E+00  9.000E+00
#rwgt            1           1   2.6555628976471186E-002           1      289912           0
</event>
<event>
      5   9999  3.19816E-02  1.75535E+01 -1.00000E+00  1.71184E-01
      21    -1     0     0   502   511  0.000000000E+00  0.000000000E+00  8.581002248E+02  8.581002248E+02  0.000000000E+00  0.00000E+00  9.000E+00
      21    -1     0     0   501   502  0.000000000E+00  0.000000000E+00 -2.355664609E+02  2.355664609E+02  0.000000000E+00  0.00000E+00  9.000E+00
      25     1     1     2     0     0 -2.712275283E+01 -1.184878152E+02  4.897898966E+01  1.811047970E+02  1.250000000E+02  0.00000E+00  9.000E+00
      25     1     1     2     0     0  3.959209316E+01  1.061329965E+02 -1.273957320E+02  2.113916254E+02  1.250000000E+02  0.00000E+00  9.000E+00
      21     1     1     2   501   511 -1.246934033E+01  1.235481875E+01  7.009505062E+02  7.011702633E+02  7.629394531E-06  0.00000E+00  9.000E+00
#rwgt            1           1   2.5319059645159118E-002           1      289983           0
</event>
<event>
      5   9999  3.19816E-02  8.85005E+01 -1.00000E+00  1.26262E-01
      21    -1     0     0   502   501  0.000000000E+00  0.000000000E+00  3.503676818E+02  3.503676818E+02  0.000000000E+00  0.00000E+00  9.000E+00
      21    -1     0     0   512   502  0.000000000E+00  0.000000000E+00 -7.598430825E+02  7.598430825E+02  0.000000000E+00  0.00000E+00  9.000E+00
      25     1     1     2     0     0 -3.001958214E+02 -5.702801555E+01 -4.212781218E+02  5.352289059E+02  1.250000000E+02  0.00000E+00  9.000E+00
      25     1     1     2     0     0  3.691128295E+02  1.505180511E+00  1.443690703E+02  4.155887089E+02  1.250000000E+02  0.00000E+00  9.000E+00
      21     1     1     2   512   501 -6.891700811E+01  5.552283504E+01 -1.325663492E+02  1.593931497E+02  2.697398305E-06  0.00000E+00  9.000E+00
#rwgt            1           1   2.8264883478011264E-002           1      290121           0
</event>
<event>
      5   9999  3.19816E-02  2.28047E+01 -1.00000E+00  1.61800E-01
      21    -1     0     0   502   501  0.000000000E+00  0.000000000E+00  1.360456017E+02  1.360456017E+02  0.000000000E+00  0.00000E+00  9.000E+00
      21    -1     0     0   511   502  0.000000000E+00  0.000000000E+00 -2.764009283E+02  2.764009283E+02  0.000000000E+00  0.00000E+00  9.000E+00
      25     1     1     2     0     0  1.182073647E+02 -1.153811421E+01 -1.478562368E+02  2.271399919E+02  1.250000000E+02  0.00000E+00  9.000E+00
      25     1     1     2     0     0 -9.546688844E+01  9.827546387E+00  2.071739811E+01  1.589487906E+02  1.250000000E+02  0.00000E+00  9.000E+00
      21     1     1     2   511   501 -2.274047627E+01  1.710567824E+00 -1.321648789E+01  2.635774754E+01  5.057621821E-07  0.00000E+00  9.000E+00
#rwgt            1           1   2.7522512786623380E-002           1      290203           0
</event>
<event>
      5   9999  3.19816E-02  5.91432E+01 -1.00000E+00  1.35038E-01
      21    -1     0     0   502   501  0.000000000E+00  0.000000000E+00  2.626473856E+03  2.626473856E+03  0.000000000E+00  0.00000E+00  9.000E+00
      21    -1     0     0   501   512  0.000000000E+00  0.000000000E+00 -3.627616392E+02  3.627616392E+02  0.000000000E+00  0.00000E+00  9.000E+00
      25     1     1     2     0     0  1.551357032E+02 -3.223799490E+01  1.594739555E+03  1.607459369E+03  1.250000000E+02  0.00000E+00  9.000E+00
      25     1     1     2     0     0 -1.700114476E+02  8.947989153E+01  1.009988307E+03  1.035669795E+03  1.250000000E+02  0.00000E+00  9.000E+00
      21     1     1     2   502   512  1.487574442E+01 -5.724189662E+01 -3.410156452E+02  3.461063316E+02  7.629394531E-06  0.00000E+00  9.000E+00
#rwgt            1           1   4.0049338081253834E-002           1      290307           0
</event>
<event>
      5   9999  3.19816E-02  3.79512E+01 -1.00000E+00  1.46271E-01
      21    -1     0     0   502   501  0.000000000E+00  0.000000000E+00  2.465148946E+02  2.465148946E+02  0.000000000E+00  0.00000E+00  9.000E+00
      21    -1     0     0   511   502  0.000000000E+00  0.000000000E+00 -4.305712742E+02  4.305712742E+02  0.000000000E+00  0.00000E+00  9.000E+00
      25     1     1     2     0     0  4.782282508E+01 -2.617585980E+02 -2.882945704E+01  2.953992617E+02  1.250000000E+02  0.00000E+00  9.000E+00
      25     1     1     2     0     0 -9.991385093E+00  2.647717654E+02 -9.044893316E+01  3.066103798E+02  1.250000000E+02  0.00000E+00  9.000E+00
      21     1     1     2   511   501 -3.783143999E+01 -3.013167400E+00 -6.477798940E+01  7.507652723E+01  1.651812370E-06  0.00000E+00  9.000E+00
#rwgt            1           1   2.7563866350215710E-002           1      290367           0
</event>
<event>
      5   9999  3.19816E-02  2.01264E+02 -1.00000E+00  1.11549E-01
      21    -1     0     0   502   501  0.000000000E+00  0.000000000E+00  4.408452844E+02  4.408452844E+02  0.000000000E+00  0.00000E+00  9.000E+00
      21    -1     0     0   501   512  0.000000000E+00  0.000000000E+00 -3.799641589E+02  3.799641589E+02  0.000000000E+00  0.00000E+00  9.000E+00
      25     1     1     2     0     0 -1.278137837E+01 -1.825766769E+02  2.246826775E+02  3.156024591E+02  1.250000000E+02  0.00000E+00  9.000E+00
      25     1     1     2     0     0  1.825714330E+02  7.450998698E+01  1.776552124E+01  2.341467063E+02  1.250000000E+02  0.00000E+00  9.000E+00
      21     1     1     2   502   512 -1.697900547E+02  1.080666900E+02 -1.815670733E+02  2.710602779E+02  2.697398305E-06  0.00000E+00  9.000E+00
#rwgt            2          11   3.8539954777775105E-003           1      290468           0
</event>
<event>
      5   9999  3.19816E-02  1.47838E+01 -1.00000E+00  1.77980E-01
      21    -1     0     0   511   501  0.000000000E+00  0.000000000E+00  1.080650984E+03  1.080650984E+03  0.000000000E+00  0.00000E+00  9.000E+00
      21    -1     0     0   501   502  0.000000000E+00  0.000000000E+00 -3.080947196E+02  3.080947196E+02  0.000000000E+00  0.00000E+00  9.000E+00
      25     1     1     2     0     0  7.406528576E+01 -1.970275409E+02  9.724079014E+02  1.002750041E+03  1.250000000E+02  0.00000E+00  9.000E+00
      25     1     1     2     0     0 -6.104283133E+01  2.040259423E+02 -2.393026162E+02  3.438656053E+02  1.250000000E+02  0.00000E+00  9.000E+00
      21     1     1     2   511   502 -1.302245443E+01 -6.998401369E+00  3.945097933E+01  4.213005710E+01  6.743495762E-07  0.00000E+00  9.000E+00
#rwgt            1           1   3.0755383073333888E-002           1      290488           0
</event>
<event>
      5   9999  3.19816E-02  2.19333E+01 -1.00000E+00  1.63129E-01
      21    -1     0     0   512   501  0.000000000E+00  0.000000000E+00  7.324286771E+02  7.324286771E+02  0.000000000E+00  0.00000E+00  9.000E+00
      21    -1     0     0   501   502  0.000000000E+00  0.000000000E+00 -5.744212119E+02  5.744212119E+02  0.000000000E+00  0.00000E+00  9.000E+00
      25     1     1     2     0     0  1.855415855E+02  3.670439006E+01 -4.792191909E+02  5.301404768E+02  1.250000000E+02  0.00000E+00  9.000E+00
      25     1     1     2     0     0 -2.071999605E+02 -3.324247613E+01  1.451229366E+02  2.841171458E+02  1.250000000E+02  0.00000E+00  9.000E+00
      21     1     1     2   512   502  2.165837495E+01 -3.461913930E+00  4.921037195E+02  4.925922663E+02  0.000000000E+00  0.00000E+00  9.000E+00
#rwgt            1           1   3.1411336394879238E-002           1      290748           0
</event>
<event>
      5   9999  3.19816E-02  5.33878E+01 -1.00000E+00  1.37470E-01
      21    -1     0     0   511   501  0.000000000E+00  0.000000000E+00  1.386225209E+02  1.386225209E+02  0.000000000E+00  0.00000E+00  9.000E+00
      21    -1     0     0   501   502  0.000000000E+00  0.000000000E+00 -6.983426119E+02  6.983426119E+02  0.000000000E+00  0.00000E+00  9.000E+00
      25     1     1     2     0     0  5.161896863E+01  1.065719740E+02  2.843233252E+01  1.745150455E+02  1.250000000E+02  0.00000E+00  9.000E+00
      25     1     1     2     0     0  3.337883382E-01 -1.188669412E+02 -5.839534440E+02  6.088974346E+02  1.250000000E+02  0.00000E+00  9.000E+00
      21     1     1     2   511   502 -5.195275697E+01  1.229496720E+01 -4.198979489E+00  5.355265263E+01  4.214684851E-07  0.00000E+00  9.000E+00
#rwgt            1           1   2.6903045166484667E-002           1      290879           0
</event>
<event>
      5   9999  3.19816E-02  2.76162E+01 -1.00000E+00  1.55580E-01
      -2    -1     0     0     0   501  0.000000000E+00  0.000000000E+00  3.237942797E+02  3.237942797E+02  0.000000000E+00  0.00000E+00  9.000E+00
      21    -1     0     0   501   502  0.000000000E+00  0.000000000E+00 -4.040169342E+02  4.040169342E+02  0.000000000E+00  0.00000E+00  9.000E+00
      25     1     1     2     0     0  1.172394488E+02 -1.189815022E+02 -1.683044801E+02  2.680542562E+02  1.250000000E+02  0.00000E+00  9.000E+00
      25     1     1     2     0     0 -9.914163622E+01  9.812190099E+01 -1.375866829E+02  2.324049629E+02  1.250000000E+02  0.00000E+00  9.000E+00
      -2     1     1     2     0   502 -1.809781254E+01  2.085960122E+01  2.256685086E+02  2.273519948E+02  3.814697266E-06  0.00000E+00  9.000E+00
#rwgt            1           1   2.4831099511696497E-002           1      291027           0
</event>
<event>
      5   9999  3.58678E-02  2.22264E+02 -1.00000E+00  1.10004E-01
      21    -1     0     0   511   501  0.000000000E+00  0.000000000E+00  3.463344866E+03  3.463344866E+03  0.000000000E+00  0.00000E+00  9.000E+00
      21    -1     0     0   501   502  0.000000000E+00  0.000000000E+00 -7.390416603E+02  7.390416603E+02  0.000000000E+00  0.00000E+00  9.000E+00
      25     1     1     2     0     0 -4.466962085E+02  1.007090329E+03  1.653994666E+02  1.121048802E+03  1.250000000E+02  0.00000E+00  9.000E+00
      25     1     1     2     0     0  6.470674301E+02 -9.109000617E+02  9.939080633E+02  1.500637671E+03  1.250000000E+02  0.00000E+00  9.000E+00
      21     1     1     2   511   502 -2.003712216E+02 -9.619026678E+01  1.564995675E+03  1.580700053E+03  2.157918644E-05  0.00000E+00  9.000E+00
#rwgt            1           1   8.1689013208359307E-002           1      291132           0
</event>
<event>
      5   9999  3.19816E-02  5.56333E+02 -1.00000E+00  9.75524E-02
      21    -1     0     0   502   501  0.000000000E+00  0.000000000E+00  3.673745511E+02  3.673745511E+02  0.000000000E+00  0.00000E+00  9.000E+00
      -3    -1     0     0     0   502  0.000000000E+00  0.000000000E+00 -1.866885529E+03  1.866885529E+03  0.000000000E+00  0.00000E+00  9.000E+00
      25     1     1     2     0     0  3.983346775E+01 -4.820207005E+02 -1.042839253E+03  1.156317158E+03  1.250000000E+02  0.00000E+00  9.000E+00
      25     1     1     2     0     0  2.796209332E+02  2.654839672E+01  6.617710771E+01  3.144790823E+02  1.250000000E+02  0.00000E+00  9.000E+00
      -3     1     1     2     0   501 -3.194544009E+02  4.554723038E+02 -5.228488328E+02  7.634638405E+02  1.321449896E-05  0.00000E+00  9.000E+00
#rwgt            2           8   1.7923981396093343E-005           1      291292           0
</event>
<event>
      5   9999  3.19816E-02  8.99489E+00 -1.00000E+00  2.01230E-01
      21    -1     0     0   502   511  0.000000000E+00  0.000000000E+00  2.952415363E+02  2.952415363E+02  0.000000000E+00  0.00000E+00  9.000E+00
      21    -1     0     0   501   502  0.000000000E+00  0.000000000E+00 -4.158852605E+02  4.158852605E+02  0.000000000E+00  0.00000E+00  9.000E+00
      25     1     1     2     0     0  2.117444032E+02 -8.975203709E+01 -1.691847918E+02  3.116722866E+02  1.250000000E+02  0.00000E+00  9.000E+00
      25     1     1     2     0     0 -2.032600454E+02  9.273929202E+01 -8.183404253E+01  2.687694791E+02  1.250000000E+02  0.00000E+00  9.000E+00
      21     1     1     2   501   511 -8.484357791E+00 -2.987254924E+00  1.303751101E+02  1.306850311E+02  0.000000000E+00  0.00000E+00  9.000E+00
#rwgt            1           1   2.6715912217180855E-002           1      291311           0
</event>
<event>
      5   9999  3.19816E-02  3.51758E+02 -1.00000E+00  1.03394E-01
      21    -1     0     0   502   501  0.000000000E+00  0.000000000E+00  2.198193508E+02  2.198193508E+02  0.000000000E+00  0.00000E+00  9.000E+00
       2    -1     0     0   501     0  0.000000000E+00  0.000000000E+00 -3.865777974E+03  3.865777974E+03  0.000000000E+00  0.00000E+00  9.000E+00
      25     1     1     2     0     0 -1.219866892E+02 -1.582343069E+02 -1.418530305E+03  1.437974991E+03  1.250000000E+02  0.00000E+00  9.000E+00
      25     1     1     2     0     0  1.253261263E+01  4.925294441E+02 -1.351198098E+02  5.259512171E+02  1.250000000E+02  0.00000E+00  9.000E+00
       2     1     1     2   502     0  1.094540766E+02 -3.342951372E+02 -2.092308509E+03  2.121671117E+03  4.315837288E-05  0.00000E+00  9.000E+00
#rwgt            1           1   2.8079352455912004E-002           1      291662           0
</event>
<event>
      5   9999  3.19816E-02  2.00821E+01 -1.00000E+00  1.66222E-01
      21    -1     0     0   502   511  0.000000000E+00  0.000000000E+00  3.855252668E+02  3.855252668E+02  0.000000000E+00  0.00000E+00  9.000E+00
      21    -1     0     0   501   502  0.000000000E+00  0.000000000E+00 -1.180142859E+03  1.180142859E+03  0.000000000E+00  0.00000E+00  9.000E+00
      25     1     1     2     0     0  5.093365336E+02 -3.475600715E+02 -5.900597805E+02  8.625643468E+02  1.250000000E+02  0.00000E+00  9.000E+00
      25     1     1     2     0     0 -5.112258233E+02  3.675530602E+02 -2.191215955E+02  6.782966667E+02  1.250000000E+02  0.00000E+00  9.000E+00
      21     1     1     2   501   511  1.889289634E+00 -1.999298873E+01  1.456378396E+01  2.480711222E+01  7.152557373E-07  0.00000E+00  9.000E+00
#rwgt            1           1   3.0420195695704821E-002           1      291698           0
</event>
<event>
      5   9999  3.19816E-02  3.50082E+01 -1.00000E+00  1.48524E-01
      21    -1     0     0   502   501  0.000000000E+00  0.000000000E+00  2.706876092E+03  2.706876092E+03  0.000000000E+00  0.00000E+00  9.000E+00
      21    -1     0     0   512   502  0.000000000E+00  0.000000000E+00 -2.967149858E+02  2.967149858E+02  0.000000000E+00  0.00000E+00  9.000E+00
      25     1     1     2     0     0  5.431113480E+02  3.892884341E+02  3.764269685E+02  7.770699350E+02  1.250000000E+02  0.00000E+00  9.000E+00
      25     1     1     2     0     0 -5.100701053E+02 -4.008577164E+02  2.071927549E+03  2.174710829E+03  1.250000000E+02  0.00000E+00  9.000E+00
      21     1     1     2   512   501 -3.304124270E+01  1.156928227E+01 -3.819341107E+01  5.181031423E+01  6.743495762E-07  0.00000E+00  9.000E+00
#rwgt            1           1   3.4406858147137766E-002           1      291927           0
</event>
<event>
      5   9999  3.19816E-02  6.52877E+02 -1.00000E+00  9.56683E-02
      21    -1     0     0   502   501  0.000000000E+00  0.000000000E+00  1.174728053E+03  1.174728053E+03  0.000000000E+00  0.00000E+00  9.000E+00
       1    -1     0     0   501     0  0.000000000E+00  0.000000000E+00 -9.363427427E+02  9.363427427E+02  0.000000000E+00  0.00000E+00  9.000E+00
      25     1     1     2     0     0  1.685421675E+01 -1.984328113E+02 -3.789673780E+02  4.459830925E+02  1.250000000E+02  0.00000E+00  9.000E+00
      25     1     1     2     0     0  2.689527082E+02  7.854275779E+02  5.610884889E+02  1.009790737E+03  1.250000000E+02  0.00000E+00  9.000E+00
       1     1     1     2   502     0 -2.858069250E+02 -5.869947666E+02  5.626419955E+01  6.552969667E+02  2.169478067E-05  0.00000E+00  9.000E+00
#rwgt            2          12   1.6071363249772950E-004           1      292243           0
</event>
<event>
      5   9999  3.19816E-02  4.62081E+01 -1.00000E+00  1.41058E-01
      21    -1     0     0   511   501  0.000000000E+00  0.000000000E+00  4.823975912E+02  4.823975912E+02  0.000000000E+00  0.00000E+00  9.000E+00
      21    -1     0     0   501   502  0.000000000E+00  0.000000000E+00 -8.274869821E+02  8.274869821E+02  0.000000000E+00  0.00000E+00  9.000E+00
      25     1     1     2     0     0  2.439191082E+02  2.510996606E+02 -1.179638739E+02  3.899846746E+02  1.250000000E+02  0.00000E+00  9.000E+00
      25     1     1     2     0     0 -2.461031014E+02 -2.049432463E+02 -5.200164348E+02  6.233863675E+02  1.250000000E+02  0.00000E+00  9.000E+00
      21     1     1     2   511   502  2.183993124E+00 -4.615641432E+01  2.928909178E+02  2.965135311E+02  3.814697266E-06  0.00000E+00  9.000E+00
#rwgt            1           1   3.1465548080225766E-002           1      292262           0
</event>
<event>
      5   9999  3.19816E-02  4.18544E+01 -1.00000E+00  1.43630E-01
      21    -1     0     0   502   501  0.000000000E+00  0.000000000E+00  1.548876499E+03  1.548876499E+03  0.000000000E+00  0.00000E+00  9.000E+00
      21    -1     0     0   501   512  0.000000000E+00  0.000000000E+00 -3.451970132E+02  3.451970132E+02  0.000000000E+00  0.00000E+00  9.000E+00
      25     1     1     2     0     0 -1.570708347E+02  3.809728833E+02  5.521799532E+02  7.002423049E+02  1.250000000E+02  0.00000E+00  9.000E+00
      25     1     1     2     0     0  1.859657598E+02 -3.506930011E+02  8.736842811E+02  9.677386361E+02  1.250000000E+02  0.00000E+00  9.000E+00
      21     1     1     2   502   512 -2.889492503E+01 -3.027988221E+01 -2.221847488E+02  2.260925708E+02  3.814697266E-06  0.00000E+00  9.000E+00
#rwgt            1           1   2.7683487595784279E-002           1      292364           0
</event>
<event>
      5   9999  3.19816E-02  1.60876E+01 -1.00000E+00  1.74567E-01
      21    -1     0     0   502   511  0.000000000E+00  0.000000000E+00  1.451884638E+02  1.451884638E+02  0.000000000E+00  0.00000E+00  9.000E+00
      21    -1     0     0   501   502  0.000000000E+00  0.000000000E+00 -1.196976909E+03  1.196976909E+03  0.000000000E+00  0.00000E+00  9.000E+00
      25     1     1     2     0     0 -4.436290453E+01  8.396740210E+01 -2.933061867E+02  3.326741816E+02  1.250000000E+02  0.00000E+00  9.000E+00
      25     1     1     2     0     0  6.021305903E+01 -8.121340083E+01 -8.761251848E+02  8.907533713E+02  1.250000000E+02  0.00000E+00  9.000E+00
      21     1     1     2   501   511 -1.585015450E+01 -2.754001267E+00  1.176429260E+02  1.187378202E+02  3.568322551E-06  0.00000E+00  9.000E+00
#rwgt            1           1   2.9958124110615807E-002           1      292511           0
</event>
<event>
      5   9999  3.19816E-02  1.21269E+02 -1.00000E+00  1.20175E-01
      21    -1     0     0   502   501  0.000000000E+00  0.000000000E+00  2.065465859E+02  2.065465859E+02  0.000000000E+00  0.00000E+00  9.000E+00
       2    -1     0     0   501     0  0.000000000E+00  0.000000000E+00 -2.307969131E+03  2.307969131E+03  0.000000000E+00  0.00000E+00  9.000E+00
      25     1     1     2     0     0 -3.501186035E+02 -5.028698430E+01 -4.941029638E+02  6.203825885E+02  1.250000000E+02  0.00000E+00  9.000E+00
      25     1     1     2     0     0  4.298140091E+02  1.416912492E+02 -2.509812433E+02  5.323843321E+02  1.250000000E+02  0.00000E+00  9.000E+00
       2     1     1     2   502     0 -7.969540562E+01 -9.140426489E+01 -1.356338338E+03  1.361748796E+03  0.000000000E+00  0.00000E+00  9.000E+00
#rwgt            1           1   2.8997661191668217E-002           1      292627           0
</event>
<event>
      5   9999  3.19816E-02  5.12941E+01 -1.00000E+00  1.38445E-01
      21    -1     0     0   502   511  0.000000000E+00  0.000000000E+00  9.851771936E+01  9.851771936E+01  0.000000000E+00  0.00000E+00  9.000E+00
      21    -1     0     0   501   502  0.000000000E+00  0.000000000E+00 -1.543720246E+03  1.543720246E+03  0.000000000E+00  0.00000E+00  9.000E+00
      25     1     1     2     0     0 -3.289247095E+00  2.099528427E+02 -1.147484581E+03  1.173216467E+03  1.250000000E+02  0.00000E+00  9.000E+00
      25     1     1     2     0     0 -1.544834857E+01 -2.577020341E+02 -3.032689923E+02  4.174279237E+02  1.250000000E+02  0.00000E+00  9.000E+00
      21     1     1     2   501   511  1.873759567E+01  4.774919146E+01  5.551046840E+00  5.159357419E+01  2.063044107E-06  0.00000E+00  9.000E+00
#rwgt            1           1   3.2654717586634963E-002           1      292668           0
</event>
<event>
      5   9999  3.19816E-02  2.56686E+01 -1.00000E+00  1.57897E-01
      21    -1     0     0   502   501  0.000000000E+00  0.000000000E+00  5.871401815E+02  5.871401815E+02  0.000000000E+00  0.00000E+00  9.000E+00
      21    -1     0     0   501   512  0.000000000E+00  0.000000000E+00 -1.509913081E+03  1.509913081E+03  0.000000000E+00  0.00000E+00  9.000E+00
      25     1     1     2     0     0 -5.066549804E+02 -2.824240573E+02  2.691260403E+02  6.515492636E+02  1.250000000E+02  0.00000E+00  9.000E+00
      25     1     1     2     0     0  5.304478524E+02  2.727920392E+02 -6.073806758E+02  8.604223998E+02  1.250000000E+02  0.00000E+00  9.000E+00
      21     1     1     2   502   512 -2.379287204E+01  9.632018038E+00 -5.845182644E+02  5.850815994E+02  1.321449896E-05  0.00000E+00  9.000E+00
#rwgt            1           1   2.9476638978910345E-002           1      292764           0
</event>
<event>
      5   9999  3.19816E-02  4.60598E+01 -1.00000E+00  1.41140E-01
      21    -1     0     0   502   501  0.000000000E+00  0.000000000E+00  7.285658854E+02  7.285658854E+02  0.000000000E+00  0.00000E+00  9.000E+00
      21    -1     0     0   511   502  0.000000000E+00  0.000000000E+00 -3.094039677E+02  3.094039677E+02  0.000000000E+00  0.00000E+00  9.000E+00
      25     1     1     2     0     0 -1.480315669E+02 -2.542536483E+02  3.251092490E+02  4.559378096E+02  1.250000000E+02  0.00000E+00  9.000E+00
      25     1     1     2     0     0  1.110184905E+02  2.268395198E+02  2.759437176E+02  3.943998076E+02  1.250000000E+02  0.00000E+00  9.000E+00
      21     1     1     2   511   501  3.701307637E+01  2.741412843E+01 -1.818910488E+02  1.876322358E+02  2.697398305E-06  0.00000E+00  9.000E+00
#rwgt            1           1   2.7690636898584722E-002           1      292956           0
</event>
<event>
      5   9999  3.19816E-02  1.45031E+02 -1.00000E+00  1.16976E-01
       1    -1     0     0   502     0  0.000000000E+00  0.000000000E+00  3.395006810E+03  3.395006810E+03  0.000000000E+00  0.00000E+00  9.000E+00
      21    -1     0     0   501   502  0.000000000E+00  0.000000000E+00 -2.491031605E+02  2.491031605E+02  0.000000000E+00  0.00000E+00  9.000E+00
      25     1     1     2     0     0 -8.262603789E+01 -3.908302212E+01 -2.143127338E+02  2.644040329E+02  1.250000000E+02  0.00000E+00  9.000E+00
      25     1     1     2     0     0  1.148259067E+02 -1.023279084E+02  1.376533370E+03  1.390728265E+03  1.250000000E+02  0.00000E+00  9.000E+00
       1     1     1     2   501     0 -3.219986880E+01  1.414109305E+02  1.983683014E+03  1.988977673E+03  3.737624730E-05  0.00000E+00  9.000E+00
#rwgt            1           1   3.1168770244490211E-002           1      293096           0
</event>
<event>
      5   9999  3.19816E-02  3.64931E+02 -1.00000E+00  1.02899E-01
       2    -1     0     0   502     0  0.000000000E+00  0.000000000E+00  1.543450853E+03  1.543450853E+03  0.000000000E+00  0.00000E+00  9.000E+00
      21    -1     0     0   501   502  0.000000000E+00  0.000000000E+00 -8.363073788E+02  8.363073788E+02  0.000000000E+00  0.00000E+00  9.000E+00
      25     1     1     2     0     0 -6.933066392E+02 -1.658121124E+02 -4.202256664E+02  8.368885011E+02  1.250000000E+02  0.00000E+00  9.000E+00
      25     1     1     2     0     0  5.187636042E+02 -1.546710413E+02  2.840492840E+02  6.239774065E+02  1.250000000E+02  0.00000E+00  9.000E+00
       2     1     1     2   501     0  1.745430350E+02  3.204831537E+02  8.433198569E+02  9.188923244E+02  1.525878906E-05  0.00000E+00  9.000E+00
#rwgt            2          18   1.4619566298643694E-003           1      293185           0
</event>
<event>
      5   9999  3.19816E-02  1.04739E+02 -1.00000E+00  1.22930E-01
      21    -1     0     0   511   501  0.000000000E+00  0.000000000E+00  1.194899503E+02  1.194899503E+02  0.000000000E+00  0.00000E+00  9.000E+00
      21    -1     0     0   501   502  0.000000000E+00  0.000000000E+00 -5.347867104E+02  5.347867104E+02  0.000000000E+00  0.00000E+00  9.000E+00
      25     1     1     2     0     0 -3.260625939E+00 -1.779404549E+02 -1.366283459E+02  2.568379685E+02  1.250000000E+02  0.00000E+00  9.000E+00
      25     1     1     2     0     0  3.875660110E+01  7.939998691E+01 -2.422294910E+02  2.865424198E+02  1.250000000E+02  0.00000E+00  9.000E+00
      21     1     1     2   511   502 -3.549597516E+01  9.854046800E+01 -3.643892327E+01  1.108962723E+02  1.907348633E-06  0.00000E+00  9.000E+00
#rwgt            1           1   3.0643476296557649E-002           1      293204           0
</event>
<event>
      5   9999  3.19816E-02  1.95794E+01 -1.00000E+00  1.67134E-01
      21    -1     0     0   502   501  0.000000000E+00  0.000000000E+00  1.512675832E+03  1.512675832E+03  0.000000000E+00  0.00000E+00  9.000E+00
      21    -1     0     0   501   512  0.000000000E+00  0.000000000E+00 -3.688376031E+01  3.688376031E+01  0.000000000E+00  0.00000E+00  9.000E+00
      25     1     1     2     0     0  6.228940176E+01 -7.850089691E+01  1.268771434E+03  1.278846477E+03  1.250000000E+02  0.00000E+00  9.000E+00
      25     1     1     2     0     0 -4.283614028E+01  8.072020657E+01  1.826064396E+02  2.394176235E+02  1.250000000E+02  0.00000E+00  9.000E+00
      21     1     1     2   502   512 -1.945326148E+01 -2.219309657E+00  2.441419730E+01  3.129549085E+01  0.000000000E+00  0.00000E+00  9.000E+00
#rwgt            1           1   4.1114266952838721E-002           1      293268           0
</event>
<event>
      5   9999  3.19816E-02  9.27914E+01 -1.00000E+00  1.25307E-01
      21    -1     0     0   502   501  0.000000000E+00  0.000000000E+00  4.215342004E+02  4.215342004E+02  0.000000000E+00  0.00000E+00  9.000E+00
      21    -1     0     0   511   502  0.000000000E+00  0.000000000E+00 -2.399329147E+03  2.399329147E+03  0.000000000E+00  0.00000E+00  9.000E+00
      25     1     1     2     0     0  9.060886971E+01 -6.008663790E+02 -1.128232965E+03  1.287549998E+03  1.250000000E+02  0.00000E+00  9.000E+00
      25     1     1     2     0     0 -8.152414272E+01  6.932120248E+02 -3.127625572E+01  7.097832778E+02  1.250000000E+02  0.00000E+00  9.000E+00
      21     1     1     2   511   501 -9.084726996E+00 -9.234564579E+01 -8.182857254E+02  8.235300717E+02  0.000000000E+00  0.00000E+00  9.000E+00
#rwgt            1           1   2.8245072451431742E-002           1      293389           0
</event>
<event>
      5   9999  3.19816E-02  6.73594E+01 -1.00000E+00  1.32072E-01
       2    -1     0     0   502     0  0.000000000E+00  0.000000000E+00  3.812468911E+03  3.812468911E+03  0.000000000E+00  0.00000E+00  9.000E+00
      21    -1     0     0   501   502  0.000000000E+00  0.000000000E+00 -1.078442832E+02  1.078442832E+02  0.000000000E+00  0.00000E+00  9.000E+00
      25     1     1     2     0     0 -1.584394368E+02  7.345490115E+01  9.397997307E+01  2.344267753E+02  1.250000000E+02  0.00000E+00  9.000E+00
      25     1     1     2     0     0  2.085958632E+02 -1.184174059E+02  4.535913408E+02  5.281145904E+02  1.250000000E+02  0.00000E+00  9.000E+00
       2     1     1     2   501     0 -5.015642641E+01  4.496250470E+01  3.157053314E+03  3.157771829E+03  4.315837288E-05  0.00000E+00  9.000E+00
#rwgt            1           1   2.9575454779463353E-002           1      293525           0
</event>
<event>
      5   9999  3.19816E-02  9.36326E+02 -1.00000E+00  9.16824E-02
       2    -1     0     0   502     0  0.000000000E+00  0.000000000E+00  2.060112337E+03  2.060112337E+03  0.000000000E+00  0.00000E+00  9.000E+00
      21    -1     0     0   501   502  0.000000000E+00  0.000000000E+00 -2.787056262E+03  2.787056262E+03  0.000000000E+00  0.00000E+00  9.000E+00
      25     1     1     2     0     0  1.038322478E+03  1.285506197E+03  1.030911519E+02  1.660389272E+03  1.250000000E+02  0.00000E+00  9.000E+00
      25     1     1     2     0     0 -4.729693380E+02 -5.391263617E+02 -1.736889984E+03  1.883286766E+03  1.250000000E+02  0.00000E+00  9.000E+00
       2     1     1     2   501     0 -5.653531402E+02 -7.463798350E+02  9.068549067E+02  1.303492560E+03  1.525878906E-05  0.00000E+00  9.000E+00
#rwgt            2          18   1.9826056051786963E-003           1      293874           0
</event>
<event>
      5   9999  3.19816E-02  1.41428E+02 -1.00000E+00  1.17415E-01
      21    -1     0     0   502   501  0.000000000E+00  0.000000000E+00  3.436989894E+02  3.436989894E+02  0.000000000E+00  0.00000E+00  9.000E+00
      21    -1     0     0   511   502  0.000000000E+00  0.000000000E+00 -4.835527828E+02  4.835527828E+02  0.000000000E+00  0.00000E+00  9.000E+00
      25     1     1     2     0     0 -6.508870266E+01 -2.457294865E+01 -7.900133311E+00  1.432751937E+02  1.250000000E+02  0.00000E+00  9.000E+00
      25     1     1     2     0     0  9.449045962E+01  1.629115075E+02  2.133548926E+02  3.108277923E+02  1.250000000E+02  0.00000E+00  9.000E+00
      21     1     1     2   511   501 -2.940175696E+01 -1.383385588E+02 -3.453085527E+02  3.731487863E+02  0.000000000E+00  0.00000E+00  9.000E+00
#rwgt            1           1   2.4874503913383080E-002           1      293953           0
</event>
<event>
      5   9999  3.19816E-02  1.47821E+02 -1.00000E+00  1.16646E-01
      21    -1     0     0   502   501  0.000000000E+00  0.000000000E+00  6.182848991E+02  6.182848991E+02  0.000000000E+00  0.00000E+00  9.000E+00
       2    -1     0     0   501     0  0.000000000E+00  0.000000000E+00 -1.019068017E+03  1.019068017E+03  0.000000000E+00  0.00000E+00  9.000E+00
      25     1     1     2     0     0  2.025169254E+01 -3.303045573E+02  5.160630032E+02  6.256654497E+02  1.250000000E+02  0.00000E+00  9.000E+00
      25     1     1     2     0     0 -1.064635940E+02  2.102270603E+02 -7.013511886E+02  7.503655132E+02  1.250000000E+02  0.00000E+00  9.000E+00
       2     1     1     2   502     0  8.621190147E+01  1.200774970E+02 -2.154949322E+02  2.613219528E+02  0.000000000E+00  0.00000E+00  9.000E+00
#rwgt            1           1   2.6154215615141793E-002           1      294048           0
</event>
<event>
      5   9999  3.19816E-02  4.65151E+02 -1.00000E+00  9.97516E-02
      21    -1     0     0   502   501  0.000000000E+00  0.000000000E+00  4.153467410E+02  4.153467410E+02  0.000000000E+00  0.00000E+00  9.000E+00
       2    -1     0     0   501     0  0.000000000E+00  0.000000000E+00 -1.619845278E+03  1.619845278E+03  0.000000000E+00  0.00000E+00  9.000E+00
      25     1     1     2     0     0  1.786303310E+02 -2.103237441E+02 -1.206957356E+03  1.244393801E+03  1.250000000E+02  0.00000E+00  9.000E+00
      25     1     1     2     0     0  2.699336557E+02  8.721616362E+01 -7.576058464E+01  3.191167558E+02  1.250000000E+02  0.00000E+00  9.000E+00
       2     1     1     2   502     0 -4.485639866E+02  1.231075805E+02  7.821940394E+01  4.716814621E+02  1.074736373E-05  0.00000E+00  9.000E+00
#rwgt            1           1   2.8212245141373927E-002           1      294158           0
</event>
<event>
      5   9999  3.19816E-02  2.07762E+01 -1.00000E+00  1.65016E-01
      21    -1     0     0   502   501  0.000000000E+00  0.000000000E+00  3.454550499E+02  3.454550499E+02  0.000000000E+00  0.00000E+00  9.000E+00
      21    -1     0     0   501   511  0.000000000E+00  0.000000000E+00 -5.174703077E+02  5.174703077E+02  0.000000000E+00  0.00000E+00  9.000E+00
      25     1     1     2     0     0 -9.154447979E+01  2.847643869E+02  1.148245897E+02  3.439198079E+02  1.250000000E+02  0.00000E+00  9.000E+00
      25     1     1     2     0     0  1.010547126E+02 -3.032361901E+02 -1.399303991E+02  3.706342652E+02  1.250000000E+02  0.00000E+00  9.000E+00
      21     1     1     2   502   511 -9.510232758E+00  1.847180323E+01 -1.469094484E+02  1.483712845E+02  0.000000000E+00  0.00000E+00  9.000E+00
#rwgt            1           1   2.7858470907501622E-002           1      294193           0
</event>
<event>
      5   9999  3.19816E-02  6.24839E+01 -1.00000E+00  1.33769E-01
      21    -1     0     0   502   512  0.000000000E+00  0.000000000E+00  7.101248904E+02  7.101248904E+02  0.000000000E+00  0.00000E+00  9.000E+00
      21    -1     0     0   501   502  0.000000000E+00  0.000000000E+00 -4.874550557E+02  4.874550557E+02  0.000000000E+00  0.00000E+00  9.000E+00
      25     1     1     2     0     0 -1.273469032E+01  7.425940521E+01  5.931574765E+02  6.108497553E+02  1.250000000E+02  0.00000E+00  9.000E+00
      25     1     1     2     0     0 -3.358662053E+01 -3.232408319E+01 -4.592196055E+02  4.782055557E+02  1.250000000E+02  0.00000E+00  9.000E+00
      21     1     1     2   501   512  4.632131085E+01 -4.193532202E+01  8.873196364E+01  1.085246352E+02  9.536743164E-07  0.00000E+00  9.000E+00
#rwgt            1           1   2.8608443441625844E-002           1      294394           0
</event>
<event>
      5   9999  3.19816E-02  9.55941E+01 -1.00000E+00  1.24715E-01
      21    -1     0     0   502   501  0.000000000E+00  0.000000000E+00  3.389448274E+02  3.389448274E+02  0.000000000E+00  0.00000E+00  9.000E+00
      21    -1     0     0   511   502  0.000000000E+00  0.000000000E+00 -5.671074099E+02  5.671074099E+02  0.000000000E+00  0.00000E+00  9.000E+00
      25     1     1     2     0     0 -6.693010681E+01  7.226443418E+01  2.664237336E+02  3.103359364E+02  1.250000000E+02  0.00000E+00  9.000E+00
      25     1     1     2     0     0  1.474722473E+02 -1.237542772E+02 -2.895961990E+02  3.695323305E+02  1.250000000E+02  0.00000E+00  9.000E+00
      21     1     1     2   511   501 -8.054214045E+01  5.148984304E+01 -2.049901171E+02  2.261839703E+02  3.814697266E-06  0.00000E+00  9.000E+00
#rwgt            1           1   2.8047028659777949E-002           1      294504           0
</event>
<event>
      5   9999  3.19816E-02  4.93848E+01 -1.00000E+00  1.39383E-01
      21    -1     0     0   512   501  0.000000000E+00  0.000000000E+00  1.470021934E+02  1.470021934E+02  0.000000000E+00  0.00000E+00  9.000E+00
      21    -1     0     0   501   502  0.000000000E+00  0.000000000E+00 -7.395180629E+02  7.395180629E+02  0.000000000E+00  0.00000E+00  9.000E+00
      25     1     1     2     0     0 -1.102266685E+02  4.793662609E+01 -3.149703597E+02  3.595541212E+02  1.250000000E+02  0.00000E+00  9.000E+00
      25     1     1     2     0     0  1.039768985E+02  1.051132022E+00 -3.799482795E+02  4.132771412E+02  1.250000000E+02  0.00000E+00  9.000E+00
      21     1     1     2   512   502  6.249769991E+00 -4.898775811E+01  1.024027698E+02  1.136889939E+02  1.907348633E-06  0.00000E+00  9.000E+00
#rwgt            1           1   3.2033435900710519E-002           1      294553           0
</event>
<event>
      5   9999  3.19816E-02  1.50224E+01 -1.00000E+00  1.77323E-01
      21    -1     0     0   502   501  0.000000000E+00  0.000000000E+00  1.444124106E+03  1.444124106E+03  0.000000000E+00  0.00000E+00  9.000E+00
      21    -1     0     0   511   502  0.000000000E+00  0.000000000E+00 -6.058372800E+01  6.058372800E+01  0.000000000E+00  0.00000E+00  9.000E+00
      25     1     1     2     0     0  1.260199214E+02 -8.965497723E+01  1.194261408E+03  1.210704071E+03  1.250000000E+02  0.00000E+00  9.000E+00
      25     1     1     2     0     0 -1.273288667E+02  1.046202207E+02  1.869402134E+02  2.788004201E+02  1.250000000E+02  0.00000E+00  9.000E+00
      21     1     1     2   511   501  1.308945265E+00 -1.496524347E+01  2.338755833E+00  1.520334268E+01  1.548574097E-07  0.00000E+00  9.000E+00
#rwgt            1           1   3.1759565209044043E-002           1      294595           0
</event>
<event>
      5   9999  3.19816E-02  8.73240E+01 -1.00000E+00  1.26535E-01
      21    -1     0     0   512   501  0.000000000E+00  0.000000000E+00  9.202158732E+02  9.202158732E+02  0.000000000E+00  0.00000E+00  9.000E+00
      21    -1     0     0   501   502  0.000000000E+00  0.000000000E+00 -4.593094507E+02  4.593094507E+02  0.000000000E+00  0.00000E+00  9.000E+00
      25     1     1     2     0     0 -4.168586534E+02 -3.818960736E+02 -2.430236925E+01  5.795095798E+02  1.250000000E+02  0.00000E+00  9.000E+00
      25     1     1     2     0     0  3.905543962E+02  2.986280352E+02  2.856302280E+02  5.821692769E+02  1.250000000E+02  0.00000E+00  9.000E+00
      21     1     1     2   512   502  2.630425717E+01  8.326803839E+01  1.995785637E+02  2.178464671E+02  2.697398305E-06  0.00000E+00  9.000E+00
#rwgt            1           1   2.6846634371979910E-002           1      294803           0
</event>
<event>
      5   9999  3.19816E-02  1.79995E+02 -1.00000E+00  1.13340E-01
      21    -1     0     0   502   511  0.000000000E+00  0.000000000E+00  2.416363761E+03  2.416363761E+03  0.000000000E+00  0.00000E+00  9.000E+00
      21    -1     0     0   501   502  0.000000000E+00  0.000000000E+00 -9.866193300E+02  9.866193300E+02  0.000000000E+00  0.00000E+00  9.000E+00
      25     1     1     2     0     0 -4.180713907E+01 -7.468715291E+02  1.456106013E+03  1.641777890E+03  1.250000000E+02  0.00000E+00  9.000E+00
      25     1     1     2     0     0  1.103379418E+02  9.133096388E+02 -6.361263735E+02  1.125429127E+03  1.250000000E+02  0.00000E+00  9.000E+00
      21     1     1     2   501   511 -6.853080272E+01 -1.664381096E+02  6.097647914E+02  6.357760739E+02  7.629394531E-06  0.00000E+00  9.000E+00
#rwgt            1           1   5.9890707373208805E-002           1      294888           0
</event>
<event>
      5   9999  3.19816E-02  2.30604E+02 -1.00000E+00  1.09442E-01
       1    -1     0     0   502     0  0.000000000E+00  0.000000000E+00  2.509179145E+02  2.509179145E+02  0.000000000E+00  0.00000E+00  9.000E+00
      21    -1     0     0   501   502  0.000000000E+00  0.000000000E+00 -1.610389253E+03  1.610389253E+03  0.000000000E+00  0.00000E+00  9.000E+00
      25     1     1     2     0     0  3.559307455E+02  1.427861413E+02 -1.167465757E+03  1.235182526E+03  1.250000000E+02  0.00000E+00  9.000E+00
      25     1     1     2     0     0 -1.990114052E+02  2.619526434E+01 -2.911761375E+02  3.751003524E+02  1.250000000E+02  0.00000E+00  9.000E+00
       1     1     1     2   501     0 -1.569193402E+02 -1.689814056E+02  9.917055603E+01  2.510242896E+02  4.046097457E-06  0.00000E+00  9.000E+00
#rwgt            1           1   2.8351914323601946E-002           1      294983           0
</event>
<event>
      5   9999  3.19816E-02  6.25664E+01 -1.00000E+00  1.33738E-01
      21    -1     0     0   511   501  0.000000000E+00  0.000000000E+00  6.849584595E+02  6.849584595E+02  0.000000000E+00  0.00000E+00  9.000E+00
      21    -1     0     0   501   502  0.000000000E+00  0.000000000E+00 -1.492208044E+03  1.492208044E+03  0.000000000E+00  0.00000E+00  9.000E+00
      25     1     1     2     0     0 -4.850784143E+01 -6.512489506E+01 -2.063933464E+02  2.545927652E+02  1.250000000E+02  0.00000E+00  9.000E+00
      25     1     1     2     0     0  5.582722702E+01  2.988053249E+00 -1.256506052E+03  1.263945437E+03  1.250000000E+02  0.00000E+00  9.000E+00
      21     1     1     2   511   502 -7.319385582E+00  6.213684181E+01  6.556498143E+02  6.586283015E+02  0.000000000E+00  0.00000E+00  9.000E+00
#rwgt            1           1   2.7748596456117776E-002           1      295012           0
</event>
<event>
      5   9999  3.19816E-02  7.66657E+01 -1.00000E+00  1.29251E-01
      21    -1     0     0   502   501  0.000000000E+00  0.000000000E+00  8.478678349E+02  8.478678349E+02  0.000000000E+00  0.00000E+00  9.000E+00
      21    -1     0     0   501   512  0.000000000E+00  0.000000000E+00 -2.838997000E+03  2.838997000E+03  0.000000000E+00  0.00000E+00  9.000E+00
      25     1     1     2     0     0 -3.441016332E+02  2.609919447E+02  7.624597751E+02  8.851511949E+02  1.250000000E+02  0.00000E+00  9.000E+00
      25     1     1     2     0     0  2.851978646E+02 -3.100630477E+02 -2.280263052E+03  2.322219090E+03  1.250000000E+02  0.00000E+00  9.000E+00
      21     1     1     2   502   512  5.890376861E+01  4.907110304E+01 -4.733258881E+02  4.794945500E+02  5.394796609E-06  0.00000E+00  9.000E+00
#rwgt            1           1   5.3048939580091152E-002           1      295108           0
</event>
<event>
      5   9999  3.19816E-02  2.96776E+02 -1.00000E+00  1.05745E-01
       1    -1     0     0   502     0  0.000000000E+00  0.000000000E+00  1.151932755E+03  1.151932755E+03  0.000000000E+00  0.00000E+00  9.000E+00
      21    -1     0     0   501   502  0.000000000E+00  0.000000000E+00 -2.214743502E+03  2.214743502E+03  0.000000000E+00  0.00000E+00  9.000E+00
      25     1     1     2     0     0  5.998927194E+02  1.928480053E+02 -9.438786630E+02  1.141750217E+03  1.250000000E+02  0.00000E+00  9.000E+00
      25     1     1     2     0     0 -3.090312782E+02 -1.338952592E+02 -1.122401991E+03  1.178490348E+03  1.250000000E+02  0.00000E+00  9.000E+00
       1     1     1     2   501     0 -2.908614412E+02 -5.895274607E+01  1.003469906E+03  1.046435692E+03  1.078959322E-05  0.00000E+00  9.000E+00
#rwgt            2          17   3.4325295379494477E-003           1      295274           0
</event>
<event>
      5   9999  3.19816E-02  2.85080E+01 -1.00000E+00  1.54595E-01
      21    -1     0     0   502   501  0.000000000E+00  0.000000000E+00  1.452558426E+02  1.452558426E+02  0.000000000E+00  0.00000E+00  9.000E+00
       1    -1     0     0   501     0  0.000000000E+00  0.000000000E+00 -2.201022352E+03  2.201022352E+03  0.000000000E+00  0.00000E+00  9.000E+00
      25     1     1     2     0     0 -6.747534986E+01 -2.994345988E+02 -9.489736417E+01  3.447383232E+02  1.250000000E+02  0.00000E+00  9.000E+00
      25     1     1     2     0     0  9.496741699E+01  3.069772041E+02 -1.472026223E+03  1.511866401E+03  1.250000000E+02  0.00000E+00  9.000E+00
       1     1     1     2   502     0 -2.749206712E+01 -7.542605290E+00 -4.888429220E+02  4.896734698E+02  5.394796609E-06  0.00000E+00  9.000E+00
#rwgt            2          12   1.3329082119246108E-004           1      295533           0
</event>
<event>
      5   9999  3.19816E-02  3.94787E+01 -1.00000E+00  1.45194E-01
      21    -1     0     0   502   501  0.000000000E+00  0.000000000E+00  1.778807458E+02  1.778807458E+02  0.000000000E+00  0.00000E+00  9.000E+00
      21    -1     0     0   501   511  0.000000000E+00  0.000000000E+00 -2.221880737E+03  2.221880737E+03  0.000000000E+00  0.00000E+00  9.000E+00
      25     1     1     2     0     0 -2.608142621E+02  4.499467119E+02 -7.260304868E+02  9.017878856E+02  1.250000000E+02  0.00000E+00  9.000E+00
      25     1     1     2     0     0  2.892428079E+02 -4.225536074E+02 -6.877026243E+02  8.664714955E+02  1.250000000E+02  0.00000E+00  9.000E+00
      21     1     1     2   502   511 -2.842854589E+01 -2.739310454E+01 -6.302668799E+02  6.315021016E+02  7.629394531E-06  0.00000E+00  9.000E+00
#rwgt            1           1   2.8513903923747756E-002           1      295567           0
</event>
<event>
      5   9999  3.19816E-02  8.52193E+00 -1.00000E+00  2.04145E-01
      21    -1     0     0   502   501  0.000000000E+00  0.000000000E+00  6.691821323E+02  6.691821323E+02  0.000000000E+00  0.00000E+00  9.000E+00
       2    -1     0     0   501     0  0.000000000E+00  0.000000000E+00 -1.291034093E+03  1.291034093E+03  0.000000000E+00  0.00000E+00  9.000E+00
      25     1     1     2     0     0  6.175465475E+01 -1.581915293E+02 -3.696996723E+02  4.256066787E+02  1.250000000E+02  0.00000E+00  9.000E+00
      25     1     1     2     0     0 -5.647017798E+01  1.515059008E+02  6.249230717E+02  6.574927867E+02  1.250000000E+02  0.00000E+00  9.000E+00
       2     1     1     2   502     0 -5.284476773E+00  6.685628492E+00 -8.770753599E+02  8.771167598E+02  0.000000000E+00  0.00000E+00  9.000E+00
#rwgt            1           1   2.6040242883293395E-002           1      295675           0
</event>
<event>
      5   9999  3.19816E-02  1.37367E+02 -1.00000E+00  1.17928E-01
      -4    -1     0     0     0   501  0.000000000E+00  0.000000000E+00  2.033353530E+02  2.033353530E+02  0.000000000E+00  0.00000E+00  9.000E+00
      21    -1     0     0   501   502  0.000000000E+00  0.000000000E+00 -9.804903535E+02  9.804903535E+02  0.000000000E+00  0.00000E+00  9.000E+00
      25     1     1     2     0     0 -1.093191371E+02 -4.907261382E+01 -1.311117404E+02  2.171959567E+02  1.250000000E+02  0.00000E+00  9.000E+00
      25     1     1     2     0     0  2.403163878E+02  9.041863314E+01 -7.446524085E+02  7.975335134E+02  1.250000000E+02  0.00000E+00  9.000E+00
      -4     1     1     2     0   502 -1.309972507E+02 -4.134601933E+01  9.860914842E+01  1.690962364E+02  4.473129043E-06  0.00000E+00  9.000E+00
#rwgt            1           1   2.8378609793630053E-002           1      295924           0
</event>
<event>
      5   9999  3.19816E-02  6.27845E+01 -1.00000E+00  1.33659E-01
      21    -1     0     0   502   501  0.000000000E+00  0.000000000E+00  6.631653170E+02  6.631653170E+02  0.000000000E+00  0.00000E+00  9.000E+00
      21    -1     0     0   511   502  0.000000000E+00  0.000000000E+00 -3.755170171E+02  3.755170171E+02  0.000000000E+00  0.00000E+00  9.000E+00
      25     1     1     2     0     0 -2.768398145E+02  2.366100023E+02 -1.550221993E+02  4.150680165E+02  1.250000000E+02  0.00000E+00  9.000E+00
      25     1     1     2     0     0  2.149853275E+02 -2.258434469E+02  4.487253777E+02  5.605385073E+02  1.250000000E+02  0.00000E+00  9.000E+00
      21     1     1     2   511   501  6.185448699E+01 -1.076655540E+01 -6.054878538E+00  6.307581019E+01  7.396741894E-07  0.00000E+00  9.000E+00
#rwgt            1           1   2.4432056506387485E-002           1      295969           0
</event>
<event>
      5   9999  3.19816E-02  2.40198E+01 -1.00000E+00  1.60063E-01
      21    -1     0     0   502   512  0.000000000E+00  0.000000000E+00  4.326997719E+02  4.326997719E+02  0.000000000E+00  0.00000E+00  9.000E+00
      21    -1     0     0   501   502  0.000000000E+00  0.000000000E+00 -1.247287717E+03  1.247287717E+03  0.000000000E+00  0.00000E+00  9.000E+00
      25     1     1     2     0     0  1.548801829E+02  4.718986580E+02 -1.006649364E+03  1.129444181E+03  1.250000000E+02  0.00000E+00  9.000E+00
      25     1     1     2     0     0 -1.372808447E+02 -4.555519413E+02  1.834733906E+02  5.250343671E+02  1.250000000E+02  0.00000E+00  9.000E+00
      21     1     1     2   501   512 -1.759933820E+01 -1.634671663E+01  8.588028480E+00  2.550894123E+01  1.192092896E-07  0.00000E+00  9.000E+00
#rwgt            1           1   3.2164054433167201E-002           1      296089           0
</event>
<event>
      5   9999  3.19816E-02  6.47473E+01 -1.00000E+00  1.32960E-01
       2    -1     0     0   502     0  0.000000000E+00  0.000000000E+00  1.277822062E+03  1.277822062E+03  0.000000000E+00  0.00000E+00  9.000E+00
      21    -1     0     0   501   502  0.000000000E+00  0.000000000E+00 -3.831736960E+02  3.831736960E+02  0.000000000E+00  0.00000E+00  9.000E+00
      25     1     1     2     0     0 -2.261245610E+02 -2.633705716E+02  1.420155830E+02  3.953350489E+02  1.250000000E+02  0.00000E+00  9.000E+00
      25     1     1     2     0     0  2.257917114E+02  1.986241443E+02 -1.515225038E+02  3.591900845E+02  1.250000000E+02  0.00000E+00  9.000E+00
       2     1     1     2   501     0  3.328495416E-01  6.474642729E+01  9.041552863E+02  9.064706241E+02  1.525878906E-05  0.00000E+00  9.000E+00
#rwgt            1           1   2.8548689239388528E-002           1      296330           0
</event>
<event>
      5   9999  3.19816E-02  2.15623E+02 -1.00000E+00  1.10472E-01
      21    -1     0     0   502   501  0.000000000E+00  0.000000000E+00  8.888923718E+02  8.888923718E+02  0.000000000E+00  0.00000E+00  9.000E+00
      21    -1     0     0   501   511  0.000000000E+00  0.000000000E+00 -8.679585215E+02  8.679585215E+02  0.000000000E+00  0.00000E+00  9.000E+00
      25     1     1     2     0     0  3.995688535E+02 -4.720912367E+02 -2.347646836E+02  6.732494791E+02  1.250000000E+02  0.00000E+00  9.000E+00
      25     1     1     2     0     0 -1.857174611E+02  4.996775539E+02  5.113353185E+02  7.491711694E+02  1.250000000E+02  0.00000E+00  9.000E+00
      21     1     1     2   502   511 -2.138513925E+02 -2.758631715E+01 -2.556367846E+02  3.344302447E+02  4.672030912E-06  0.00000E+00  9.000E+00
#rwgt            1           1   3.1280515782786511E-002           1      296427           0
</event>
<event>
      5   9999  3.19816E-02  5.41321E+01 -1.00000E+00  1.37136E-01
      21    -1     0     0   502   501  0.000000000E+00  0.000000000E+00  2.299961034E+02  2.299961034E+02  0.000000000E+00  0.00000E+00  9.000E+00
      21    -1     0     0   512   502  0.000000000E+00  0.000000000E+00 -1.687657547E+03  1.687657547E+03  0.000000000E+00  0.00000E+00  9.000E+00
      25     1     1     2     0     0  1.807720765E+01  2.886301512E+02 -7.201659301E+01  3.231803510E+02  1.250000000E+02  0.00000E+00  9.000E+00
      25     1     1     2     0     0  3.315197593E+01 -3.061187776E+02 -1.621186453E+02  3.697502057E+02  1.250000000E+02  0.00000E+00  9.000E+00
      21     1     1     2   512   501 -5.122918358E+01  1.748862637E+01 -1.223526206E+03  1.224723094E+03  2.642899792E-05  0.00000E+00  9.000E+00
#rwgt            1           1   2.9152065949314989E-002           1      296473           0
</event>
<event>
      5   9999  3.19816E-02  8.68587E+01 -1.00000E+00  1.26644E-01
      21    -1     0     0   502   511  0.000000000E+00  0.000000000E+00  2.272450282E+02  2.272450282E+02  0.000000000E+00  0.00000E+00  9.000E+00
      21    -1     0     0   501   502  0.000000000E+00  0.000000000E+00 -1.720772941E+03  1.720772941E+03  0.000000000E+00  0.00000E+00  9.000E+00
      25     1     1     2     0     0  1.836681168E+02 -1.221791002E+02 -7.631607699E+00  2.536630661E+02  1.250000000E+02  0.00000E+00  9.000E+00
      25     1     1     2     0     0 -1.015892732E+02  9.376273783E+01 -1.565488649E+03  1.576544176E+03  1.250000000E+02  0.00000E+00  9.000E+00
      21     1     1     2   501   511 -8.207884368E+01  2.841636239E+01  7.959234333E+01  1.178107268E+02  2.523185073E-06  0.00000E+00  9.000E+00
#rwgt            1           1   3.4220543755707954E-002           1      296593           0
</event>
<event>
      5   9999  3.19816E-02  1.50122E+01 -1.00000E+00  1.77350E-01
      21    -1     0     0   502   512  0.000000000E+00  0.000000000E+00  5.641015179E+01  5.641015179E+01  0.000000000E+00  0.00000E+00  9.000E+00
      21    -1     0     0   501   502  0.000000000E+00  0.000000000E+00 -1.924050447E+03  1.924050447E+03  0.000000000E+00  0.00000E+00  9.000E+00
      25     1     1     2     0     0 -1.211523034E+02  1.580894072E+02 -1.539400677E+03  1.557257071E+03  1.250000000E+02  0.00000E+00  9.000E+00
      25     1     1     2     0     0  1.347058864E+02 -1.645443189E+02 -3.247187722E+02  4.077839989E+02  1.250000000E+02  0.00000E+00  9.000E+00
      21     1     1     2   501   512 -1.355358304E+01  6.454911755E+00 -3.520845509E+00  1.541952827E+01  4.042583694E-07  0.00000E+00  9.000E+00
#rwgt            1           1   3.2092001867810173E-002           1      296707           0
</event>
<event>
      5   9999  3.19816E-02  3.40010E+01 -1.00000E+00  1.49357E-01
      21    -1     0     0   502   501  0.000000000E+00  0.000000000E+00  7.869957247E+02  7.869957247E+02  0.000000000E+00  0.00000E+00  9.000E+00
      21    -1     0     0   501   511  0.000000000E+00  0.000000000E+00 -5.345238914E+01  5.345238914E+01  0.000000000E+00  0.00000E+00  9.000E+00
      25     1     1     2     0     0 -1.410546285E+01  1.519193575E+02  3.109241828E+02  3.682082328E+02  1.250000000E+02  0.00000E+00  9.000E+00
      25     1     1     2     0     0  2.785706158E+01 -1.208233394E+02  3.670611366E+02  4.071033938E+02  1.250000000E+02  0.00000E+00  9.000E+00
      21     1     1     2   502   511 -1.375159874E+01 -3.109601809E+01  5.555801611E+01  6.513648719E+01  1.168007728E-06  0.00000E+00  9.000E+00
#rwgt            1           1   3.0706272040100114E-002           1      296837           0
</event>
<event>
      5   9999  3.19816E-02  1.09328E+02 -1.00000E+00  1.22111E-01
      21    -1     0     0   502   501  0.000000000E+00  0.000000000E+00  9.959980310E+02  9.959980310E+02  0.000000000E+00  0.00000E+00  9.000E+00
      21    -1     0     0   512   502  0.000000000E+00  0.000000000E+00 -3.347245217E+02  3.347245217E+02  0.000000000E+00  0.00000E+00  9.000E+00
      25     1     1     2     0     0 -2.067715459E+02  1.285636673E+02  2.419350620E+02  3.652953093E+02  1.250000000E+02  0.00000E+00  9.000E+00
      25     1     1     2     0     0  2.930297942E+02 -6.139085349E+01  6.409109199E+02  7.183502658E+02  1.250000000E+02  0.00000E+00  9.000E+00
      21     1     1     2   512   501 -8.625824825E+01 -6.717281379E+01 -2.215724726E+02  2.470769777E+02  6.031565972E-06  0.00000E+00  9.000E+00
#rwgt            1           1   2.5948064398338962E-002           1      296912           0
</event>
<event>
      5   9999  3.19816E-02  3.37620E+01 -1.00000E+00  1.49560E-01
      21    -1     0     0   511   501  0.000000000E+00  0.000000000E+00  7.616288788E+02  7.616288788E+02  0.000000000E+00  0.00000E+00  9.000E+00
      21    -1     0     0   501   502  0.000000000E+00  0.000000000E+00 -1.153710093E+02  1.153710093E+02  0.000000000E+00  0.00000E+00  9.000E+00
      25     1     1     2     0     0  1.255956878E+02 -9.269593056E+01  5.614914436E+02  5.960406476E+02  1.250000000E+02  0.00000E+00  9.000E+00
      25     1     1     2     0     0 -9.212499499E+01  9.712134195E+01 -6.891072129E+00  1.832813592E+02  1.250000000E+02  0.00000E+00  9.000E+00
      21     1     1     2   511   502 -3.347069286E+01 -4.425411385E+00  9.165749804E+01  9.767788129E+01  1.348699152E-06  0.00000E+00  9.000E+00
#rwgt            1           1   3.2688617526580518E-002           1      297001           0
</event>
<event>
      5   9999  3.19816E-02  1.35724E+02 -1.00000E+00  1.18141E-01
      -2    -1     0     0     0   501  0.000000000E+00  0.000000000E+00  8.558286950E+02  8.558286950E+02  0.000000000E+00  0.00000E+00  9.000E+00
      21    -1     0     0   501   502  0.000000000E+00  0.000000000E+00 -2.982405746E+02  2.982405746E+02  0.000000000E+00  0.00000E+00  9.000E+00
      25     1     1     2     0     0  4.115638543E+02 -3.508247342E+01  2.590052774E+02  5.033133416E+02  1.250000000E+02  0.00000E+00  9.000E+00
      25     1     1     2     0     0 -3.756227406E+02  1.659616792E+02  2.829778298E+02  5.141373108E+02  1.250000000E+02  0.00000E+00  9.000E+00
      -2     1     1     2     0   502 -3.594111374E+01 -1.308792057E+02  1.560501317E+01  1.366186173E+02  1.400392070E-06  0.00000E+00  9.000E+00
#rwgt            1           1   2.6306501011596213E-002           1      297119           0
</event>
<event>
      5   9999  3.19816E-02  3.21748E+01 -1.00000E+00  1.50958E-01
      21    -1     0     0   511   501  0.000000000E+00  0.000000000E+00  4.773279879E+02  4.773279879E+02  0.000000000E+00  0.00000E+00  9.000E+00
      21    -1     0     0   501   502  0.000000000E+00  0.000000000E+00 -1.335313556E+03  1.335313556E+03  0.000000000E+00  0.00000E+00  9.000E+00
      25     1     1     2     0     0 -4.029329508E+02 -4.021527292E+02 -1.605895521E+02  6.045624738E+02  1.250000000E+02  0.00000E+00  9.000E+00
      25     1     1     2     0     0  4.224227475E+02  4.277528004E+02 -8.519731602E+02  1.050188888E+03  1.250000000E+02  0.00000E+00  9.000E+00
      21     1     1     2   511   502 -1.948979664E+01 -2.560007117E+01  1.545771444E+02  1.578901814E+02  2.697398305E-06  0.00000E+00  9.000E+00
#rwgt            1           1   2.4124772048343845E-002           1      297160           0
</event>
<event>
      5   9999  3.19816E-02  5.16737E+02 -1.00000E+00  9.84475E-02
      21    -1     0     0   502   501  0.000000000E+00  0.000000000E+00  3.624135084E+02  3.624135084E+02  0.000000000E+00  0.00000E+00  9.000E+00
       2    -1     0     0   501     0  0.000000000E+00  0.000000000E+00 -3.860196034E+03  3.860196034E+03  0.000000000E+00  0.00000E+00  9.000E+00
      25     1     1     2     0     0  4.101179225E+02 -4.236716656E+02  2.172332336E+01  6.031511365E+02  1.250000000E+02  0.00000E+00  9.000E+00
      25     1     1     2     0     0 -2.268860036E+02 -5.948799424E+01 -6.246300071E+02  6.788252543E+02  1.250000000E+02  0.00000E+00  9.000E+00
       2     1     1     2   502     0 -1.832319190E+02  4.831596599E+02 -2.894875842E+03  2.940633152E+03  0.000000000E+00  0.00000E+00  9.000E+00
#rwgt            2          13   9.4467633621605563E-004           1      297355           0
</event>
<event>
      5   9999  3.19816E-02  7.08048E+01 -1.00000E+00  1.30970E-01
      -2    -1     0     0     0   501  0.000000000E+00  0.000000000E+00  3.132004537E+02  3.132004537E+02  0.000000000E+00  0.00000E+00  9.000E+00
      21    -1     0     0   501   502  0.000000000E+00  0.000000000E+00 -5.115443973E+02  5.115443973E+02  0.000000000E+00  0.00000E+00  9.000E+00
      25     1     1     2     0     0  1.438546915E+02 -7.680426102E+01 -1.587619046E+02  2.596601801E+02  1.250000000E+02  0.00000E+00  9.000E+00
      25     1     1     2     0     0 -1.441485312E+02  6.000051873E+00 -2.662525422E+02  3.276129055E+02  1.250000000E+02  0.00000E+00  9.000E+00
      -2     1     1     2     0   502  2.938397409E-01  7.080420915E+01  2.266705031E+02  2.374717654E+02  2.697398305E-06  0.00000E+00  9.000E+00
#rwgt            1           1   2.6954946360066779E-002           1      297374           0
</event>
<event>
      5   9999  3.19816E-02  1.27833E+02 -1.00000E+00  1.19214E-01
      21    -1     0     0   502   501  0.000000000E+00  0.000000000E+00  1.006759571E+03  1.006759571E+03  0.000000000E+00  0.00000E+00  9.000E+00
      21    -1     0     0   511   502  0.000000000E+00  0.000000000E+00 -1.072004377E+03  1.072004377E+03  0.000000000E+00  0.00000E+00  9.000E+00
      25     1     1     2     0     0  7.540719356E+02 -3.930907738E+02  3.492753009E+02  9.277731816E+02  1.250000000E+02  0.00000E+00  9.000E+00
      25     1     1     2     0     0 -8.089558617E+02  2.776398211E+02 -1.785342039E+02  8.826057548E+02  1.250000000E+02  0.00000E+00  9.000E+00
      21     1     1     2   511   501  5.488392602E+01  1.154509526E+02 -2.359859029E+02  2.683850111E+02  6.031565972E-06  0.00000E+00  9.000E+00
#rwgt            1           1   3.3700057424528619E-002           1      297537           0
</event>
<event>
      5   9999  3.19816E-02  2.09756E+01 -1.00000E+00  1.64680E-01
      21    -1     0     0   502   501  0.000000000E+00  0.000000000E+00  2.297494069E+02  2.297494069E+02  0.000000000E+00  0.00000E+00  9.000E+00
       4    -1     0     0   501     0  0.000000000E+00  0.000000000E+00 -2.311468995E+02  2.311468995E+02  0.000000000E+00  0.00000E+00  9.000E+00
      25     1     1     2     0     0 -1.491591141E+02 -2.374183027E+01  9.519711983E+01  2.179440466E+02  1.250000000E+02  0.00000E+00  9.000E+00
      25     1     1     2     0     0  1.309315786E+02  3.412126050E+01 -4.850386870E+01  1.904861254E+02  1.250000000E+02  0.00000E+00  9.000E+00
       4     1     1     2   502     0  1.822753543E+01 -1.037943022E+01 -4.809074375E+01  5.246613435E+01  6.743495762E-07  0.00000E+00  9.000E+00
#rwgt            1           1   2.4925934733217497E-002           1      297663           0
</event>
<event>
      5   9999  3.19816E-02  1.09404E+02 -1.00000E+00  1.22097E-01
      21    -1     0     0   502   501  0.000000000E+00  0.000000000E+00  2.123804156E+02  2.123804156E+02  0.000000000E+00  0.00000E+00  9.000E+00
       2    -1     0     0   501     0  0.000000000E+00  0.000000000E+00 -3.931668853E+03  3.931668853E+03  0.000000000E+00  0.00000E+00  9.000E+00
      25     1     1     2     0     0  7.111380224E+02  1.193414713E+02 -1.994625309E+03  2.124644629E+03  1.250000000E+02  0.00000E+00  9.000E+00
      25     1     1     2     0     0 -7.463448345E+02 -2.229254094E+02 -1.738510559E+03  1.909128155E+03  1.250000000E+02  0.00000E+00  9.000E+00
       2     1     1     2   502     0  3.520681214E+01  1.035839381E+02  1.384743012E+01  1.102764852E+02  2.890671647E-06  0.00000E+00  9.000E+00
#rwgt            2          13   3.3584025574238637E-004           1      297921           0
</event>
<event>
      5   9999  3.19816E-02  6.44502E+01 -1.00000E+00  1.33064E-01
      21    -1     0     0   502   501  0.000000000E+00  0.000000000E+00  2.516502042E+02  2.516502042E+02  0.000000000E+00  0.00000E+00  9.000E+00
       2    -1     0     0   501     0  0.000000000E+00  0.000000000E+00 -1.115373623E+03  1.115373623E+03  0.000000000E+00  0.00000E+00  9.000E+00
      25     1     1     2     0     0  2.199840176E+02 -2.092409688E+02 -7.009148926E+02  7.740035127E+02  1.250000000E+02  0.00000E+00  9.000E+00
      25     1     1     2     0     0 -2.557022855E+02  2.628883351E+02  3.108395112E+01  3.886967295E+02  1.250000000E+02  0.00000E+00  9.000E+00
       2     1     1     2   502     0  3.571826784E+01 -5.364736638E+01 -1.938924776E+02  2.043235851E+02  0.000000000E+00  0.00000E+00  9.000E+00
#rwgt            1           1   3.2113759116289491E-002           1      297955           0
</event>
<event>
      5   9999  3.19816E-02  1.10343E+02 -1.00000E+00  1.21935E-01
      21    -1     0     0   511   501  0.000000000E+00  0.000000000E+00  3.622752020E+02  3.622752020E+02  0.000000000E+00  0.00000E+00  9.000E+00
      21    -1     0     0   501   502  0.000000000E+00  0.000000000E+00 -2.459087348E+02  2.459087348E+02  0.000000000E+00  0.00000E+00  9.000E+00
      25     1     1     2     0     0  3.388675835E+01 -7.491063660E+01  7.689816956E+01  1.682208202E+02  1.250000000E+02  0.00000E+00  9.000E+00
      25     1     1     2     0     0  6.274653886E+01  2.164134041E+01 -1.590112902E+02  2.128733571E+02  1.250000000E+02  0.00000E+00  9.000E+00
      21     1     1     2   511   502 -9.663329721E+01  5.326929619E+01  1.984795879E+02  2.270897595E+02  0.000000000E+00  0.00000E+00  9.000E+00
#rwgt            1           1   2.6363985595252128E-002           1      298034           0
</event>
<event>
      5   9999  3.19816E-02  2.03521E+01 -1.00000E+00  1.65746E-01
      21    -1     0     0   502   512  0.000000000E+00  0.000000000E+00  5.741759403E+02  5.741759403E+02  0.000000000E+00  0.00000E+00  9.000E+00
      21    -1     0     0   501   502  0.000000000E+00  0.000000000E+00 -4.583781956E+02  4.583781956E+02  0.000000000E+00  0.00000E+00  9.000E+00
      25     1     1     2     0     0 -2.118029732E+02  2.933413643E+02  1.328044705E+02  4.051810495E+02  1.250000000E+02  0.00000E+00  9.000E+00
      25     1     1     2     0     0  2.276455265E+02 -3.061171136E+02 -1.963438279E+02  4.468848529E+02  1.250000000E+02  0.00000E+00  9.000E+00
      21     1     1     2   501   512 -1.584255326E+01  1.277574931E+01  1.793371021E+02  1.804882336E+02  3.814697266E-06  0.00000E+00  9.000E+00
#rwgt            1           1   3.2199918513674576E-002           1      298066           0
</event>
<event>
      5   9999  3.19816E-02  5.13165E+01 -1.00000E+00  1.38435E-01
      21    -1     0     0   502   501  0.000000000E+00  0.000000000E+00  1.957097906E+02  1.957097906E+02  0.000000000E+00  0.00000E+00  9.000E+00
      21    -1     0     0   511   502  0.000000000E+00  0.000000000E+00 -2.399385967E+03  2.399385967E+03  0.000000000E+00  0.00000E+00  9.000E+00
      25     1     1     2     0     0  3.312602567E+02  2.000679272E+02 -1.408316021E+03  1.465857956E+03  1.250000000E+02  0.00000E+00  9.000E+00
      25     1     1     2     0     0 -3.031557019E+02 -1.571317677E+02 -3.295690417E+01  3.651094761E+02  1.250000000E+02  0.00000E+00  9.000E+00
      21     1     1     2   511   501 -2.810455484E+01 -4.293615948E+01 -7.624032513E+02  7.641283252E+02  1.525878906E-05  0.00000E+00  9.000E+00
#rwgt            1           1   2.8081289403961335E-002           1      298262           0
</event>
<event>
      5   9999  3.19816E-02  2.20707E+02 -1.00000E+00  1.10112E-01
       2    -1     0     0   502     0  0.000000000E+00  0.000000000E+00  4.276869660E+03  4.276869660E+03  0.000000000E+00  0.00000E+00  9.000E+00
      21    -1     0     0   501   502  0.000000000E+00  0.000000000E+00 -7.456641045E+01  7.456641045E+01  0.000000000E+00  0.00000E+00  9.000E+00
      25     1     1     2     0     0  5.667818921E+01 -1.349227062E+02  1.233232405E+03  1.248160133E+03  1.250000000E+02  0.00000E+00  9.000E+00
      25     1     1     2     0     0 -2.020149546E+02  3.010215538E+02  5.296683304E+02  6.539094417E+02  1.250000000E+02  0.00000E+00  9.000E+00
       2     1     1     2   501     0  1.453367654E+02 -1.660988476E+02  2.439402515E+03  2.449366496E+03  0.000000000E+00  0.00000E+00  9.000E+00
#rwgt            2          18   7.0561036358442750E-004           1      298449           0
</event>
<event>
      5   9999  3.19816E-02  5.11793E+01 -1.00000E+00  1.38500E-01
      21    -1     0     0   502   501  0.000000000E+00  0.000000000E+00  3.098377666E+02  3.098377666E+02  0.000000000E+00  0.00000E+00  9.000E+00
      21    -1     0     0   511   502  0.000000000E+00  0.000000000E+00 -1.345202513E+03  1.345202513E+03  0.000000000E+00  0.00000E+00  9.000E+00
      25     1     1     2     0     0 -1.195156705E+02  5.758230503E+02 -6.377397684E+02  8.764663102E+02  1.250000000E+02  0.00000E+00  9.000E+00
      25     1     1     2     0     0  1.568112840E+02 -5.407750560E+02 -2.617431672E+02  6.333734487E+02  1.250000000E+02  0.00000E+00  9.000E+00
      21     1     1     2   511   501 -3.729561346E+01 -3.504799432E+01 -1.358818105E+02  1.452005204E+02  1.907348633E-06  0.00000E+00  9.000E+00
#rwgt            1           1   2.9192899038758109E-002           1      298468           0
</event>
<event>
      5   9999  3.19816E-02  5.55455E+02 -1.00000E+00  9.75714E-02
       3    -1     0     0   502     0  0.000000000E+00  0.000000000E+00  1.773348664E+03  1.773348664E+03  0.000000000E+00  0.00000E+00  9.000E+00
      21    -1     0     0   501   502  0.000000000E+00  0.000000000E+00 -8.642323733E+02  8.642323733E+02  0.000000000E+00  0.00000E+00  9.000E+00
      25     1     1     2     0     0 -2.247924742E+01 -3.201336636E+02  1.450594582E+02  3.737086105E+02  1.250000000E+02  0.00000E+00  9.000E+00
      25     1     1     2     0     0 -3.945579956E+02 -4.675895057E+01 -6.345293936E+02  7.590223730E+02  1.250000000E+02  0.00000E+00  9.000E+00
       3     1     1     2   501     0  4.170372430E+02  3.668926142E+02  1.398586226E+03  1.504850054E+03  2.157918644E-05  0.00000E+00  9.000E+00
#rwgt            2          19   6.8577533850789602E-005           1      298683           0
</event>
<event>
      5   9999  3.19816E-02  2.61189E+02 -1.00000E+00  1.07585E-01
      21    -1     0     0   502   501  0.000000000E+00  0.000000000E+00  7.220720700E+02  7.220720700E+02  0.000000000E+00  0.00000E+00  9.000E+00
       2    -1     0     0   501     0  0.000000000E+00  0.000000000E+00 -1.442643438E+03  1.442643438E+03  0.000000000E+00  0.00000E+00  9.000E+00
      25     1     1     2     0     0  2.439360041E+01 -5.972023469E+02  4.568445153E+02  7.626123538E+02  1.250000000E+02  0.00000E+00  9.000E+00
      25     1     1     2     0     0 -1.426578855E+02  3.643225388E+02 -3.676185013E+02  5.512264027E+02  1.250000000E+02  0.00000E+00  9.000E+00
       2     1     1     2   502     0  1.182642851E+02  2.328798081E+02 -8.097973821E+02  8.508767515E+02  1.078959322E-05  0.00000E+00  9.000E+00
#rwgt            2          13   1.7296914803094617E-003           1      298747           0
</event>
<event>
      5   9999  3.19816E-02  3.56424E+01 -1.00000E+00  1.48017E-01
      21    -1     0     0   511   501  0.000000000E+00  0.000000000E+00  3.849523622E+01  3.849523622E+01  0.000000000E+00  0.00000E+00  9.000E+00
      21    -1     0     0   501   502  0.000000000E+00  0.000000000E+00 -2.142657045E+03  2.142657045E+03  0.000000000E+00  0.00000E+00  9.000E+00
      25     1     1     2     0     0  3.679441021E+01  1.648550899E+02 -4.083085289E+02  4.592078876E+02  1.250000000E+02  0.00000E+00  9.000E+00
      25     1     1     2     0     0 -2.807570875E+01 -1.302954663E+02 -1.664422650E+03  1.674423158E+03  1.250000000E+02  0.00000E+00  9.000E+00
      21     1     1     2   511   502 -8.718701458E+00 -3.455962360E+01 -3.143062974E+01  4.752123551E+01  1.469710828E-06  0.00000E+00  9.000E+00
#rwgt            1           1   7.4128137008231371E-002           1      298781           0
</event>
<event>
      5   9999  3.19816E-02  1.13886E+02 -1.00000E+00  1.21340E-01
      21    -1     0     0   502   501  0.000000000E+00  0.000000000E+00  3.444951627E+02  3.444951627E+02  0.000000000E+00  0.00000E+00  9.000E+00
      21    -1     0     0   501   512  0.000000000E+00  0.000000000E+00 -9.534578718E+02  9.534578718E+02  0.000000000E+00  0.00000E+00  9.000E+00
      25     1     1     2     0     0 -1.069480759E+02  8.983586921E+01 -1.960324056E+02  2.712232998E+02  1.250000000E+02  0.00000E+00  9.000E+00
      25     1     1     2     0     0 -5.256646705E+00 -7.033634545E+01  2.852492248E+02  3.193226489E+02  1.250000000E+02  0.00000E+00  9.000E+00
      21     1     1     2   502   512  1.122047226E+02 -1.949952376E+01 -6.981795283E+02  7.074070858E+02  0.000000000E+00  0.00000E+00  9.000E+00
#rwgt            1           1   2.6329301283000778E-002           1      298845           0
</event>
<event>
      5   9999  3.19816E-02  3.99597E+01 -1.00000E+00  1.44867E-01
      21    -1     0     0   502   511  0.000000000E+00  0.000000000E+00  6.108104174E+01  6.108104174E+01  0.000000000E+00  0.00000E+00  9.000E+00
      21    -1     0     0   501   502  0.000000000E+00  0.000000000E+00 -8.456870587E+02  8.456870587E+02  0.000000000E+00  0.00000E+00  9.000E+00
      25     1     1     2     0     0 -3.046826939E+01  8.862592615E+01 -4.372970643E+02  4.643668729E+02  1.250000000E+02  0.00000E+00  9.000E+00
      25     1     1     2     0     0 -8.861691810E+00 -8.155959782E+01 -3.681352700E+02  3.973399988E+02  1.250000000E+02  0.00000E+00  9.000E+00
      21     1     1     2   501   511  3.932996120E+01 -7.066328327E+00  2.082631735E+01  4.506122877E+01  6.307962682E-07  0.00000E+00  9.000E+00
#rwgt            2          11   2.1180710567291192E-003           1      299029           0
</event>
<event>
      5   9999  3.19816E-02  9.92548E+01 -1.00000E+00  1.23974E-01
      21    -1     0     0   512   501  0.000000000E+00  0.000000000E+00  4.070714454E+02  4.070714454E+02  0.000000000E+00  0.00000E+00  9.000E+00
      21    -1     0     0   501   502  0.000000000E+00  0.000000000E+00 -9.906607749E+02  9.906607749E+02  0.000000000E+00  0.00000E+00  9.000E+00
      25     1     1     2     0     0  1.948908828E+02  2.279222395E+02 -7.800355857E+02  8.449920227E+02  1.250000000E+02  0.00000E+00  9.000E+00
      25     1     1     2     0     0 -2.778211517E+02 -2.824573866E+02  1.391018233E+02  4.381108134E+02  1.250000000E+02  0.00000E+00  9.000E+00
      21     1     1     2   512   502  8.293026882E+01  5.453514710E+01  5.734443291E+01  1.146293843E+02  2.697398305E-06  0.00000E+00  9.000E+00
#rwgt            1           1   2.4670965474401646E-002           1      299049           0
</event>
<event>
      5   9999  3.19816E-02  9.70086E+00 -1.00000E+00  1.97294E-01
      21    -1     0     0   502   511  0.000000000E+00  0.000000000E+00  8.580459897E+02  8.580459897E+02  0.000000000E+00  0.00000E+00  9.000E+00
      21    -1     0     0   501   502  0.000000000E+00  0.000000000E+00 -5.716475286E+02  5.716475286E+02  0.000000000E+00  0.00000E+00  9.000E+00
      25     1     1     2     0     0  5.119836850E+02 -2.309921884E+02  3.486278113E+02  6.727934568E+02  1.250000000E+02  0.00000E+00  9.000E+00
      25     1     1     2     0     0 -5.212381103E+02  2.339012069E+02 -2.005353315E+02  6.182542854E+02  1.250000000E+02  0.00000E+00  9.000E+00
      21     1     1     2   501   511  9.254425299E+00 -2.909018558E+00  1.383059812E+02  1.386457761E+02  1.907348633E-06  0.00000E+00  9.000E+00
#rwgt            1           1   2.8957102637241459E-002           1      299110           0
</event>
<event>
      5   9999  3.19816E-02  1.40517E+01 -1.00000E+00  1.80098E-01
      21    -1     0     0   502   501  0.000000000E+00  0.000000000E+00  1.046774713E+03  1.046774713E+03  0.000000000E+00  0.00000E+00  9.000E+00
      21    -1     0     0   512   502  0.000000000E+00  0.000000000E+00 -1.175254812E+02  1.175254812E+02  0.000000000E+00  0.00000E+00  9.000E+00
      25     1     1     2     0     0  1.097343370E+02 -1.276810661E+02  2.907492165E+01  2.116941908E+02  1.250000000E+02  0.00000E+00  9.000E+00
      25     1     1     2     0     0 -1.152287393E+02  1.406140027E+02  9.094110978E+02  9.357903104E+02  1.250000000E+02  0.00000E+00  9.000E+00
      21     1     1     2   512   501  5.494402359E+00 -1.293293657E+01 -9.236787296E+00  1.681569342E+01  4.460403188E-07  0.00000E+00  9.000E+00
#rwgt            1           1   2.7495008710342366E-002           1      299416           0
</event>
<event>
      5   9999  3.19816E-02  6.59186E+01 -1.00000E+00  1.32556E-01
       2    -1     0     0   502     0  0.000000000E+00  0.000000000E+00  9.495485763E+02  9.495485763E+02  0.000000000E+00  0.00000E+00  9.000E+00
      21    -1     0     0   501   502  0.000000000E+00  0.000000000E+00 -1.526668649E+02  1.526668649E+02  0.000000000E+00  0.00000E+00  9.000E+00
      25     1     1     2     0     0 -7.932862399E+00 -1.241217708E+02  1.692898493E+01  1.771460833E+02  1.250000000E+02  0.00000E+00  9.000E+00
      25     1     1     2     0     0 -5.199846023E+01  9.667177601E+01  2.616037910E+01  1.684002303E+02  1.250000000E+02  0.00000E+00  9.000E+00
       2     1     1     2   501     0  5.993132263E+01  2.744999482E+01  7.537923473E+02  7.566691275E+02  1.078959322E-05  0.00000E+00  9.000E+00
#rwgt            1           1   2.5891302297188411E-002           1      299675           0
</event>
<event>
      5   9999  3.19816E-02  8.84620E+01 -1.00000E+00  1.26271E-01
       2    -1     0     0   502     0  0.000000000E+00  0.000000000E+00  7.762170544E+02  7.762170544E+02  0.000000000E+00  0.00000E+00  9.000E+00
      21    -1     0     0   501   502  0.000000000E+00  0.000000000E+00 -2.497443142E+02  2.497443142E+02  0.000000000E+00  0.00000E+00  9.000E+00
      25     1     1     2     0     0 -3.223039245E+02 -6.762813706E+01  2.686042108E+02  4.429747247E+02  1.250000000E+02  0.00000E+00  9.000E+00
      25     1     1     2     0     0  2.408637081E+02  3.308800041E+01 -3.632577118E+01  2.757801721E+02  1.250000000E+02  0.00000E+00  9.000E+00
       2     1     1     2   501     0  8.144021636E+01  3.454013665E+01  2.941943005E+02  3.072064719E+02  3.814697266E-06  0.00000E+00  9.000E+00
#rwgt            1           1   2.6813752318198172E-002           1      299734           0
</event>
<event>
      5   9999  3.68555E-02  1.31926E+02 -1.00000E+00  1.18647E-01
      21    -1     0     0   502   501  0.000000000E+00  0.000000000E+00  1.828983721E+02  1.828983721E+02  0.000000000E+00  0.00000E+00  9.000E+00
      21    -1     0     0   511   502  0.000000000E+00  0.000000000E+00 -6.467173972E+02  6.467173972E+02  0.000000000E+00  0.00000E+00  9.000E+00
      25     1     1     2     0     0  1.205581129E+02  9.961028882E+01 -4.922674056E+01  2.061667777E+02  1.250000000E+02  0.00000E+00  9.000E+00
      25     1     1     2     0     0 -2.627097789E+01 -7.337331823E+00  5.234310261E+01  1.382345872E+02  1.250000000E+02  0.00000E+00  9.000E+00
      21     1     1     2   511   501 -9.428713502E+01 -9.227295700E+01 -4.669353871E+02  4.852144043E+02  9.344061824E-06  0.00000E+00  9.000E+00
#rwgt            1           1   9.1539134337355874E-002           1      299815           0
</event>
<event>
      5   9999  3.19816E-02  6.32807E+01 -1.00000E+00  1.33479E-01
      21    -1     0     0   502   501  0.000000000E+00  0.000000000E+00  2.633777663E+03  2.633777663E+03  0.000000000E+00  0.00000E+00  9.000E+00
      -2    -1     0     0     0   502  0.000000000E+00  0.000000000E+00 -5.747041118E+02  5.747041118E+02  0.000000000E+00  0.00000E+00  9.000E+00
      25     1     1     2     0     0 -1.342216859E+02  2.428900959E+02  1.308400214E+03  1.343334352E+03  1.250000000E+02  0.00000E+00  9.000E+00
      25     1     1     2     0     0  9.247329928E+01 -2.904455109E+02  1.285268739E+03  1.326819745E+03  1.250000000E+02  0.00000E+00  9.000E+00
      -2     1     1     2     0   501  4.174838663E+01  4.755541494E+01 -5.345954017E+02  5.383276779E+02  7.629394531E-06  0.00000E+00  9.000E+00
#rwgt            1           1   6.2664852074835006E-002           1      299889           0
</event>
<event>
      5   9999  3.19816E-02  2.08260E+02 -1.00000E+00  1.11012E-01
      21    -1     0     0   502   501  0.000000000E+00  0.000000000E+00  5.842238561E+02  5.842238561E+02  0.000000000E+00  0.00000E+00  9.000E+00
      21    -1     0     0   511   502  0.000000000E+00  0.000000000E+00 -1.975470864E+03  1.975470864E+03  0.000000000E+00  0.00000E+00  9.000E+00
      25     1     1     2     0     0 -8.594099544E+02 -1.832264989E+02 -4.588896249E+02  9.991807181E+02  1.250000000E+02  0.00000E+00  9.000E+00
      25     1     1     2     0     0  8.176004928E+02  3.872465168E+02 -4.156282991E+02  1.003395392E+03  1.250000000E+02  0.00000E+00  9.000E+00
      21     1     1     2   511   501  4.180946154E+01 -2.040200179E+02 -5.167290835E+02  5.571186090E+02  1.078959322E-05  0.00000E+00  9.000E+00
#rwgt            1           1   3.2044503566742655E-002           1      300008           0
</event>
<event>
      5   9999  3.19816E-02  3.21779E+02 -1.00000E+00  1.04612E-01
      21    -1     0     0   502   512  0.000000000E+00  0.000000000E+00  8.097605157E+02  8.097605157E+02  0.000000000E+00  0.00000E+00  9.000E+00
      21    -1     0     0   501   502  0.000000000E+00  0.000000000E+00 -5.974775386E+02  5.974775386E+02  0.000000000E+00  0.00000E+00  9.000E+00
      25     1     1     2     0     0  3.068319335E+02 -5.532457953E+01  3.454040177E+01  3.376754120E+02  1.250000000E+02  0.00000E+00  9.000E+00
      25     1     1     2     0     0 -3.335039451E+02 -2.653467110E+02 -2.688117074E+02  5.191517047E+02  1.250000000E+02  0.00000E+00  9.000E+00
      21     1     1     2   501   512  2.667201165E+01  3.206712905E+02  4.465542827E+02  5.504109376E+02  5.394796609E-06  0.00000E+00  9.000E+00
#rwgt            2          11   3.3590037063865237E-003           1      300256           0
</event>
<event>
      5   9999  3.19816E-02  3.78650E+02 -1.00000E+00  1.02407E-01
      21    -1     0     0   502   501  0.000000000E+00  0.000000000E+00  3.901933994E+02  3.901933994E+02  0.000000000E+00  0.00000E+00  9.000E+00
       2    -1     0     0   501     0  0.000000000E+00  0.000000000E+00 -1.585966387E+03  1.585966387E+03  0.000000000E+00  0.00000E+00  9.000E+00
      25     1     1     2     0     0 -2.441263843E+02  6.864321798E+01 -1.675105695E+02  3.286249744E+02  1.250000000E+02  0.00000E+00  9.000E+00
      25     1     1     2     0     0  6.033999435E+02  5.093091718E+01 -7.626460662E+01  6.229981865E+02  1.250000000E+02  0.00000E+00  9.000E+00
       2     1     1     2   502     0 -3.592735592E+02 -1.195741352E+02 -9.519978110E+02  1.024536625E+03  1.078959322E-05  0.00000E+00  9.000E+00
#rwgt            2          13   1.4669593677316306E-003           1      300396           0
</event>
<event>
      5   9999  3.19816E-02  2.59454E+02 -1.00000E+00  1.07682E-01
      21    -1     0     0   511   501  0.000000000E+00  0.000000000E+00  9.420292414E+01  9.420292414E+01  0.000000000E+00  0.00000E+00  9.000E+00
      21    -1     0     0   501   502  0.000000000E+00  0.000000000E+00 -2.850782791E+03  2.850782791E+03  0.000000000E+00  0.00000E+00  9.000E+00
      25     1     1     2     0     0  2.129054426E+02  9.647636204E+01 -4.667158773E+02  5.367356202E+02  1.250000000E+02  0.00000E+00  9.000E+00
      25     1     1     2     0     0 -3.109734359E+02 -3.366828984E+02 -1.670531870E+03  1.736767567E+03  1.250000000E+02  0.00000E+00  9.000E+00
      21     1     1     2   511   502  9.806799323E+01  2.402065363E+02 -6.193321198E+02  6.714825284E+02  7.629394531E-06  0.00000E+00  9.000E+00
#rwgt            1           1   2.4936335048062273E-002           1      300415           0
</event>
<event>
      5   9999  3.19816E-02  2.54477E+02 -1.00000E+00  1.07968E-01
      21    -1     0     0   502   501  0.000000000E+00  0.000000000E+00  3.924727821E+02  3.924727821E+02  0.000000000E+00  0.00000E+00  9.000E+00
       2    -1     0     0   501     0  0.000000000E+00  0.000000000E+00 -2.179895638E+03  2.179895638E+03  0.000000000E+00  0.00000E+00  9.000E+00
      25     1     1     2     0     0  5.977828534E+00 -1.601623724E+02  2.336031049E+02  3.096500130E+02  1.250000000E+02  0.00000E+00  9.000E+00
      25     1     1     2     0     0 -2.176615722E+02  3.014020694E+02 -2.320471334E+02  4.557308850E+02  1.250000000E+02  0.00000E+00  9.000E+00
       2     1     1     2   502     0  2.116837437E+02 -1.412396971E+02 -1.788978827E+03  1.806987522E+03  0.000000000E+00  0.00000E+00  9.000E+00
#rwgt            2          13   3.1753427642527616E-003           1      300784           0
</event>
<event>
      5   9999  3.19816E-02  1.45870E+02 -1.00000E+00  1.16876E-01
      21    -1     0     0   511   501  0.000000000E+00  0.000000000E+00  1.170071151E+03  1.170071151E+03  0.000000000E+00  0.00000E+00  9.000E+00
      21    -1     0     0   501   502  0.000000000E+00  0.000000000E+00 -1.196644674E+03  1.196644674E+03  0.000000000E+00  0.00000E+00  9.000E+00
      25     1     1     2     0     0 -1.794295877E+02 -1.018714147E+03  4.586651202E+02  1.138407740E+03  1.250000000E+02  0.00000E+00  9.000E+00
      25     1     1     2     0     0  2.556538546E+02  8.943440878E+02 -5.272763679E+02  1.076501560E+03  1.250000000E+02  0.00000E+00  9.000E+00
      21     1     1     2   511   502 -7.622426692E+01  1.243700593E+02  4.203772518E+01  1.518065244E+02  4.264961200E-06  0.00000E+00  9.000E+00
#rwgt            2          11   1.5947756671002677E-002           1      300833           0
</event>
<event>
      5   9999  3.19816E-02  3.18431E+01 -1.00000E+00  1.51263E-01
       2    -1     0     0   502     0  0.000000000E+00  0.000000000E+00  7.930950884E+02  7.930950884E+02  0.000000000E+00  0.00000E+00  9.000E+00
      21    -1     0     0   501   502  0.000000000E+00  0.000000000E+00 -6.854263365E+01  6.854263365E+01  0.000000000E+00  0.00000E+00  9.000E+00
      25     1     1     2     0     0  9.561933189E+00 -6.557848815E+01  2.166592845E+02  2.587628532E+02  1.250000000E+02  0.00000E+00  9.000E+00
      25     1     1     2     0     0 -3.718951582E+01  4.974499002E+01  5.685710161E+01  1.507161376E+02  1.250000000E+02  0.00000E+00  9.000E+00
       2     1     1     2   501     0  2.762758263E+01  1.583349813E+01  4.510360686E+02  4.521587312E+02  0.000000000E+00  0.00000E+00  9.000E+00
#rwgt            2          18   2.2255954855013451E-004           1      300913           0
</event>
<event>
      5   9999  3.19816E-02  2.66628E+01 -1.00000E+00  1.56684E-01
      21    -1     0     0   502   501  0.000000000E+00  0.000000000E+00  4.443656045E+02  4.443656045E+02  0.000000000E+00  0.00000E+00  9.000E+00
      21    -1     0     0   501   511  0.000000000E+00  0.000000000E+00 -4.099604209E+02  4.099604209E+02  0.000000000E+00  0.00000E+00  9.000E+00
      25     1     1     2     0     0 -1.769407259E+02 -2.658009431E+02 -1.266347786E+02  3.655400511E+02  1.250000000E+02  0.00000E+00  9.000E+00
      25     1     1     2     0     0  1.993075984E+02  2.512879521E+02  2.305728801E+02  4.143163123E+02  1.250000000E+02  0.00000E+00  9.000E+00
      21     1     1     2   502   511 -2.236687248E+01  1.451299100E+01 -6.953291785E+01  7.446966199E+01  0.000000000E+00  0.00000E+00  9.000E+00
#rwgt            1           1   2.8715084304656160E-002           1      300947           0
</event>
<event>
      5   9999  3.19816E-02  2.31275E+01 -1.00000E+00  1.61326E-01
      21    -1     0     0   502   501  0.000000000E+00  0.000000000E+00  5.862203310E+02  5.862203310E+02  0.000000000E+00  0.00000E+00  9.000E+00
      21    -1     0     0   512   502  0.000000000E+00  0.000000000E+00 -1.996686708E+03  1.996686708E+03  0.000000000E+00  0.00000E+00  9.000E+00
      25     1     1     2     0     0  1.997692323E+02 -8.984769512E+02 -8.558157435E+02  1.263017880E+03  1.250000000E+02  0.00000E+00  9.000E+00
      25     1     1     2     0     0 -2.028907147E+02  9.213927875E+02 -2.101806079E+02  9.746436266E+02  1.250000000E+02  0.00000E+00  9.000E+00
      21     1     1     2   512   501  3.121482435E+00 -2.291583630E+01 -3.444700259E+02  3.452455328E+02  5.394796609E-06  0.00000E+00  9.000E+00
#rwgt            1           1   3.1129293058215785E-002           1      301051           0
</event>
<event>
      5   9999  3.19816E-02  3.87430E+02 -1.00000E+00  1.02104E-01
      21    -1     0     0   502   501  0.000000000E+00  0.000000000E+00  1.728291210E+03  1.728291210E+03  0.000000000E+00  0.00000E+00  9.000E+00
      21    -1     0     0   511   502  0.000000000E+00  0.000000000E+00 -1.500882658E+03  1.500882658E+03  0.000000000E+00  0.00000E+00  9.000E+00
      25     1     1     2     0     0  1.088249742E+03 -6.154494003E+02  1.088566303E+03  1.662428062E+03  1.250000000E+02  0.00000E+00  9.000E+00
      25     1     1     2     0     0 -8.201333003E+02  3.357788186E+02 -4.497641793E+02  1.001638089E+03  1.250000000E+02  0.00000E+00  9.000E+00
      21     1     1     2   511   501 -2.681164418E+02  2.796705817E+02 -4.113935714E+02  5.651077165E+02  5.394796609E-06  0.00000E+00  9.000E+00
#rwgt            2          11   3.5679550397696037E-003           1      301497           0
</event>
<event>
      5   9999  3.19816E-02  6.58099E+01 -1.00000E+00  1.32593E-01
      21    -1     0     0   512   501  0.000000000E+00  0.000000000E+00  7.977129409E+02  7.977129409E+02  0.000000000E+00  0.00000E+00  9.000E+00
      21    -1     0     0   501   502  0.000000000E+00  0.000000000E+00 -2.460984587E+02  2.460984587E+02  0.000000000E+00  0.00000E+00  9.000E+00
      25     1     1     2     0     0  1.244251563E+02  1.306361491E+02  4.216570167E+02  4.753599296E+02  1.250000000E+02  0.00000E+00  9.000E+00
      25     1     1     2     0     0 -8.772323515E+01 -7.601095588E+01 -1.821080436E+02  2.495222854E+02  1.250000000E+02  0.00000E+00  9.000E+00
      21     1     1     2   512   502 -3.670192114E+01 -5.462519325E+01  3.120655091E+02  3.189291845E+02  3.814697266E-06  0.00000E+00  9.000E+00
#rwgt            1           1   2.6933729784262686E-002           1      301517           0
</event>
<event>
      5   9999  3.19816E-02  4.65075E+00 -1.00000E+00  2.48942E-01
      21    -1     0     0   502   501  0.000000000E+00  0.000000000E+00  4.549375103E+01  4.549375103E+01  0.000000000E+00  0.00000E+00  9.000E+00
      21    -1     0     0   511   502  0.000000000E+00  0.000000000E+00 -4.890896249E+02  4.890896249E+02  0.000000000E+00  0.00000E+00  9.000E+00
      25     1     1     2     0     0  5.065203997E+00  7.741365895E+01 -2.120997638E+02  2.581275667E+02  1.250000000E+02  0.00000E+00  9.000E+00
      25     1     1     2     0     0 -6.578528381E+00 -7.301601379E+01 -2.147050427E+02  2.590325668E+02  1.250000000E+02  0.00000E+00  9.000E+00
      21     1     1     2   511   501  1.513324384E+00 -4.397645163E+00 -1.679106735E+01  1.742324242E+01  0.000000000E+00  0.00000E+00  9.000E+00
#rwgt            1           1   3.7038642822005086E-002           1      301568           0
</event>
<event>
      5   9999  3.21064E-02  6.17880E+01 -1.00000E+00  1.34025E-01
      21    -1     0     0   512   501  0.000000000E+00  0.000000000E+00  1.454679909E+03  1.454679909E+03  0.000000000E+00  0.00000E+00  9.000E+00
      21    -1     0     0   501   502  0.000000000E+00  0.000000000E+00 -4.108086303E+02  4.108086303E+02  0.000000000E+00  0.00000E+00  9.000E+00
      25     1     1     2     0     0 -3.765653789E+02  2.977657398E+02  1.154981202E+03  1.257009347E+03  1.250000000E+02  0.00000E+00  9.000E+00
      25     1     1     2     0     0  3.250410931E+02 -2.636628146E+02 -2.155811787E+02  4.871037226E+02  1.250000000E+02  0.00000E+00  9.000E+00
      21     1     1     2   512   502  5.152428582E+01 -3.410292518E+01  1.044712546E+02  1.213754694E+02  0.000000000E+00  0.00000E+00  9.000E+00
#rwgt            1           1   3.2720569289617300E-002           1      301843           0
</event>
<event>
      5   9999  3.19816E-02  2.73011E+01 -1.00000E+00  1.55939E-01
      21    -1     0     0   511   501  0.000000000E+00  0.000000000E+00  6.220896021E+02  6.220896021E+02  0.000000000E+00  0.00000E+00  9.000E+00
      21    -1     0     0   501   502  0.000000000E+00  0.000000000E+00 -4.259791915E+02  4.259791915E+02  0.000000000E+00  0.00000E+00  9.000E+00
      25     1     1     2     0     0 -2.640609390E+02 -3.390434526E+02  1.072905129E+02  4.602335238E+02  1.250000000E+02  0.00000E+00  9.000E+00
      25     1     1     2     0     0  2.876679178E+02  3.527569634E+02 -2.313488721E+01  4.725997558E+02  1.250000000E+02  0.00000E+00  9.000E+00
      21     1     1     2   511   502 -2.360697883E+01 -1.371351082E+01  1.119547849E+02  1.152355140E+02  1.348699152E-06  0.00000E+00  9.000E+00
#rwgt            1           1   2.6034805522757262E-002           1      302020           0
</event>
<event>
      5   9999  3.19816E-02  3.93644E+01 -1.00000E+00  1.45273E-01
      21    -1     0     0   502   501  0.000000000E+00  0.000000000E+00  1.024154692E+03  1.024154692E+03  0.000000000E+00  0.00000E+00  9.000E+00
       2    -1     0     0   501     0  0.000000000E+00  0.000000000E+00 -8.765334651E+02  8.765334651E+02  0.000000000E+00  0.00000E+00  9.000E+00
      25     1     1     2     0     0 -3.025429565E+02 -9.498874276E+00  9.196422388E+02  9.762117170E+02  1.250000000E+02  0.00000E+00  9.000E+00
      25     1     1     2     0     0  3.007142956E+02 -2.982307167E+01 -2.789403431E+02  4.298269631E+02  1.250000000E+02  0.00000E+00  9.000E+00
       2     1     1     2   502     0  1.828660924E+00  3.932194595E+01 -4.930806686E+02  4.946494771E+02  5.394796609E-06  0.00000E+00  9.000E+00
#rwgt            1           1   3.0415118973886338E-002           1      302150           0
</event>
<event>
      5   9999  3.19816E-02  4.56626E+01 -1.00000E+00  1.41362E-01
      21    -1     0     0   502   511  0.000000000E+00  0.000000000E+00  1.862730810E+03  1.862730810E+03  0.000000000E+00  0.00000E+00  9.000E+00
      21    -1     0     0   501   502  0.000000000E+00  0.000000000E+00 -6.349928204E+02  6.349928204E+02  0.000000000E+00  0.00000E+00  9.000E+00
      25     1     1     2     0     0  2.358348443E+02 -3.461936780E+02 -3.856782973E+02  5.829587339E+02  1.250000000E+02  0.00000E+00  9.000E+00
      25     1     1     2     0     0 -2.043354181E+02  3.131352656E+02  1.081593026E+02  4.088154747E+02  1.250000000E+02  0.00000E+00  9.000E+00
      21     1     1     2   501   511 -3.149942620E+01  3.305841239E+01  1.505256985E+03  1.505949422E+03  3.051757812E-05  0.00000E+00  9.000E+00
#rwgt            1           1   2.9545913932124628E-002           1      302288           0
</event>
<event>
      5   9999  3.19816E-02  5.55326E+01 -1.00000E+00  1.36524E-01
      -1    -1     0     0     0   501  0.000000000E+00  0.000000000E+00  6.414696001E+02  6.414696001E+02  0.000000000E+00  0.00000E+00  9.000E+00
      21    -1     0     0   501   502  0.000000000E+00  0.000000000E+00 -4.126579051E+02  4.126579051E+02  0.000000000E+00  0.00000E+00  9.000E+00
      25     1     1     2     0     0  2.132066609E+02 -1.865342106E+02  3.218429659E+02  4.466094341E+02  1.250000000E+02  0.00000E+00  9.000E+00
      25     1     1     2     0     0 -2.404017227E+02  1.381162222E+02 -2.794394321E+02  4.130138924E+02  1.250000000E+02  0.00000E+00  9.000E+00
      -1     1     1     2     0   502  2.719506177E+01  4.841798839E+01  1.864081612E+02  1.945041787E+02  2.697398305E-06  0.00000E+00  9.000E+00
#rwgt            1           1   2.8318047205092397E-002           1      302408           0
</event>
<event>
      5   9999  3.19816E-02  1.91235E+02 -1.00000E+00  1.12361E-01
      21    -1     0     0   502   501  0.000000000E+00  0.000000000E+00  4.766710903E+02  4.766710903E+02  0.000000000E+00  0.00000E+00  9.000E+00
      21    -1     0     0   501   511  0.000000000E+00  0.000000000E+00 -5.124381154E+02  5.124381154E+02  0.000000000E+00  0.00000E+00  9.000E+00
      25     1     1     2     0     0  3.114214252E+02  1.667133140E+02 -1.261653646E+02  3.953723971E+02  1.250000000E+02  0.00000E+00  9.000E+00
      25     1     1     2     0     0 -1.480475344E+02 -2.661099993E+02  1.879528404E+02  3.790565583E+02  1.250000000E+02  0.00000E+00  9.000E+00
      21     1     1     2   502   511 -1.633738908E+02  9.939668534E+01 -9.755450079E+01  2.146802503E+02  4.046097457E-06  0.00000E+00  9.000E+00
#rwgt            1           1   2.9793953518256967E-002           1      302522           0
</event>
<event>
      5   9999  3.19816E-02  8.97107E+01 -1.00000E+00  1.25987E-01
       2    -1     0     0   502     0  0.000000000E+00  0.000000000E+00  1.367902245E+03  1.367902245E+03  0.000000000E+00  0.00000E+00  9.000E+00
      21    -1     0     0   501   502  0.000000000E+00  0.000000000E+00 -1.061963883E+02  1.061963883E+02  0.000000000E+00  0.00000E+00  9.000E+00
      25     1     1     2     0     0 -2.413212994E+02 -1.468101723E+02  2.640928871E+02  4.063978952E+02  1.250000000E+02  0.00000E+00  9.000E+00
      25     1     1     2     0     0  2.367521162E+02  5.721594326E+01  5.913096276E+02  6.516113139E+02  1.250000000E+02  0.00000E+00  9.000E+00
       2     1     1     2   501     0  4.569183218E+00  8.959422899E+01  4.063033414E+02  4.160894238E+02  5.394796609E-06  0.00000E+00  9.000E+00
#rwgt            1           1   2.7406015691316656E-002           1      302589           0
</event>
<event>
      5   9999  3.19816E-02  9.72346E+01 -1.00000E+00  1.24378E-01
      21    -1     0     0   511   501  0.000000000E+00  0.000000000E+00  1.928687876E+02  1.928687876E+02  0.000000000E+00  0.00000E+00  9.000E+00
      21    -1     0     0   501   502  0.000000000E+00  0.000000000E+00 -3.530295449E+02  3.530295449E+02  0.000000000E+00  0.00000E+00  9.000E+00
      25     1     1     2     0     0 -1.422289623E+02  2.262811383E+01 -8.152475357E+01  2.073942976E+02  1.250000000E+02  0.00000E+00  9.000E+00
      25     1     1     2     0     0  1.811727928E+02  6.646704541E+01 -7.245583589E+01  2.410732194E+02  1.250000000E+02  0.00000E+00  9.000E+00
      21     1     1     2   511   502 -3.894383051E+01 -8.909515924E+01 -6.180167849E+00  9.743081550E+01  1.801993425E-06  0.00000E+00  9.000E+00
#rwgt            2          11   2.5503927650396660E-003           1      302752           0
</event>
<event>
      5   9999  3.19816E-02  1.16510E+02 -1.00000E+00  1.20915E-01
      21    -1     0     0   512   501  0.000000000E+00  0.000000000E+00  8.633009817E+02  8.633009817E+02  0.000000000E+00  0.00000E+00  9.000E+00
      21    -1     0     0   501   502  0.000000000E+00  0.000000000E+00 -4.479227157E+02  4.479227157E+02  0.000000000E+00  0.00000E+00  9.000E+00
      25     1     1     2     0     0 -4.650212585E+02  3.060378169E+02  1.487765682E+02  5.896298699E+02  1.250000000E+02  0.00000E+00  9.000E+00
      25     1     1     2     0     0  3.728890290E+02 -3.773558168E+02  1.720661396E+02  5.715552439E+02  1.250000000E+02  0.00000E+00  9.000E+00
      21     1     1     2   512   502  9.213222949E+01  7.131799986E+01  9.453555816E+01  1.500385836E+02  1.907348633E-06  0.00000E+00  9.000E+00
#rwgt            1           1   3.0894511321860368E-002           1      302772           0
</event>
<event>
      5   9999  3.19816E-02  1.68940E+02 -1.00000E+00  1.14383E-01
      21    -1     0     0   511   501  0.000000000E+00  0.000000000E+00  1.600181612E+03  1.600181612E+03  0.000000000E+00  0.00000E+00  9.000E+00
      21    -1     0     0   501   502  0.000000000E+00  0.000000000E+00 -5.829788663E+02  5.829788663E+02  0.000000000E+00  0.00000E+00  9.000E+00
      25     1     1     2     0     0  3.182962472E+01 -8.558985663E+02  8.241534729E+02  1.195169205E+03  1.250000000E+02  0.00000E+00  9.000E+00
      25     1     1     2     0     0 -1.667249221E+02  7.541928849E+02  8.407773351E+01  7.869550003E+02  1.250000000E+02  0.00000E+00  9.000E+00
      21     1     1     2   511   502  1.348952974E+02  1.017056815E+02  1.089715397E+02  2.010362737E+02  3.303624740E-06  0.00000E+00  9.000E+00
#rwgt            1           1   2.6085808250569505E-002           1      302838           0
</event>
<event>
      5   9999  3.19816E-02  2.18904E+01 -1.00000E+00  1.63196E-01
      21    -1     0     0   502   512  0.000000000E+00  0.000000000E+00  3.975402519E+01  3.975402519E+01  0.000000000E+00  0.00000E+00  9.000E+00
      21    -1     0     0   501   502  0.000000000E+00  0.000000000E+00 -1.191987762E+03  1.191987762E+03  0.000000000E+00  0.00000E+00  9.000E+00
      25     1     1     2     0     0 -1.262511207E+02 -1.030242498E+02 -4.699292290E+02  5.128467820E+02  1.250000000E+02  0.00000E+00  9.000E+00
      25     1     1     2     0     0  1.084375397E+02  1.157469541E+02 -6.422319689E+02  6.732332132E+02  1.250000000E+02  0.00000E+00  9.000E+00
      21     1     1     2   501   512  1.781358106E+01 -1.272270438E+01 -4.007253871E+01  4.566179185E+01  6.743495762E-07  0.00000E+00  9.000E+00
#rwgt            1           1   2.4316472566873533E-002           1      302932           0
</event>
<event>
      5   9999  3.19816E-02  1.13876E+02 -1.00000E+00  1.21342E-01
      21    -1     0     0   502   501  0.000000000E+00  0.000000000E+00  1.189952081E+03  1.189952081E+03  0.000000000E+00  0.00000E+00  9.000E+00
      21    -1     0     0   511   502  0.000000000E+00  0.000000000E+00 -9.823141278E+01  9.823141278E+01  0.000000000E+00  0.00000E+00  9.000E+00
      25     1     1     2     0     0 -7.820241973E+01  5.804525548E+01  2.454611625E+01  1.603508090E+02  1.250000000E+02  0.00000E+00  9.000E+00
      25     1     1     2     0     0  7.050216145E+01  5.557032352E+01  9.573020223E+02  9.695930989E+02  1.250000000E+02  0.00000E+00  9.000E+00
      21     1     1     2   511   501  7.700258282E+00 -1.136155790E+02  1.098725300E+02  1.582395861E+02  3.303624740E-06  0.00000E+00  9.000E+00
#rwgt            2          11   3.4517200379110976E-003           1      303191           0
</event>
<event>
      5   9999  3.19816E-02  8.20871E+01 -1.00000E+00  1.27810E-01
       2    -1     0     0   502     0  0.000000000E+00  0.000000000E+00  1.655574230E+03  1.655574230E+03  0.000000000E+00  0.00000E+00  9.000E+00
      21    -1     0     0   501   502  0.000000000E+00  0.000000000E+00 -1.806897827E+02  1.806897827E+02  0.000000000E+00  0.00000E+00  9.000E+00
      25     1     1     2     0     0  1.169480192E+02 -2.177282007E+01 -7.197317882E+01  1.869653266E+02  1.250000000E+02  0.00000E+00  9.000E+00
      25     1     1     2     0     0 -7.039796594E+01 -4.583913620E+01  6.312965930E+01  1.633017266E+02  1.250000000E+02  0.00000E+00  9.000E+00
       2     1     1     2   501     0 -4.655005330E+01  6.761195627E+01  1.483727967E+03  1.485996959E+03  3.051757812E-05  0.00000E+00  9.000E+00
#rwgt            1           1   2.8608770811617563E-002           1      303226           0
</event>
<event>
      5   9999  3.19816E-02  3.36462E+01 -1.00000E+00  1.49659E-01
      21    -1     0     0   502   501  0.000000000E+00  0.000000000E+00  3.428712280E+02  3.428712280E+02  0.000000000E+00  0.00000E+00  9.000E+00
      21    -1     0     0   501   511  0.000000000E+00  0.000000000E+00 -8.962626127E+02  8.962626127E+02  0.000000000E+00  0.00000E+00  9.000E+00
      25     1     1     2     0     0 -1.779411920E+02  2.279657878E+02  2.274017133E+02  3.885460172E+02  1.250000000E+02  0.00000E+00  9.000E+00
      25     1     1     2     0     0  1.445458635E+02 -2.238650985E+02 -7.470192581E+02  8.029146038E+02  1.250000000E+02  0.00000E+00  9.000E+00
      21     1     1     2   502   511  3.339532849E+01 -4.100689373E+00 -3.377383987E+01  4.767321972E+01  8.259061849E-07  0.00000E+00  9.000E+00
#rwgt            1           1   2.9167655505380280E-002           1      303255           0
</event>
<event>
      5   9999  3.19816E-02  1.96407E+01 -1.00000E+00  1.67021E-01
      21    -1     0     0   512   501  0.000000000E+00  0.000000000E+00  1.746638609E+02  1.746638609E+02  0.000000000E+00  0.00000E+00  9.000E+00
      21    -1     0     0   501   502  0.000000000E+00  0.000000000E+00 -8.684788080E+02  8.684788080E+02  0.000000000E+00  0.00000E+00  9.000E+00
      25     1     1     2     0     0 -1.577456847E+02  1.294805178E+02 -7.227136185E+02  7.613073492E+02  1.250000000E+02  0.00000E+00  9.000E+00
      25     1     1     2     0     0  1.708539248E+02 -1.441069670E+02  1.275093458E+01  2.564087906E+02  1.250000000E+02  0.00000E+00  9.000E+00
      21     1     1     2   512   502 -1.310824014E+01  1.462644920E+01  1.614773680E+01  2.542652905E+01  5.331201500E-07  0.00000E+00  9.000E+00
#rwgt            1           1   2.7817105951317294E-002           1      303477           0
</event>
<event>
      5   9999  3.19816E-02  4.83992E+01 -1.00000E+00  1.39887E-01
      21    -1     0     0   502   501  0.000000000E+00  0.000000000E+00  1.570926459E+02  1.570926459E+02  0.000000000E+00  0.00000E+00  9.000E+00
      21    -1     0     0   511   502  0.000000000E+00  0.000000000E+00 -2.955115899E+03  2.955115899E+03  0.000000000E+00  0.00000E+00  9.000E+00
      25     1     1     2     0     0  4.458100067E+01  2.107844947E+02 -4.138651673E+01  2.524983417E+02  1.250000000E+02  0.00000E+00  9.000E+00
      25     1     1     2     0     0 -1.786043766E+00 -1.881775772E+02 -1.973816548E+02  2.999975136E+02  1.250000000E+02  0.00000E+00  9.000E+00
      21     1     1     2   511   501 -4.279495690E+01 -2.260691750E+01 -2.559255082E+03  2.559712690E+03  0.000000000E+00  0.00000E+00  9.000E+00
#rwgt            1           1   3.0742271114024750E-002           1      303635           0
</event>
<event>
      5   9999  3.19816E-02  5.45755E+01 -1.00000E+00  1.36940E-01
       2    -1     0     0   502     0  0.000000000E+00  0.000000000E+00  2.053676732E+03  2.053676732E+03  0.000000000E+00  0.00000E+00  9.000E+00
      21    -1     0     0   501   502  0.000000000E+00  0.000000000E+00 -6.444533366E+01  6.444533366E+01  0.000000000E+00  0.00000E+00  9.000E+00
      25     1     1     2     0     0 -1.847900205E+02  1.483553830E+01  4.641252358E+02  5.151744165E+02  1.250000000E+02  0.00000E+00  9.000E+00
      25     1     1     2     0     0  1.869615595E+02 -6.936780564E+01  3.232477218E+02  3.998507307E+02  1.250000000E+02  0.00000E+00  9.000E+00
       2     1     1     2   501     0 -2.171538968E+00  5.453226734E+01  1.201858441E+03  1.203096919E+03  1.525878906E-05  0.00000E+00  9.000E+00
#rwgt            1           1   2.9888752239511165E-002           1      303730           0
</event>
<event>
      5   9999  3.19816E-02  6.80026E+01 -1.00000E+00  1.31861E-01
      21    -1     0     0   502   501  0.000000000E+00  0.000000000E+00  5.822524101E+02  5.822524101E+02  0.000000000E+00  0.00000E+00  9.000E+00
      21    -1     0     0   511   502  0.000000000E+00  0.000000000E+00 -3.470997702E+02  3.470997702E+02  0.000000000E+00  0.00000E+00  9.000E+00
      25     1     1     2     0     0  4.170306482E+02 -4.282239923E+01  1.971020064E+02  4.798150897E+02  1.250000000E+02  0.00000E+00  9.000E+00
      25     1     1     2     0     0 -3.524793729E+02  6.421142815E+01  3.956993634E+01  3.815174906E+02  1.250000000E+02  0.00000E+00  9.000E+00
      21     1     1     2   511   501 -6.455127532E+01 -2.138902892E+01 -1.519302879E+00  6.801960000E+01  1.456812388E-06  0.00000E+00  9.000E+00
#rwgt            1           1   2.7775562934720409E-002           1      303795           0
</event>
<event>
      5   9999  3.19816E-02  1.80108E+01 -1.00000E+00  1.70213E-01
      21    -1     0     0   512   501  0.000000000E+00  0.000000000E+00  6.539799014E+01  6.539799014E+01  0.000000000E+00  0.00000E+00  9.000E+00
      21    -1     0     0   501   502  0.000000000E+00  0.000000000E+00 -8.893668287E+02  8.893668287E+02  0.000000000E+00  0.00000E+00  9.000E+00
      25     1     1     2     0     0  1.217667229E+02 -7.225327459E+01 -1.380239619E+02  2.339300847E+02  1.250000000E+02  0.00000E+00  9.000E+00
      25     1     1     2     0     0 -1.073937208E+02  8.310717751E+01 -6.749560174E+02  6.997362644E+02  1.250000000E+02  0.00000E+00  9.000E+00
      21     1     1     2   512   502 -1.437300211E+01 -1.085390292E+01 -1.098885927E+01  2.109846976E+01  3.371747881E-07  0.00000E+00  9.000E+00
#rwgt            1           1   2.0819650752099458E-002           1      303841           0
</event>
<event>
      5   9999  3.19816E-02  9.59870E+01 -1.00000E+00  1.24633E-01
      21    -1     0     0   502   511  0.000000000E+00  0.000000000E+00  2.728306225E+02  2.728306225E+02  0.000000000E+00  0.00000E+00  9.000E+00
      21    -1     0     0   501   502  0.000000000E+00  0.000000000E+00 -7.150019603E+02  7.150019603E+02  0.000000000E+00  0.00000E+00  9.000E+00
      25     1     1     2     0     0 -1.016175091E+02  2.270490805E+01  1.851519786E+02  2.464708627E+02  1.250000000E+02  0.00000E+00  9.000E+00
      25     1     1     2     0     0  6.555598229E+01 -1.116603038E+02 -6.194356045E+02  6.450512215E+02  1.250000000E+02  0.00000E+00  9.000E+00
      21     1     1     2   501   511  3.606152681E+01  8.895539575E+01 -7.887711873E+00  9.631049863E+01  1.558863739E-06  0.00000E+00  9.000E+00
#rwgt            1           1   2.5847280070155691E-002           1      303986           0
</event>
<event>
      5   9999  3.19816E-02  2.26109E+01 -1.00000E+00  1.62089E-01
      21    -1     0     0   502   501  0.000000000E+00  0.000000000E+00  5.147698570E+02  5.147698570E+02  0.000000000E+00  0.00000E+00  9.000E+00
      21    -1     0     0   512   502  0.000000000E+00  0.000000000E+00 -3.542319333E+02  3.542319333E+02  0.000000000E+00  0.00000E+00  9.000E+00
      25     1     1     2     0     0 -1.337754119E+02 -2.652841499E+02  2.930482997E+02  4.356304018E+02  1.250000000E+02  0.00000E+00  9.000E+00
      25     1     1     2     0     0  1.540505536E+02  2.552756586E+02 -2.583894462E+01  3.243299030E+02  1.250000000E+02  0.00000E+00  9.000E+00
      21     1     1     2   512   501 -2.027514176E+01  1.000849134E+01 -1.066714314E+02  1.090414854E+02  1.348699152E-06  0.00000E+00  9.000E+00
#rwgt            1           1   2.7834298119927464E-002           1      304101           0
</event>
<event>
      5   9999  3.19816E-02  7.44390E+02 -1.00000E+00  9.41781E-02
       2    -1     0     0   502     0  0.000000000E+00  0.000000000E+00  9.073041129E+02  9.073041129E+02  0.000000000E+00  0.00000E+00  9.000E+00
      21    -1     0     0   501   502  0.000000000E+00  0.000000000E+00 -1.487162284E+03  1.487162284E+03  0.000000000E+00  0.00000E+00  9.000E+00
      25     1     1     2     0     0  8.551072664E+02 -1.245443399E+02  3.188407762E+02  9.295182463E+02  1.250000000E+02  0.00000E+00  9.000E+00
      25     1     1     2     0     0 -1.782874095E+02 -1.853460051E+02  1.508127829E+01  2.863424295E+02  1.250000000E+02  0.00000E+00  9.000E+00
       2     1     1     2   501     0 -6.768198570E+02  3.098903450E+02 -9.137802253E+02  1.178605721E+03  1.078959322E-05  0.00000E+00  9.000E+00
#rwgt            2          18   7.8820652734585425E-005           1      304290           0
</event>
<event>
      5   9999  3.19816E-02  2.12005E+02 -1.00000E+00  1.10734E-01
      21    -1     0     0   502   501  0.000000000E+00  0.000000000E+00  3.425527704E+02  3.425527704E+02  0.000000000E+00  0.00000E+00  9.000E+00
       4    -1     0     0   501     0  0.000000000E+00  0.000000000E+00 -5.651827520E+02  5.651827520E+02  0.000000000E+00  0.00000E+00  9.000E+00
      25     1     1     2     0     0 -1.476222293E+02 -2.825845026E+02 -3.115102062E+02  4.629362076E+02  1.250000000E+02  0.00000E+00  9.000E+00
      25     1     1     2     0     0  1.688973158E+02  7.165010973E+01  2.514672460E+01  2.234220206E+02  1.250000000E+02  0.00000E+00  9.000E+00
       4     1     1     2   502     0 -2.127508648E+01  2.109343928E+02  6.373350010E+01  2.213772943E+02  6.743495762E-07  0.00000E+00  9.000E+00
#rwgt            1           1   2.6271176440033829E-002           1      304309           0
</event>
<event>
      5   9999  3.19816E-02  1.25147E+02 -1.00000E+00  1.19599E-01
      21    -1     0     0   511   501  0.000000000E+00  0.000000000E+00  3.009773559E+03  3.009773559E+03  0.000000000E+00  0.00000E+00  9.000E+00
      21    -1     0     0   501   502  0.000000000E+00  0.000000000E+00 -4.358510179E+01  4.358510179E+01  0.000000000E+00  0.00000E+00  9.000E+00
      25     1     1     2     0     0 -1.497378058E+02  8.637148963E+01  4.527288761E+02  5.004696594E+02  1.250000000E+02  0.00000E+00  9.000E+00
      25     1     1     2     0     0  2.330037425E+02 -1.797987760E+02  1.691592688E+03  1.721548479E+03  1.250000000E+02  0.00000E+00  9.000E+00
      21     1     1     2   511   502 -8.326593668E+01  9.342728634E+01  8.218668932E+02  8.313405224E+02  1.868812365E-05  0.00000E+00  9.000E+00
#rwgt            1           1   7.2490193684336429E-002           1      304360           0
</event>
<event>
      5   9999  3.19816E-02  8.16083E+01 -1.00000E+00  1.27932E-01
      21    -1     0     0   502   501  0.000000000E+00  0.000000000E+00  1.266782610E+02  1.266782610E+02  0.000000000E+00  0.00000E+00  9.000E+00
      21    -1     0     0   512   502  0.000000000E+00  0.000000000E+00 -1.792536856E+03  1.792536856E+03  0.000000000E+00  0.00000E+00  9.000E+00
      25     1     1     2     0     0 -2.137679758E+02  3.785240402E+02 -7.037006356E+02  8.365385711E+02  1.250000000E+02  0.00000E+00  9.000E+00
      25     1     1     2     0     0  1.551079244E+02 -3.217885882E+02 -5.846843382E+02  6.964819733E+02  1.250000000E+02  0.00000E+00  9.000E+00
      21     1     1     2   512   501  5.866005141E+01 -5.673545198E+01 -3.774736217E+02  3.861945730E+02  5.394796609E-06  0.00000E+00  9.000E+00
#rwgt            1           1   2.0435761452377996E-002           1      304401           0
</event>
<event>
      5   9999  3.19816E-02  1.44132E+01 -1.00000E+00  1.79032E-01
      21    -1     0     0   502   501  0.000000000E+00  0.000000000E+00  3.872927419E+02  3.872927419E+02  0.000000000E+00  0.00000E+00  9.000E+00
      21    -1     0     0   511   502  0.000000000E+00  0.000000000E+00 -1.180955908E+02  1.180955908E+02  0.000000000E+00  0.00000E+00  9.000E+00
      25     1     1     2     0     0 -1.400187014E+02  8.568332536E+01  8.030069342E+01  2.214047659E+02  1.250000000E+02  0.00000E+00  9.000E+00
      25     1     1     2     0     0  1.256819912E+02 -8.420020605E+01  1.832680621E+02  2.685103726E+02  1.250000000E+02  0.00000E+00  9.000E+00
      21     1     1     2   511   501  1.433671030E+01 -1.483119309E+00  5.628395606E+00  1.547319431E+01  2.731427965E-07  0.00000E+00  9.000E+00
#rwgt            1           1   3.1958206817499626E-002           1      304475           0
</event>
<event>
      5   9999  3.19816E-02  1.70944E+02 -1.00000E+00  1.14188E-01
      21    -1     0     0   502   501  0.000000000E+00  0.000000000E+00  2.421788629E+02  2.421788629E+02  0.000000000E+00  0.00000E+00  9.000E+00
      21    -1     0     0   501   512  0.000000000E+00  0.000000000E+00 -9.089969865E+02  9.089969865E+02  0.000000000E+00  0.00000E+00  9.000E+00
      25     1     1     2     0     0 -6.956367770E+01 -4.515035037E+01  1.455303548E+02  2.090017788E+02  1.250000000E+02  0.00000E+00  9.000E+00
      25     1     1     2     0     0 -3.015012336E+01  1.839995742E+02 -1.817916823E+02  2.888565198E+02  1.250000000E+02  0.00000E+00  9.000E+00
      21     1     1     2   502   512  9.971380106E+01 -1.388492239E+02 -6.305567961E+02  6.533175508E+02  7.629394531E-06  0.00000E+00  9.000E+00
#rwgt            1           1   2.7279195375148672E-002           1      304704           0
</event>
<event>
      5   9999  3.66039E-02  2.09417E+01 -1.00000E+00  1.64737E-01
      21    -1     0     0   511   501  0.000000000E+00  0.000000000E+00  2.569289389E+02  2.569289389E+02  0.000000000E+00  0.00000E+00  9.000E+00
      21    -1     0     0   501   502  0.000000000E+00  0.000000000E+00 -3.445456737E+02  3.445456737E+02  0.000000000E+00  0.00000E+00  9.000E+00
      25     1     1     2     0     0 -2.058349116E+01  1.783140611E+02  9.865853000E+01  2.399543499E+02  1.250000000E+02  0.00000E+00  9.000E+00
      25     1     1     2     0     0  8.405400933E+00 -1.612773510E+02 -2.332921617E+02  3.100504272E+02  1.250000000E+02  0.00000E+00  9.000E+00
      21     1     1     2   511   502  1.217809022E+01 -1.703671007E+01  4.701689689E+01  5.146983548E+01  0.000000000E+00  0.00000E+00  9.000E+00
#rwgt            1           1   3.4877769842417763E-002           1      304734           0
</event>
<event>
      5   9999  3.19816E-02  3.74624E+01 -1.00000E+00  1.46628E-01
      21    -1     0     0   512   501  0.000000000E+00  0.000000000E+00  5.463896568E+02  5.463896568E+02  0.000000000E+00  0.00000E+00  9.000E+00
      21    -1     0     0   501   502  0.000000000E+00  0.000000000E+00 -2.343757813E+02  2.343757813E+02  0.000000000E+00  0.00000E+00  9.000E+00
      25     1     1     2     0     0 -1.356045498E+02  1.288743855E+02  4.094454289E+02  4.671913531E+02  1.250000000E+02  0.00000E+00  9.000E+00
      25     1     1     2     0     0  9.991924588E+01 -1.174731151E+02 -1.501467130E+02  2.489032420E+02  1.250000000E+02  0.00000E+00  9.000E+00
      21     1     1     2   512   502  3.568530389E+01 -1.140127038E+01  5.271515956E+01  6.467084295E+01  9.536743164E-07  0.00000E+00  9.000E+00
#rwgt            1           1   2.7586523701001800E-002           1      304935           0
</event>
<event>
      5   9999  3.19816E-02  1.20397E+01 -1.00000E+00  1.86877E-01
      21    -1     0     0   511   501  0.000000000E+00  0.000000000E+00  2.616111303E+02  2.616111303E+02  0.000000000E+00  0.00000E+00  9.000E+00
      21    -1     0     0   501   502  0.000000000E+00  0.000000000E+00 -3.537209490E+02  3.537209490E+02  0.000000000E+00  0.00000E+00  9.000E+00
      25     1     1     2     0     0  2.412954676E+02 -4.342290663E+01 -1.148060595E+02  2.981853162E+02  1.250000000E+02  0.00000E+00  9.000E+00
      25     1     1     2     0     0 -2.458758964E+02  5.455726200E+01 -1.097892631E+01  2.813840580E+02  1.250000000E+02  0.00000E+00  9.000E+00
      21     1     1     2   511   502  4.580428803E+00 -1.113435538E+01  3.367516712E+01  3.576270513E+01  4.768371582E-07  0.00000E+00  9.000E+00
#rwgt            1           1   2.7301019807414263E-002           1      305021           0
</event>
<event>
      5   9999  3.19816E-02  1.21022E+02 -1.00000E+00  1.20212E-01
      21    -1     0     0   502   501  0.000000000E+00  0.000000000E+00  2.475690682E+02  2.475690682E+02  0.000000000E+00  0.00000E+00  9.000E+00
      21    -1     0     0   501   512  0.000000000E+00  0.000000000E+00 -4.132502660E+02  4.132502660E+02  0.000000000E+00  0.00000E+00  9.000E+00
      25     1     1     2     0     0  9.970231276E+01 -1.061403477E+01 -2.084015656E+02  2.628867084E+02  1.250000000E+02  0.00000E+00  9.000E+00
      25     1     1     2     0     0 -8.368688092E+00 -6.878683495E+01  1.701375621E+02  2.222013808E+02  1.250000000E+02  0.00000E+00  9.000E+00
      21     1     1     2   502   512 -9.133362466E+01  7.940086972E+01 -1.274171942E+02  1.757312451E+02  1.907348633E-06  0.00000E+00  9.000E+00
#rwgt            1           1   3.1994360489224605E-002           1      305316           0
</event>
<event>
      5   9999  3.19816E-02  8.93144E+01 -1.00000E+00  1.26076E-01
      21    -1     0     0   502   511  0.000000000E+00  0.000000000E+00  1.637665293E+03  1.637665293E+03  0.000000000E+00  0.00000E+00  9.000E+00
      21    -1     0     0   501   502  0.000000000E+00  0.000000000E+00 -4.214380251E+02  4.214380251E+02  0.000000000E+00  0.00000E+00  9.000E+00
      25     1     1     2     0     0 -2.573101039E+02  4.559188695E+02 -1.515408718E+02  5.591602105E+02  1.250000000E+02  0.00000E+00  9.000E+00
      25     1     1     2     0     0  1.717585973E+02 -4.815705684E+02  1.171506352E+03  1.284314354E+03  1.250000000E+02  0.00000E+00  9.000E+00
      21     1     1     2   501   511  8.555150666E+01  2.565169889E+01  1.962617881E+02  2.156287537E+02  2.697398305E-06  0.00000E+00  9.000E+00
#rwgt            1           1   2.9360376957979935E-002           1      305386           0
</event>
<event>
      5   9999  3.19816E-02  6.41251E+01 -1.00000E+00  1.33178E-01
      21    -1     0     0   512   501  0.000000000E+00  0.000000000E+00  5.095595946E+02  5.095595946E+02  0.000000000E+00  0.00000E+00  9.000E+00
      21    -1     0     0   501   502  0.000000000E+00  0.000000000E+00 -8.101127995E+02  8.101127995E+02  0.000000000E+00  0.00000E+00  9.000E+00
      25     1     1     2     0     0 -8.655653581E+01  4.426332687E+01 -7.391458255E+02  7.559185322E+02  1.250000000E+02  0.00000E+00  9.000E+00
      25     1     1     2     0     0  1.446915512E+02 -7.132515745E+01  1.157795985E+02  2.346334130E+02  1.250000000E+02  0.00000E+00  9.000E+00
      21     1     1     2   512   502 -5.813501537E+01  2.706183058E+01  3.228130220E+02  3.291204489E+02  5.394796609E-06  0.00000E+00  9.000E+00
#rwgt            1           1   2.7885932155677237E-002           1      305462           0
</event>
<event>
      5   9999  3.19816E-02  2.32829E+01 -1.00000E+00  1.61101E-01
      21    -1     0     0   502   511  0.000000000E+00  0.000000000E+00  1.481666641E+02  1.481666641E+02  0.000000000E+00  0.00000E+00  9.000E+00
      21    -1     0     0   501   502  0.000000000E+00  0.000000000E+00 -1.413281400E+03  1.413281400E+03  0.000000000E+00  0.00000E+00  9.000E+00
      25     1     1     2     0     0  1.533537989E+02  1.525029243E+00 -1.006273278E+03  1.025539187E+03  1.250000000E+02  0.00000E+00  9.000E+00
      25     1     1     2     0     0 -1.764675242E+02  1.276401743E+00 -3.666170072E+02  4.256470912E+02  1.250000000E+02  0.00000E+00  9.000E+00
      21     1     1     2   501   511  2.311372536E+01 -2.801430986E+00  1.077755496E+02  1.102617858E+02  4.264961200E-06  0.00000E+00  9.000E+00
#rwgt            1           1   3.3379663412827616E-002           1      305537           0
</event>
<event>
      5   9999  3.19816E-02  7.86393E+01 -1.00000E+00  1.28711E-01
      21    -1     0     0   512   501  0.000000000E+00  0.000000000E+00  5.389173105E+02  5.389173105E+02  0.000000000E+00  0.00000E+00  9.000E+00
      21    -1     0     0   501   502  0.000000000E+00  0.000000000E+00 -8.701451727E+02  8.701451727E+02  0.000000000E+00  0.00000E+00  9.000E+00
      25     1     1     2     0     0 -5.121272778E+02 -3.219416847E+02 -4.616396941E+02  7.711400678E+02  1.250000000E+02  0.00000E+00  9.000E+00
      25     1     1     2     0     0  4.611364394E+02  2.620745963E+02  1.026020368E+02  5.545106741E+02  1.250000000E+02  0.00000E+00  9.000E+00
      21     1     1     2   512   502  5.099083846E+01  5.986708840E+01  2.780979500E+01  8.341174125E+01  4.768371582E-07  0.00000E+00  9.000E+00
#rwgt            2          11   6.2153324564587307E-003           1      305665           0
</event>
<event>
      5   9999  3.19816E-02  4.94070E+01 -1.00000E+00  1.39372E-01
      21    -1     0     0   502   511  0.000000000E+00  0.000000000E+00  3.680700500E+02  3.680700500E+02  0.000000000E+00  0.00000E+00  9.000E+00
      21    -1     0     0   501   502  0.000000000E+00  0.000000000E+00 -9.880288920E+02  9.880288920E+02  0.000000000E+00  0.00000E+00  9.000E+00
      25     1     1     2     0     0  2.487811363E+02  7.922177153E+01 -3.321821422E+02  4.406110739E+02  1.250000000E+02  0.00000E+00  9.000E+00
      25     1     1     2     0     0 -2.648378592E+02 -1.259468822E+02 -5.569963065E+02  6.417722292E+02  1.250000000E+02  0.00000E+00  9.000E+00
      21     1     1     2   501   511  1.605672285E+01  4.672511065E+01  2.692196067E+02  2.737156389E+02  3.814697266E-06  0.00000E+00  9.000E+00
#rwgt            1           1   3.2553516193869224E-002           1      305715           0
</event>
<event>
      5   9999  3.19816E-02  2.12964E+02 -1.00000E+00  1.10664E-01
      21    -1     0     0   502   501  0.000000000E+00  0.000000000E+00  3.158320736E+02  3.158320736E+02  0.000000000E+00  0.00000E+00  9.000E+00
       2    -1     0     0   501     0  0.000000000E+00  0.000000000E+00 -1.685867917E+03  1.685867917E+03  0.000000000E+00  0.00000E+00  9.000E+00
      25     1     1     2     0     0  1.099967718E+02 -1.837296945E+01  2.401971529E+02  2.928421556E+02  1.250000000E+02  0.00000E+00  9.000E+00
      25     1     1     2     0     0 -3.226867754E+02  2.916797745E+01 -8.216949882E+02  8.920679232E+02  1.250000000E+02  0.00000E+00  9.000E+00
       2     1     1     2   502     0  2.126900036E+02 -1.079500799E+01 -7.885380085E+02  8.167899122E+02  1.078959322E-05  0.00000E+00  9.000E+00
#rwgt            1           1   2.9464066403189798E-002           1      305813           0
</event>
<event>
      5   9999  3.19816E-02  1.00201E+03 -1.00000E+00  9.09702E-02
       1    -1     0     0   502     0  0.000000000E+00  0.000000000E+00  1.875843917E+03  1.875843917E+03  0.000000000E+00  0.00000E+00  9.000E+00
      21    -1     0     0   501   502  0.000000000E+00  0.000000000E+00 -9.546796675E+02  9.546796675E+02  0.000000000E+00  0.00000E+00  9.000E+00
      25     1     1     2     0     0  1.058106700E+03 -2.172539603E+02  4.372728141E+02  1.172016035E+03  1.250000000E+02  0.00000E+00  9.000E+00
      25     1     1     2     0     0 -2.681959299E+02 -3.992464455E+02 -8.815544350E+01  5.047010633E+02  1.250000000E+02  0.00000E+00  9.000E+00
       1     1     1     2   501     0 -7.899107705E+02  6.165004058E+02  5.720468792E+02  1.153806486E+03  1.525878906E-05  0.00000E+00  9.000E+00
#rwgt            2          17   2.4632325412689580E-004           1      305958           0
</event>
<event>
      5   9999  3.19816E-02  9.85699E+01 -1.00000E+00  1.24110E-01
      21    -1     0     0   502   501  0.000000000E+00  0.000000000E+00  8.717987491E+02  8.717987491E+02  0.000000000E+00  0.00000E+00  9.000E+00
      21    -1     0     0   501   511  0.000000000E+00  0.000000000E+00 -1.250575683E+02  1.250575683E+02  0.000000000E+00  0.00000E+00  9.000E+00
      25     1     1     2     0     0 -2.280277640E+01  1.626557462E+02  9.787021520E+01  2.284303776E+02  1.250000000E+02  0.00000E+00  9.000E+00
      25     1     1     2     0     0  5.609080669E+01 -2.554347162E+02  5.793208228E+02  6.477890773E+02  1.250000000E+02  0.00000E+00  9.000E+00
      21     1     1     2   502   511 -3.328803029E+01  9.277896998E+01  6.955014273E+01  1.206368625E+02  9.536743164E-07  0.00000E+00  9.000E+00
#rwgt            1           1   2.8080476385523606E-002           1      306007           0
</event>
<event>
      5   9999  3.19816E-02  4.56438E+01 -1.00000E+00  1.41373E-01
      21    -1     0     0   512   501  0.000000000E+00  0.000000000E+00  1.063819595E+03  1.063819595E+03  0.000000000E+00  0.00000E+00  9.000E+00
      21    -1     0     0   501   502  0.000000000E+00  0.000000000E+00 -5.133952508E+02  5.133952508E+02  0.000000000E+00  0.00000E+00  9.000E+00
      25     1     1     2     0     0  4.679117195E+02 -3.954873610E+01 -2.906238771E+02  5.662090760E+02  1.250000000E+02  0.00000E+00  9.000E+00
      25     1     1     2     0     0 -4.904990661E+02 -1.144735089E-01  8.121739479E+02  9.569957516E+02  1.250000000E+02  0.00000E+00  9.000E+00
      21     1     1     2   512   502  2.258734657E+01  3.966320961E+01  2.887427391E+01  5.401001865E+01  0.000000000E+00  0.00000E+00  9.000E+00
#rwgt            1           1   3.1612047084059146E-002           1      306076           0
</event>
<event>
      5   9999  3.19816E-02  2.56421E+01 -1.00000E+00  1.57930E-01
      21    -1     0     0   502   501  0.000000000E+00  0.000000000E+00  7.465998480E+02  7.465998480E+02  0.000000000E+00  0.00000E+00  9.000E+00
      21    -1     0     0   501   511  0.000000000E+00  0.000000000E+00 -4.963793871E+01  4.963793871E+01  0.000000000E+00  0.00000E+00  9.000E+00
      25     1     1     2     0     0  7.040507240E+01  4.534271439E+00  5.628060729E+02  5.808210650E+02  1.250000000E+02  0.00000E+00  9.000E+00
      25     1     1     2     0     0 -6.185596524E+01 -2.870926102E+01  1.194338238E+02  1.858489181E+02  1.250000000E+02  0.00000E+00  9.000E+00
      21     1     1     2   502   511 -8.549107157E+00  2.417498958E+01  1.472201257E+01  2.956780358E+01  0.000000000E+00  0.00000E+00  9.000E+00
#rwgt            1           1   2.6700600422781644E-002           1      306219           0
</event>
<event>
      5   9999  3.19816E-02  1.72023E+01 -1.00000E+00  1.71956E-01
      21    -1     0     0   502   501  0.000000000E+00  0.000000000E+00  4.194386585E+02  4.194386585E+02  0.000000000E+00  0.00000E+00  9.000E+00
       1    -1     0     0   501     0  0.000000000E+00  0.000000000E+00 -1.217083014E+03  1.217083014E+03  0.000000000E+00  0.00000E+00  9.000E+00
      25     1     1     2     0     0 -6.161129770E+00  7.111053414E+01  3.473053106E+02  3.759529842E+02  1.250000000E+02  0.00000E+00  9.000E+00
      25     1     1     2     0     0  1.209016939E+01 -8.725874587E+01 -4.350596011E+01  1.589906585E+02  1.250000000E+02  0.00000E+00  9.000E+00
       1     1     1     2   502     0 -5.929039619E+00  1.614821174E+01 -1.101443706E+03  1.101578030E+03  2.157918644E-05  0.00000E+00  9.000E+00
#rwgt            1           1   2.9111243087462130E-002           1      306303           0
</event>
<event>
      5   9999  3.19816E-02  4.30628E+01 -1.00000E+00  1.42881E-01
      21    -1     0     0   502   511  0.000000000E+00  0.000000000E+00  2.018388836E+03  2.018388836E+03  0.000000000E+00  0.00000E+00  9.000E+00
      21    -1     0     0   501   502  0.000000000E+00  0.000000000E+00 -7.733096310E+02  7.733096310E+02  0.000000000E+00  0.00000E+00  9.000E+00
      25     1     1     2     0     0  6.979682167E+02 -8.013801094E+02  3.527865364E+02  1.126700072E+03  1.250000000E+02  0.00000E+00  9.000E+00
      25     1     1     2     0     0 -7.223435264E+02  8.368800466E+02  4.175817582E+02  1.188338297E+03  1.250000000E+02  0.00000E+00  9.000E+00
      21     1     1     2   501   511  2.437530966E+01 -3.549993720E+01  4.747109106E+02  4.766600989E+02  0.000000000E+00  0.00000E+00  9.000E+00
#rwgt            1           1   3.4189003673318660E-002           1      306428           0
</event>
<event>
      5   9999  3.19816E-02  3.80598E+01 -1.00000E+00  1.46192E-01
      21    -1     0     0   502   512  0.000000000E+00  0.000000000E+00  5.395964047E+02  5.395964047E+02  0.000000000E+00  0.00000E+00  9.000E+00
      21    -1     0     0   501   502  0.000000000E+00  0.000000000E+00 -2.381491620E+02  2.381491620E+02  0.000000000E+00  0.00000E+00  9.000E+00
      25     1     1     2     0     0 -1.340410907E+02 -1.311429593E+02 -4.244417216E+01  2.293294519E+02  1.250000000E+02  0.00000E+00  9.000E+00
      25     1     1     2     0     0  9.678034109E+01  1.389008102E+02  8.226580389E+00  2.106004419E+02  1.250000000E+02  0.00000E+00  9.000E+00
      21     1     1     2   501   512  3.726074957E+01 -7.757850873E+00  3.356648345E+02  3.378156729E+02  0.000000000E+00  0.00000E+00  9.000E+00
#rwgt            1           1   2.6899341503472503E-002           1      306532           0
</event>
<event>
      5   9999  3.19816E-02  1.45070E+02 -1.00000E+00  1.16972E-01
      21    -1     0     0   502   511  0.000000000E+00  0.000000000E+00  6.418781660E+02  6.418781660E+02  0.000000000E+00  0.00000E+00  9.000E+00
      21    -1     0     0   501   502  0.000000000E+00  0.000000000E+00 -6.757764957E+02  6.757764957E+02  0.000000000E+00  0.00000E+00  9.000E+00
      25     1     1     2     0     0 -4.690163361E+02  1.250534035E+02  2.322059149E+02  5.524122230E+02  1.250000000E+02  0.00000E+00  9.000E+00
      25     1     1     2     0     0  3.927873625E+02 -1.625086729E+00 -3.952027648E+02  5.710470894E+02  1.250000000E+02  0.00000E+00  9.000E+00
      21     1     1     2   501   511  7.622897359E+01 -1.234283168E+02  1.290985201E+02  1.941953493E+02  4.672030912E-06  0.00000E+00  9.000E+00
#rwgt            2          11   4.5677645296445758E-003           1      306660           0
</event>
<event>
      5   9999  3.19816E-02  3.55169E+01 -1.00000E+00  1.48116E-01
      21    -1     0     0   512   501  0.000000000E+00  0.000000000E+00  1.348510349E+03  1.348510349E+03  0.000000000E+00  0.00000E+00  9.000E+00
      21    -1     0     0   501   502  0.000000000E+00  0.000000000E+00 -1.709749874E+02  1.709749874E+02  0.000000000E+00  0.00000E+00  9.000E+00
      25     1     1     2     0     0 -2.926228486E+02 -3.029241281E+02  7.027858638E+02  8.288088617E+02  1.250000000E+02  0.00000E+00  9.000E+00
      25     1     1     2     0     0  2.786472740E+02  3.355758606E+02  3.882728528E+02  5.971903129E+02  1.250000000E+02  0.00000E+00  9.000E+00
      21     1     1     2   512   502  1.397557464E+01 -3.265173248E+01  8.647664453E+01  9.348616138E+01  0.000000000E+00  0.00000E+00  9.000E+00
#rwgt            1           1   2.5738617775785354E-002           1      306680           0
</event>
<event>
      5   9999  3.19816E-02  6.72029E+01 -1.00000E+00  1.32124E-01
      21    -1     0     0   502   501  0.000000000E+00  0.000000000E+00  1.233550337E+02  1.233550337E+02  0.000000000E+00  0.00000E+00  9.000E+00
       1    -1     0     0   501     0  0.000000000E+00  0.000000000E+00 -1.559705990E+03  1.559705990E+03  0.000000000E+00  0.00000E+00  9.000E+00
      25     1     1     2     0     0  2.204306843E+02 -9.321692973E+01 -4.274364367E+02  5.055749104E+02  1.250000000E+02  0.00000E+00  9.000E+00
      25     1     1     2     0     0 -1.723080266E+02  1.401258355E+02 -1.125395484E+02  2.785955056E+02  1.250000000E+02  0.00000E+00  9.000E+00
       1     1     1     2   502     0 -4.812265770E+01 -4.690890573E+01 -8.963749717E+02  8.988906082E+02  1.078959322E-05  0.00000E+00  9.000E+00
#rwgt            1           1   2.5676441296824368E-002           1      306829           0
</event>
<event>
      5   9999  3.19816E-02  2.04204E+01 -1.00000E+00  1.65627E-01
      21    -1     0     0   511   501  0.000000000E+00  0.000000000E+00  5.029588922E+02  5.029588922E+02  0.000000000E+00  0.00000E+00  9.000E+00
      21    -1     0     0   501   502  0.000000000E+00  0.000000000E+00 -3.705173937E+02  3.705173937E+02  0.000000000E+00  0.00000E+00  9.000E+00
      25     1     1     2     0     0 -3.594019964E+02 -1.261558585E+02 -5.391032770E+01  4.044952646E+02  1.250000000E+02  0.00000E+00  9.000E+00
      25     1     1     2     0     0  3.697521660E+02  1.085528706E+02  1.598386906E+02  4.355155531E+02  1.250000000E+02  0.00000E+00  9.000E+00
      21     1     1     2   511   502 -1.035016959E+01  1.760298791E+01  2.651313564E+01  3.346546811E+01  6.743495762E-07  0.00000E+00  9.000E+00
#rwgt            1           1   2.9502827376528075E-002           1      306988           0
</event>
<event>
      5   9999  3.19816E-02  2.04925E+02 -1.00000E+00  1.11265E-01
      21    -1     0     0   502   501  0.000000000E+00  0.000000000E+00  7.759068711E+02  7.759068711E+02  0.000000000E+00  0.00000E+00  9.000E+00
      21    -1     0     0   501   512  0.000000000E+00  0.000000000E+00 -7.335540973E+02  7.335540973E+02  0.000000000E+00  0.00000E+00  9.000E+00
      25     1     1     2     0     0  3.909399731E+02  1.118562255E+02  5.039131953E+02  6.594690183E+02  1.250000000E+02  0.00000E+00  9.000E+00
      25     1     1     2     0     0 -2.065573945E+02 -2.242843455E+01  9.229115514E+01  2.594448867E+02  1.250000000E+02  0.00000E+00  9.000E+00
      21     1     1     2   502   512 -1.843825787E+02 -8.942779095E+01 -5.538515766E+02  5.905470633E+02  7.629394531E-06  0.00000E+00  9.000E+00
#rwgt            1           1   2.8192259756344297E-002           1      307129           0
</event>
<event>
      5   9999  3.19816E-02  9.76205E+01 -1.00000E+00  1.24300E-01
      21    -1     0     0   502   501  0.000000000E+00  0.000000000E+00  2.487890111E+02  2.487890111E+02  0.000000000E+00  0.00000E+00  9.000E+00
       2    -1     0     0   501     0  0.000000000E+00  0.000000000E+00 -2.358481520E+03  2.358481520E+03  0.000000000E+00  0.00000E+00  9.000E+00
      25     1     1     2     0     0 -1.925672619E+02  1.472037831E+02 -3.646771442E+01  2.751472302E+02  1.250000000E+02  0.00000E+00  9.000E+00
      25     1     1     2     0     0  2.852918345E+02 -1.166765847E+02 -8.740206245E+01  3.439025688E+02  1.250000000E+02  0.00000E+00  9.000E+00
       2     1     1     2   502     0 -9.272457266E+01 -3.052719839E+01 -1.985822732E+03  1.988220732E+03  2.157918644E-05  0.00000E+00  9.000E+00
#rwgt            1           1   2.6161793202477451E-002           1      307167           0
</event>
<event>
      5   9999  3.19816E-02  4.90664E+01 -1.00000E+00  1.39544E-01
      21    -1     0     0   502   501  0.000000000E+00  0.000000000E+00  1.520939754E+02  1.520939754E+02  0.000000000E+00  0.00000E+00  9.000E+00
       2    -1     0     0   501     0  0.000000000E+00  0.000000000E+00 -2.235980653E+03  2.235980653E+03  0.000000000E+00  0.00000E+00  9.000E+00
      25     1     1     2     0     0 -1.395498398E+02 -2.121057862E+02 -2.364062477E+02  3.687491509E+02  1.250000000E+02  0.00000E+00  9.000E+00
      25     1     1     2     0     0  1.530875227E+02  2.592676772E+02 -2.250225213E+02  3.961258047E+02  1.250000000E+02  0.00000E+00  9.000E+00
       2     1     1     2   502     0 -1.353768285E+01 -4.716189097E+01 -1.622457909E+03  1.623199673E+03  0.000000000E+00  0.00000E+00  9.000E+00
#rwgt            1           1   2.8394777291560380E-002           1      307227           0
</event>
<event>
      5   9999  3.19816E-02  3.83571E+02 -1.00000E+00  1.02237E-01
      21    -1     0     0   502   501  0.000000000E+00  0.000000000E+00  1.590287215E+02  1.590287215E+02  0.000000000E+00  0.00000E+00  9.000E+00
      21    -1     0     0   501   511  0.000000000E+00  0.000000000E+00 -1.860601602E+03  1.860601602E+03  0.000000000E+00  0.00000E+00  9.000E+00
      25     1     1     2     0     0 -4.599239065E+02 -3.551299701E+01 -7.401707175E+02  8.810612145E+02  1.250000000E+02  0.00000E+00  9.000E+00
      25     1     1     2     0     0  1.206656887E+02 -1.434568329E+02 -3.235896435E+02  3.943035997E+02  1.250000000E+02  0.00000E+00  9.000E+00
      21     1     1     2   502   511  3.392582178E+02  1.789698299E+02 -6.378125199E+02  7.442655097E+02  7.629394531E-06  0.00000E+00  9.000E+00
#rwgt            2          11   2.1678777850295461E-003           1      307380           0
</event>
<event>
      5   9999  3.19816E-02  2.21976E+02 -1.00000E+00  1.10024E-01
      21    -1     0     0   512   501  0.000000000E+00  0.000000000E+00  5.815756888E+02  5.815756888E+02  0.000000000E+00  0.00000E+00  9.000E+00
      21    -1     0     0   501   502  0.000000000E+00  0.000000000E+00 -1.191677391E+03  1.191677391E+03  0.000000000E+00  0.00000E+00  9.000E+00
      25     1     1     2     0     0 -7.070545124E+02  2.422189307E+02 -2.278991083E+02  7.913021531E+02  1.250000000E+02  0.00000E+00  9.000E+00
      25     1     1     2     0     0  4.958387913E+02 -3.104929597E+02 -4.514075348E+02  7.494369536E+02  1.250000000E+02  0.00000E+00  9.000E+00
      21     1     1     2   512   502  2.112157211E+02  6.827402907E+01  6.920494083E+01  2.325139732E+02  2.861022949E-06  0.00000E+00  9.000E+00
#rwgt            2          11   5.4590104896884211E-003           1      307475           0
</event>
<event>
      5   9999  3.19816E-02  2.11680E+01 -1.00000E+00  1.64361E-01
      21    -1     0     0   502   501  0.000000000E+00  0.000000000E+00  9.931403621E+01  9.931403621E+01  0.000000000E+00  0.00000E+00  9.000E+00
      21    -1     0     0   511   502  0.000000000E+00  0.000000000E+00 -3.608779938E+02  3.608779938E+02  0.000000000E+00  0.00000E+00  9.000E+00
      25     1     1     2     0     0  1.023370395E+01  1.236459842E+02 -8.001380267E+01  1.934431873E+02  1.250000000E+02  0.00000E+00  9.000E+00
      25     1     1     2     0     0  9.704543164E+00 -1.165362231E+02 -1.441932810E+02  2.238114647E+02  1.250000000E+02  0.00000E+00  9.000E+00
      21     1     1     2   511   501 -1.993824711E+01 -7.109761112E+00 -3.735687387E+01  4.293737797E+01  0.000000000E+00  0.00000E+00  9.000E+00
#rwgt            1           1   2.9765630226235011E-002           1      307510           0
</event>
<event>
      5   9999  3.19816E-02  1.18616E+02 -1.00000E+00  1.20583E-01
      21    -1     0     0   512   501  0.000000000E+00  0.000000000E+00  1.392610257E+03  1.392610257E+03  0.000000000E+00  0.00000E+00  9.000E+00
      21    -1     0     0   501   502  0.000000000E+00  0.000000000E+00 -1.071659906E+03  1.071659906E+03  0.000000000E+00  0.00000E+00  9.000E+00
      25     1     1     2     0     0  1.689661901E+02  2.017938920E+02  1.268506931E+03  1.301539543E+03  1.250000000E+02  0.00000E+00  9.000E+00
      25     1     1     2     0     0 -2.100607218E+02 -3.130633090E+02 -9.643398679E+02  1.042933614E+03  1.250000000E+02  0.00000E+00  9.000E+00
      21     1     1     2   512   502  4.109453172E+01  1.112694170E+02  1.678328768E+01  1.197970052E+02  2.384185791E-07  0.00000E+00  9.000E+00
#rwgt            1           1   7.1366946603675208E-002           1      307669           0
</event>
<event>
      5   9999  3.19816E-02  5.05720E+01 -1.00000E+00  1.38794E-01
      21    -1     0     0   511   501  0.000000000E+00  0.000000000E+00  1.987979460E+02  1.987979460E+02  0.000000000E+00  0.00000E+00  9.000E+00
      21    -1     0     0   501   502  0.000000000E+00  0.000000000E+00 -4.313401815E+02  4.313401815E+02  0.000000000E+00  0.00000E+00  9.000E+00
      25     1     1     2     0     0 -1.913516351E+02  1.049250325E+02 -7.392217703E+01  2.621339333E+02  1.250000000E+02  0.00000E+00  9.000E+00
      25     1     1     2     0     0  2.297189665E+02 -7.197855742E+01 -1.642755916E+02  3.171169915E+02  1.250000000E+02  0.00000E+00  9.000E+00
      21     1     1     2   511   502 -3.836733141E+01 -3.294647505E+01  5.655533169E+00  5.088720264E+01  1.121454699E-06  0.00000E+00  9.000E+00
#rwgt            1           1   2.7792648935686934E-002           1      307771           0
</event>
<event>
      5   9999  3.19816E-02  2.39488E+02 -1.00000E+00  1.08872E-01
      21    -1     0     0   512   501  0.000000000E+00  0.000000000E+00  1.175637558E+03  1.175637558E+03  0.000000000E+00  0.00000E+00  9.000E+00
      21    -1     0     0   501   502  0.000000000E+00  0.000000000E+00 -9.348107552E+02  9.348107552E+02  0.000000000E+00  0.00000E+00  9.000E+00
      25     1     1     2     0     0  3.034304908E+01 -4.953490174E+02  1.809666577E+02  5.428308032E+02  1.250000000E+02  0.00000E+00  9.000E+00
      25     1     1     2     0     0 -2.697043109E+02  4.875604852E+02 -6.223275714E+02  8.446136680E+02  1.250000000E+02  0.00000E+00  9.000E+00
      21     1     1     2   512   502  2.393612618E+02  7.788532243E+00  6.821877168E+02  7.230038422E+02  1.525878906E-05  0.00000E+00  9.000E+00
#rwgt            2          11   3.0634153794537118E-003           1      307944           0
</event>
<event>
      5   9999  3.19816E-02  3.81809E+01 -1.00000E+00  1.46105E-01
      21    -1     0     0   502   501  0.000000000E+00  0.000000000E+00  7.571171647E+01  7.571171647E+01  0.000000000E+00  0.00000E+00  9.000E+00
      21    -1     0     0   501   511  0.000000000E+00  0.000000000E+00 -6.529049217E+02  6.529049217E+02  0.000000000E+00  0.00000E+00  9.000E+00
      25     1     1     2     0     0 -4.425351616E+01  4.554546165E+01 -1.689661688E+01  1.412206020E+02  1.250000000E+02  0.00000E+00  9.000E+00
      25     1     1     2     0     0  7.213407768E+00 -5.480876918E+01 -4.036034447E+02  4.261182641E+02  1.250000000E+02  0.00000E+00  9.000E+00
      21     1     1     2   502   511  3.704010839E+01  9.263307535E+00 -1.566931436E+02  1.612777720E+02  1.907348633E-06  0.00000E+00  9.000E+00
#rwgt            1           1   2.4805527500630743E-002           1      307964           0
</event>
<event>
      5   9999  3.19816E-02  3.72772E+01 -1.00000E+00  1.46765E-01
      21    -1     0     0   502   501  0.000000000E+00  0.000000000E+00  1.260119082E+02  1.260119082E+02  0.000000000E+00  0.00000E+00  9.000E+00
      21    -1     0     0   501   512  0.000000000E+00  0.000000000E+00 -3.067713882E+02  3.067713882E+02  0.000000000E+00  0.00000E+00  9.000E+00
      25     1     1     2     0     0  7.157280266E+01 -8.842265615E+01 -4.424688341E+01  1.747112443E+02  1.250000000E+02  0.00000E+00  9.000E+00
      25     1     1     2     0     0 -4.633855504E+01  1.158602049E+02 -8.929357655E+01  1.979120804E+02  1.250000000E+02  0.00000E+00  9.000E+00
      21     1     1     2   502   512 -2.523424762E+01 -2.743754875E+01 -4.721902008E+01  6.015997168E+01  1.168007728E-06  0.00000E+00  9.000E+00
#rwgt            1           1   2.7787369143375328E-002           1      308036           0
</event>
<event>
      5   9999  3.19816E-02  2.36136E+02 -1.00000E+00  1.09084E-01
      21    -1     0     0   502   501  0.000000000E+00  0.000000000E+00  8.829957449E+02  8.829957449E+02  0.000000000E+00  0.00000E+00  9.000E+00
       1    -1     0     0   501     0  0.000000000E+00  0.000000000E+00 -2.704040267E+02  2.704040267E+02  0.000000000E+00  0.00000E+00  9.000E+00
      25     1     1     2     0     0  2.985095306E+02 -1.233261879E+02  2.737704909E+01  3.474072413E+02  1.250000000E+02  0.00000E+00  9.000E+00
      25     1     1     2     0     0 -6.245373044E+01  1.294807841E+02  5.304063441E+02  5.635793039E+02  1.250000000E+02  0.00000E+00  9.000E+00
       1     1     1     2   502     0 -2.360558001E+02 -6.154596228E+00  5.480832496E+01  2.424132264E+02  1.348699152E-06  0.00000E+00  9.000E+00
#rwgt            1           1   2.7181209254382912E-002           1      308151           0
</event>
<event>
      5   9999  3.19816E-02  4.23106E+01 -1.00000E+00  1.43344E-01
      21    -1     0     0   502   511  0.000000000E+00  0.000000000E+00  1.030158998E+02  1.030158998E+02  0.000000000E+00  0.00000E+00  9.000E+00
      21    -1     0     0   501   502  0.000000000E+00  0.000000000E+00 -9.622669733E+02  9.622669733E+02  0.000000000E+00  0.00000E+00  9.000E+00
      25     1     1     2     0     0 -2.149172731E+02 -4.386653399E+01 -2.504085215E+02  3.555884344E+02  1.250000000E+02  0.00000E+00  9.000E+00
      25     1     1     2     0     0  2.316343912E+02  8.273455117E+01 -6.076633908E+02  6.673674353E+02  1.250000000E+02  0.00000E+00  9.000E+00
      21     1     1     2   501   511 -1.671711813E+01 -3.886801718E+01 -1.179161214E+00  4.232700343E+01  7.399743210E-07  0.00000E+00  9.000E+00
#rwgt            1           1   2.9837257980878197E-002           1      308193           0
</event>
<event>
      5   9999  3.19816E-02  3.53281E+01 -1.00000E+00  1.48267E-01
      21    -1     0     0   512   501  0.000000000E+00  0.000000000E+00  9.921659574E+02  9.921659574E+02  0.000000000E+00  0.00000E+00  9.000E+00
      21    -1     0     0   501   502  0.000000000E+00  0.000000000E+00 -9.607201751E+01  9.607201751E+01  0.000000000E+00  0.00000E+00  9.000E+00
      25     1     1     2     0     0  6.083119366E+01  2.543527642E+02  4.433550850E+02  5.297022694E+02  1.250000000E+02  0.00000E+00  9.000E+00
      25     1     1     2     0     0 -2.639525967E+01 -2.622422136E+02  4.004997614E+02  4.954722466E+02  1.250000000E+02  0.00000E+00  9.000E+00
      21     1     1     2   512   502 -3.443593399E+01  7.889449372E+00  5.223909344E+01  6.306345887E+01  6.743495762E-07  0.00000E+00  9.000E+00
#rwgt            1           1   3.0949305699846309E-002           1      308309           0
</event>
<event>
      5   9999  3.19816E-02  6.17054E+01 -1.00000E+00  1.34056E-01
      21    -1     0     0   502   501  0.000000000E+00  0.000000000E+00  1.322358213E+02  1.322358213E+02  0.000000000E+00  0.00000E+00  9.000E+00
      21    -1     0     0   511   502  0.000000000E+00  0.000000000E+00 -9.978830346E+02  9.978830346E+02  0.000000000E+00  0.00000E+00  9.000E+00
      25     1     1     2     0     0  3.386947354E+01  9.280993232E+01  1.841725737E+01  1.603902121E+02  1.250000000E+02  0.00000E+00  9.000E+00
      25     1     1     2     0     0  2.783409111E+01 -9.233486281E+01 -1.081592847E+02  1.913737035E+02  1.250000000E+02  0.00000E+00  9.000E+00
      21     1     1     2   511   501 -6.170356465E+01 -4.750695107E-01 -7.759051859E+02  7.783549403E+02  1.525878906E-05  0.00000E+00  9.000E+00
#rwgt            1           1   3.1151676682173255E-002           1      308421           0
</event>
<event>
      5   9999  3.19816E-02  1.26770E+02 -1.00000E+00  1.19365E-01
      21    -1     0     0   512   501  0.000000000E+00  0.000000000E+00  8.791531084E+02  8.791531084E+02  0.000000000E+00  0.00000E+00  9.000E+00
      21    -1     0     0   501   502  0.000000000E+00  0.000000000E+00 -7.601627514E+02  7.601627514E+02  0.000000000E+00  0.00000E+00  9.000E+00
      25     1     1     2     0     0  1.045439606E+02  5.542195004E+01  1.061375262E+02  2.022157430E+02  1.250000000E+02  0.00000E+00  9.000E+00
      25     1     1     2     0     0  1.980349885E+01 -8.008471336E+01 -6.985835098E+02  7.144575985E+02  1.250000000E+02  0.00000E+00  9.000E+00
      21     1     1     2   512   502 -1.243474594E+02  2.466276331E+01  7.114363405E+02  7.226425183E+02  1.078959322E-05  0.00000E+00  9.000E+00
#rwgt            2          11   6.0976983057400066E-003           1      308481           0
</event>
<event>
      5   9999  3.19816E-02  9.64162E+00 -1.00000E+00  1.97607E-01
      21    -1     0     0   511   501  0.000000000E+00  0.000000000E+00  2.565307267E+02  2.565307267E+02  0.000000000E+00  0.00000E+00  9.000E+00
      21    -1     0     0   501   502  0.000000000E+00  0.000000000E+00 -1.705160289E+02  1.705160289E+02  0.000000000E+00  0.00000E+00  9.000E+00
      25     1     1     2     0     0 -8.639452692E+01 -6.451769610E+01  1.452936353E+02  2.199131370E+02  1.250000000E+02  0.00000E+00  9.000E+00
      25     1     1     2     0     0  8.412912562E+01  7.388939522E+01 -7.877352560E+01  1.853850610E+02  1.250000000E+02  0.00000E+00  9.000E+00
      21     1     1     2   511   502  2.265401297E+00 -9.371699120E+00  1.949458812E+01  2.174855750E+01  3.371747881E-07  0.00000E+00  9.000E+00
#rwgt            1           1   2.9808717628193350E-002           1      308501           0
</event>
<event>
      5   9999  3.19816E-02  7.04644E+02 -1.00000E+00  9.47957E-02
      21    -1     0     0   512   501  0.000000000E+00  0.000000000E+00  5.099903652E+02  5.099903652E+02  0.000000000E+00  0.00000E+00  9.000E+00
      21    -1     0     0   501   502  0.000000000E+00  0.000000000E+00 -2.988835113E+03  2.988835113E+03  0.000000000E+00  0.00000E+00  9.000E+00
      25     1     1     2     0     0 -3.209050471E+02  4.553018340E+01  2.028526385E+02  4.022775656E+02  1.250000000E+02  0.00000E+00  9.000E+00
      25     1     1     2     0     0 -1.275067905E+01 -6.661729812E+02 -2.016952584E+03  2.127832641E+03  1.250000000E+02  0.00000E+00  9.000E+00
      21     1     1     2   512   502  3.336557261E+02  6.206427978E+02 -6.647448024E+02  9.687152721E+02  1.078959322E-05  0.00000E+00  9.000E+00
#rwgt            2          11   9.8955061100863568E-004           1      308733           0
</event>
<event>
      5   9999  3.19816E-02  2.27814E+01 -1.00000E+00  1.61834E-01
      21    -1     0     0   502   501  0.000000000E+00  0.000000000E+00  1.316070362E+02  1.316070362E+02  0.000000000E+00  0.00000E+00  9.000E+00
      21    -1     0     0   501   511  0.000000000E+00  0.000000000E+00 -5.013403499E+02  5.013403499E+02  0.000000000E+00  0.00000E+00  9.000E+00
      25     1     1     2     0     0  5.468897256E+01  5.873313006E+01 -1.599156608E+01  1.494027927E+02  1.250000000E+02  0.00000E+00  9.000E+00
      25     1     1     2     0     0 -5.817734320E+01 -8.124585980E+01 -3.477776337E+01  1.637680855E+02  1.250000000E+02  0.00000E+00  9.000E+00
      21     1     1     2   502   511  3.488370644E+00  2.251272974E+01 -3.189639843E+02  3.197765079E+02  6.607249480E-06  0.00000E+00  9.000E+00
#rwgt            1           1   6.7055213381656611E-002           1      308753           0
</event>
<event>
      5   9999  3.19816E-02  5.50042E+00 -1.00000E+00  2.31500E-01
      21    -1     0     0   502   501  0.000000000E+00  0.000000000E+00  1.409345297E+03  1.409345297E+03  0.000000000E+00  0.00000E+00  9.000E+00
      21    -1     0     0   501   512  0.000000000E+00  0.000000000E+00 -4.175169485E+02  4.175169485E+02  0.000000000E+00  0.00000E+00  9.000E+00
      25     1     1     2     0     0  1.790275444E+02  3.962831283E+02  1.076057239E+03  1.167311167E+03  1.250000000E+02  0.00000E+00  9.000E+00
      25     1     1     2     0     0 -1.801344827E+02 -3.908952452E+02  1.130255461E+02  4.622199678E+02  1.250000000E+02  0.00000E+00  9.000E+00
      21     1     1     2   502   512  1.106938339E+00 -5.387883126E+00 -1.972544364E+02  1.973311108E+02  3.814697266E-06  0.00000E+00  9.000E+00
#rwgt            1           1   2.8588283972176779E-002           1      308860           0
</event>
<event>
      5   9999  3.19816E-02  3.56090E+01 -1.00000E+00  1.48043E-01
      21    -1     0     0   511   501  0.000000000E+00  0.000000000E+00  1.035449243E+03  1.035449243E+03  0.000000000E+00  0.00000E+00  9.000E+00
      21    -1     0     0   501   502  0.000000000E+00  0.000000000E+00 -8.798211968E+01  8.798211968E+01  0.000000000E+00  0.00000E+00  9.000E+00
      25     1     1     2     0     0 -1.456751019E+02 -2.168673449E+02  3.422882898E+02  4.483736767E+02  1.250000000E+02  0.00000E+00  9.000E+00
      25     1     1     2     0     0  1.207822683E+02  1.914047229E+02  4.836805997E+02  5.484487640E+02  1.250000000E+02  0.00000E+00  9.000E+00
      21     1     1     2   511   502  2.489283367E+01  2.546262206E+01  1.214982336E+02  1.266089217E+02  2.336015456E-06  0.00000E+00  9.000E+00
#rwgt            1           1   2.9416093539900861E-002           1      309171           0
</event>
<event>
      5   9999  3.19816E-02  3.23457E+01 -1.00000E+00  1.50803E-01
      21    -1     0     0   502   501  0.000000000E+00  0.000000000E+00  1.830654242E+03  1.830654242E+03  0.000000000E+00  0.00000E+00  9.000E+00
      21    -1     0     0   501   512  0.000000000E+00  0.000000000E+00 -1.258073070E+02  1.258073070E+02  0.000000000E+00  0.00000E+00  9.000E+00
      25     1     1     2     0     0 -4.282498102E+02  6.004528501E+01  1.167837077E+03  1.251587702E+03  1.250000000E+02  0.00000E+00  9.000E+00
      25     1     1     2     0     0  3.975509838E+02 -7.023496536E+01  4.818029656E+02  6.408890955E+02  1.250000000E+02  0.00000E+00  9.000E+00
      21     1     1     2   502   512  3.069882636E+01  1.018968035E+01  5.520689234E+01  6.398475199E+01  0.000000000E+00  0.00000E+00  9.000E+00
#rwgt            2          11   1.8660041209236783E-002           1      309304           0
</event>
<event>
      5   9999  3.19816E-02  1.23395E+01 -1.00000E+00  1.85763E-01
      21    -1     0     0   502   501  0.000000000E+00  0.000000000E+00  2.577336688E+03  2.577336688E+03  0.000000000E+00  0.00000E+00  9.000E+00
      21    -1     0     0   511   502  0.000000000E+00  0.000000000E+00 -6.309600116E+02  6.309600116E+02  0.000000000E+00  0.00000E+00  9.000E+00
      25     1     1     2     0     0 -3.245913611E+02 -7.150380391E+01  2.430147324E+03  2.455954674E+03  1.250000000E+02  0.00000E+00  9.000E+00
      25     1     1     2     0     0  3.318924822E+02  6.155606242E+01 -1.072118198E+02  3.755810736E+02  1.250000000E+02  0.00000E+00  9.000E+00
      21     1     1     2   511   501 -7.301121110E+00  9.947741488E+00 -3.765588279E+02  3.767609518E+02  5.394796609E-06  0.00000E+00  9.000E+00
#rwgt            1           1   3.4433218347497192E-002           1      309339           0
</event>
<event>
      5   9999  3.19816E-02  1.38548E+02 -1.00000E+00  1.17777E-01
      21    -1     0     0   502   512  0.000000000E+00  0.000000000E+00  3.270130804E+02  3.270130804E+02  0.000000000E+00  0.00000E+00  9.000E+00
      21    -1     0     0   501   502  0.000000000E+00  0.000000000E+00 -8.671119092E+02  8.671119092E+02  0.000000000E+00  0.00000E+00  9.000E+00
      25     1     1     2     0     0 -1.734192413E+02 -3.405931806E+02 -5.134896656E+02  6.522074705E+02  1.250000000E+02  0.00000E+00  9.000E+00
      25     1     1     2     0     0  3.835598583E+01  3.714720966E+02  2.368454075E+01  3.945233296E+02  1.250000000E+02  0.00000E+00  9.000E+00
      21     1     1     2   501   512  1.350632555E+02 -3.087891600E+01 -5.029370391E+01  1.473941895E+02  6.743495762E-07  0.00000E+00  9.000E+00
#rwgt            1           1   2.9578441928352996E-002           1      309600           0
</event>
<event>
      5   9999  3.19816E-02  2.42354E+01 -1.00000E+00  1.59768E-01
      21    -1     0     0   502   501  0.000000000E+00  0.000000000E+00  5.688461202E+02  5.688461202E+02  0.000000000E+00  0.00000E+00  9.000E+00
       2    -1     0     0   501     0  0.000000000E+00  0.000000000E+00 -1.665490031E+03  1.665490031E+03  0.000000000E+00  0.00000E+00  9.000E+00
      25     1     1     2     0     0  6.391707653E+01  8.676175442E+02 -9.025603413E+02  1.259795922E+03  1.250000000E+02  0.00000E+00  9.000E+00
      25     1     1     2     0     0 -4.853884789E+01 -8.863489147E+02 -1.297285971E+02  9.057731103E+02  1.250000000E+02  0.00000E+00  9.000E+00
       2     1     1     2   502     0 -1.537822864E+01  1.873137052E+01 -6.435497277E+01  6.876711916E+01  0.000000000E+00  0.00000E+00  9.000E+00
#rwgt            1           1   3.9413772766549254E-002           1      309730           0
</event>
<event>
      5   9999  3.19816E-02  7.75786E+00 -1.00000E+00  2.09431E-01
      21    -1     0     0   511   501  0.000000000E+00  0.000000000E+00  6.718969086E+02  6.718969086E+02  0.000000000E+00  0.00000E+00  9.000E+00
      21    -1     0     0   501   502  0.000000000E+00  0.000000000E+00 -2.009884704E+02  2.009884704E+02  0.000000000E+00  0.00000E+00  9.000E+00
      25     1     1     2     0     0  2.088204343E+02  9.443814427E+01  5.101709708E+02  5.730828529E+02  1.250000000E+02  0.00000E+00  9.000E+00
      25     1     1     2     0     0 -2.011213898E+02 -9.539163929E+01 -7.272764098E+01  2.654499728E+02  1.250000000E+02  0.00000E+00  9.000E+00
      21     1     1     2   511   502 -7.699044498E+00  9.534950238E-01  3.346510838E+01  3.435255329E+01  4.768371582E-07  0.00000E+00  9.000E+00
#rwgt            1           1   2.8062664993592973E-002           1      309898           0
</event>
<event>
      5   9999  3.19816E-02  4.50165E+02 -1.00000E+00  1.00165E-01
       2    -1     0     0   502     0  0.000000000E+00  0.000000000E+00  3.294321321E+03  3.294321321E+03  0.000000000E+00  0.00000E+00  9.000E+00
      21    -1     0     0   501   502  0.000000000E+00  0.000000000E+00 -1.242016667E+02  1.242016667E+02  0.000000000E+00  0.00000E+00  9.000E+00
      25     1     1     2     0     0 -2.254313634E+02 -6.538039457E+00  8.190159209E+02  8.586466818E+02  1.250000000E+02  0.00000E+00  9.000E+00
      25     1     1     2     0     0  3.425293097E+02 -4.281304497E+02  1.294992632E+03  1.411826097E+03  1.250000000E+02  0.00000E+00  9.000E+00
       2     1     1     2   501     0 -1.170979464E+02  4.346684891E+02  1.056111101E+03  1.148050209E+03  2.157918644E-05  0.00000E+00  9.000E+00
#rwgt            2          18   1.3843387426937645E-003           1      310187           0
</event>
<event>
      5   9999  3.19816E-02  2.02331E+02 -1.00000E+00  1.11465E-01
      21    -1     0     0   502   501  0.000000000E+00  0.000000000E+00  3.080353391E+02  3.080353391E+02  0.000000000E+00  0.00000E+00  9.000E+00
      21    -1     0     0   511   502  0.000000000E+00  0.000000000E+00 -7.826625447E+02  7.826625447E+02  0.000000000E+00  0.00000E+00  9.000E+00
      25     1     1     2     0     0  2.436436424E+02 -2.519711326E+02 -4.404072174E+01  3.747215784E+02  1.250000000E+02  0.00000E+00  9.000E+00
      25     1     1     2     0     0 -2.384673934E+02  4.970598331E+01 -4.081475783E+01  2.768180394E+02  1.250000000E+02  0.00000E+00  9.000E+00
      21     1     1     2   511   501 -5.176249009E+00  2.022651493E+02 -3.897717260E+02  4.391582660E+02  0.000000000E+00  0.00000E+00  9.000E+00
#rwgt            1           1   2.8259851505445004E-002           1      310221           0
</event>
<event>
      5   9999  3.19816E-02  8.19016E+01 -1.00000E+00  1.27858E-01
      21    -1     0     0   502   501  0.000000000E+00  0.000000000E+00  9.601157618E+01  9.601157618E+01  0.000000000E+00  0.00000E+00  9.000E+00
       2    -1     0     0   501     0  0.000000000E+00  0.000000000E+00 -3.574829844E+03  3.574829844E+03  0.000000000E+00  0.00000E+00  9.000E+00
      25     1     1     2     0     0  5.303313011E+01  1.209338489E+01 -2.246307436E+03  2.250440148E+03  1.250000000E+02  0.00000E+00  9.000E+00
      25     1     1     2     0     0 -3.627885376E+01 -9.226294413E+01  2.390150717E+01  1.613223113E+02  1.250000000E+02  0.00000E+00  9.000E+00
       2     1     1     2   502     0 -1.675427635E+01  8.016955924E+01 -1.256412339E+03  1.259078961E+03  2.642899792E-05  0.00000E+00  9.000E+00
#rwgt            1           1   2.2967721626350735E-002           1      310269           0
</event>
<event>
      5   9999  3.19816E-02  1.82936E+01 -1.00000E+00  1.69629E-01
      21    -1     0     0   502   501  0.000000000E+00  0.000000000E+00  1.362795105E+03  1.362795105E+03  0.000000000E+00  0.00000E+00  9.000E+00
      21    -1     0     0   501   511  0.000000000E+00  0.000000000E+00 -1.823242345E+02  1.823242345E+02  0.000000000E+00  0.00000E+00  9.000E+00
      25     1     1     2     0     0 -5.650885896E+01  4.488983369E+02  5.006959982E+02  6.863122107E+02  1.250000000E+02  0.00000E+00  9.000E+00
      25     1     1     2     0     0  6.372708114E+01 -4.657076194E+02  6.846914948E+02  8.398643763E+02  1.250000000E+02  0.00000E+00  9.000E+00
      21     1     1     2   502   511 -7.218222179E+00  1.680928250E+01 -4.916622203E+00  1.894275280E+01  3.371747881E-07  0.00000E+00  9.000E+00
#rwgt            1           1   2.8235344772319999E-002           1      310378           0
</event>
<event>
      5   9999  3.19816E-02  7.54387E+01 -1.00000E+00  1.29596E-01
      21    -1     0     0   502   501  0.000000000E+00  0.000000000E+00  5.408291788E+02  5.408291788E+02  0.000000000E+00  0.00000E+00  9.000E+00
      21    -1     0     0   512   502  0.000000000E+00  0.000000000E+00 -6.050892060E+02  6.050892060E+02  0.000000000E+00  0.00000E+00  9.000E+00
      25     1     1     2     0     0  1.655065413E+02  2.642081456E+02 -3.431519753E+02  4.801839623E+02  1.250000000E+02  0.00000E+00  9.000E+00
      25     1     1     2     0     0 -1.501518135E+02 -3.380676366E+02  3.764718734E+02  5.423941053E+02  1.250000000E+02  0.00000E+00  9.000E+00
      21     1     1     2   512   501 -1.535472780E+01  7.385949095E+01 -9.757992525E+01  1.233403173E+02  1.907348633E-06  0.00000E+00  9.000E+00
#rwgt            1           1   2.9935701120935281E-002           1      310580           0
</event>
<event>
      5   9999  3.19816E-02  7.37341E+00 -1.00000E+00  2.12412E-01
      21    -1     0     0   502   511  0.000000000E+00  0.000000000E+00  1.246511513E+02  1.246511513E+02  0.000000000E+00  0.00000E+00  9.000E+00
      21    -1     0     0   501   502  0.000000000E+00  0.000000000E+00 -1.503539078E+03  1.503539078E+03  0.000000000E+00  0.00000E+00  9.000E+00
      25     1     1     2     0     0 -3.921789557E+01  2.531042123E+02 -2.582820550E+02  3.846224194E+02  1.250000000E+02  0.00000E+00  9.000E+00
      25     1     1     2     0     0  4.658551762E+01 -2.528120359E+02 -1.164494111E+03  1.199064498E+03  1.250000000E+02  0.00000E+00  9.000E+00
      21     1     1     2   501   511 -7.367622049E+00 -2.921763875E-01  4.388823919E+01  4.450331179E+01  1.784161275E-06  0.00000E+00  9.000E+00
#rwgt            1           1   2.9883700725855968E-002           1      310709           0
</event>
<event>
      5   9999  3.19816E-02  1.22274E+02 -1.00000E+00  1.20023E-01
      21    -1     0     0   502   501  0.000000000E+00  0.000000000E+00  2.666355263E+02  2.666355263E+02  0.000000000E+00  0.00000E+00  9.000E+00
      21    -1     0     0   512   502  0.000000000E+00  0.000000000E+00 -5.872065918E+02  5.872065918E+02  0.000000000E+00  0.00000E+00  9.000E+00
      25     1     1     2     0     0 -1.910852042E+02  1.151646992E+02 -6.436401111E+00  2.558180808E+02  1.250000000E+02  0.00000E+00  9.000E+00
      25     1     1     2     0     0  2.310299910E+02 -2.307301834E+02 -1.220313560E+02  3.703078802E+02  1.250000000E+02  0.00000E+00  9.000E+00
      21     1     1     2   512   501 -3.994478684E+01  1.155654842E+02 -1.921033083E+02  2.277161571E+02  2.697398305E-06  0.00000E+00  9.000E+00
#rwgt            1           1   2.9539717636436699E-002           1      311031           0
</event>
<event>
      5   9999  3.19816E-02  2.53989E+02 -1.00000E+00  1.07996E-01
       3    -1     0     0   502     0  0.000000000E+00  0.000000000E+00  5.168825978E+02  5.168825978E+02  0.000000000E+00  0.00000E+00  9.000E+00
      21    -1     0     0   501   502  0.000000000E+00  0.000000000E+00 -2.613285996E+02  2.613285996E+02  0.000000000E+00  0.00000E+00  9.000E+00
      25     1     1     2     0     0  1.178188760E+02  9.784952997E+01  1.569083940E+02  2.523906935E+02  1.250000000E+02  0.00000E+00  9.000E+00
      25     1     1     2     0     0 -5.781409261E+01  1.489494637E+02 -7.703117045E+01  2.169958830E+02  1.250000000E+02  0.00000E+00  9.000E+00
       3     1     1     2   501     0 -6.000478337E+01 -2.467989936E+02  1.756767747E+02  3.088246209E+02  4.264961200E-06  0.00000E+00  9.000E+00
#rwgt            2          19   6.2699979086045261E-005           1      311169           0
</event>
<event>
      5   9999  3.19816E-02  3.55056E+01 -1.00000E+00  1.48125E-01
      21    -1     0     0   502   501  0.000000000E+00  0.000000000E+00  1.085345583E+03  1.085345583E+03  0.000000000E+00  0.00000E+00  9.000E+00
      21    -1     0     0   511   502  0.000000000E+00  0.000000000E+00 -5.313864816E+01  5.313864816E+01  0.000000000E+00  0.00000E+00  9.000E+00
      25     1     1     2     0     0 -9.860160942E+01  8.942741531E+01  2.604546837E+02  3.180898965E+02  1.250000000E+02  0.00000E+00  9.000E+00
      25     1     1     2     0     0  1.185238912E+02 -1.188170870E+02  7.502455185E+02  7.788830149E+02  1.250000000E+02  0.00000E+00  9.000E+00
      21     1     1     2   511   501 -1.992228180E+01  2.938967166E+01  2.150673254E+01  4.151131962E+01  7.152557373E-07  0.00000E+00  9.000E+00
#rwgt            1           1   3.0691506888683807E-002           1      311218           0
</event>
<event>
      5   9999  3.19816E-02  7.13816E+01 -1.00000E+00  1.30792E-01
      21    -1     0     0   502   512  0.000000000E+00  0.000000000E+00  3.431454612E+02  3.431454612E+02  0.000000000E+00  0.00000E+00  9.000E+00
      21    -1     0     0   501   502  0.000000000E+00  0.000000000E+00 -7.481385078E+02  7.481385078E+02  0.000000000E+00  0.00000E+00  9.000E+00
      25     1     1     2     0     0 -3.751022331E+02  2.391248941E+02 -4.133766950E+01  4.639140041E+02  1.250000000E+02  0.00000E+00  9.000E+00
      25     1     1     2     0     0  3.126741345E+02 -2.045118649E+02 -3.870141029E+02  5.522636446E+02  1.250000000E+02  0.00000E+00  9.000E+00
      21     1     1     2   501   512  6.242809865E+01 -3.461302923E+01  2.335872581E+01  7.510632040E+01  6.743495762E-07  0.00000E+00  9.000E+00
#rwgt            1           1   2.8481379091074129E-002           1      311327           0
</event>
<event>
      5   9999  3.19816E-02  7.10692E+00 -1.00000E+00  2.14627E-01
      21    -1     0     0   502   501  0.000000000E+00  0.000000000E+00  8.739753226E+02  8.739753226E+02  0.000000000E+00  0.00000E+00  9.000E+00
      21    -1     0     0   501   511  0.000000000E+00  0.000000000E+00 -2.085331365E+02  2.085331365E+02  0.000000000E+00  0.00000E+00  9.000E+00
      25     1     1     2     0     0  2.486138926E+02 -1.006227839E+02 -4.205120543E+01  2.988764228E+02  1.250000000E+02  0.00000E+00  9.000E+00
      25     1     1     2     0     0 -2.508326361E+02  9.387108283E+01  7.147666152E+02  7.734630604E+02  1.250000000E+02  0.00000E+00  9.000E+00
      21     1     1     2   502   511  2.218743509E+00  6.751701028E+00 -7.273223689E+00  1.016897597E+01  8.429369702E-08  0.00000E+00  9.000E+00
#rwgt            1           1   2.8569770555639851E-002           1      311528           0
</event>
<event>
      5   9999  3.19816E-02  5.93320E+01 -1.00000E+00  1.34964E-01
      21    -1     0     0   512   501  0.000000000E+00  0.000000000E+00  1.774185223E+02  1.774185223E+02  0.000000000E+00  0.00000E+00  9.000E+00
      21    -1     0     0   501   502  0.000000000E+00  0.000000000E+00 -1.813198067E+03  1.813198067E+03  0.000000000E+00  0.00000E+00  9.000E+00
      25     1     1     2     0     0 -2.723899945E+02 -3.948319736E+02 -4.000618876E+02  6.369953770E+02  1.250000000E+02  0.00000E+00  9.000E+00
      25     1     1     2     0     0  2.176279336E+02  3.719976818E+02 -1.206972974E+03  1.287692880E+03  1.250000000E+02  0.00000E+00  9.000E+00
      21     1     1     2   512   502  5.476206087E+01  2.283429171E+01 -2.874468268E+01  6.592833208E+01  8.920806376E-07  0.00000E+00  9.000E+00
#rwgt            1           1   2.7350901676562067E-002           1      311890           0
</event>
<event>
      5   9999  3.19816E-02  3.84137E+01 -1.00000E+00  1.45939E-01
      21    -1     0     0   511   501  0.000000000E+00  0.000000000E+00  1.057280116E+02  1.057280116E+02  0.000000000E+00  0.00000E+00  9.000E+00
      21    -1     0     0   501   502  0.000000000E+00  0.000000000E+00 -1.788567379E+03  1.788567379E+03  0.000000000E+00  0.00000E+00  9.000E+00
      25     1     1     2     0     0  9.213159408E+01  1.617153084E+02 -1.254584059E+02  2.569141554E+02  1.250000000E+02  0.00000E+00  9.000E+00
      25     1     1     2     0     0 -6.463623347E+01 -1.885410649E+02 -1.576857690E+03  1.594311999E+03  1.250000000E+02  0.00000E+00  9.000E+00
      21     1     1     2   511   502 -2.749536062E+01  2.682575649E+01  1.947672917E+01  4.306923549E+01  5.331201500E-07  0.00000E+00  9.000E+00
#rwgt            1           1   3.3083773952161402E-002           1      311991           0
</event>
<event>
      5   9999  3.19816E-02  1.54284E+02 -1.00000E+00  1.15911E-01
      21    -1     0     0   502   501  0.000000000E+00  0.000000000E+00  2.205306254E+03  2.205306254E+03  0.000000000E+00  0.00000E+00  9.000E+00
      21    -1     0     0   512   502  0.000000000E+00  0.000000000E+00 -3.844628864E+02  3.844628864E+02  0.000000000E+00  0.00000E+00  9.000E+00
      25     1     1     2     0     0 -3.525897156E+01 -2.415281254E+02  4.788417933E+01  2.783826953E+02  1.250000000E+02  0.00000E+00  9.000E+00
      25     1     1     2     0     0  1.273359023E+02  3.653233392E+02  1.997772875E+03  2.038724364E+03  1.250000000E+02  0.00000E+00  9.000E+00
      21     1     1     2   512   501 -9.207693069E+01 -1.237952138E+02 -2.248136870E+02  2.726620802E+02  4.672030912E-06  0.00000E+00  9.000E+00
#rwgt            2          11   5.9183961169973747E-003           1      312155           0
</event>
<event>
      5   9999  3.19816E-02  1.84471E+01 -1.00000E+00  1.69318E-01
      21    -1     0     0   502   501  0.000000000E+00  0.000000000E+00  3.172509385E+02  3.172509385E+02  0.000000000E+00  0.00000E+00  9.000E+00
      21    -1     0     0   501   511  0.000000000E+00  0.000000000E+00 -1.114921529E+03  1.114921529E+03  0.000000000E+00  0.00000E+00  9.000E+00
      25     1     1     2     0     0  3.355890967E+01 -1.752923131E+02  2.544989750E+02  3.350348097E+02  1.250000000E+02  0.00000E+00  9.000E+00
      25     1     1     2     0     0 -4.729086576E+01  1.876101229E+02 -5.723432439E+02  6.169568648E+02  1.250000000E+02  0.00000E+00  9.000E+00
      21     1     1     2   502   511  1.373195610E+01 -1.231780981E+01 -4.798263211E+02  4.801807925E+02  9.344061824E-06  0.00000E+00  9.000E+00
#rwgt            1           1   2.8722049125783793E-002           1      312175           0
</event>
<event>
      5   9999  3.19816E-02  1.26846E+02 -1.00000E+00  1.19354E-01
       1    -1     0     0   502     0  0.000000000E+00  0.000000000E+00  2.004913319E+03  2.004913319E+03  0.000000000E+00  0.00000E+00  9.000E+00
      21    -1     0     0   501   502  0.000000000E+00  0.000000000E+00 -1.147393121E+02  1.147393121E+02  0.000000000E+00  0.00000E+00  9.000E+00
      25     1     1     2     0     0  1.578789959E+02 -3.473553750E+02  5.275124916E+02  6.629298324E+02  1.250000000E+02  0.00000E+00  9.000E+00
      25     1     1     2     0     0 -3.311845610E+01  3.244483445E+02  7.030709587E+02  7.850460709E+02  1.250000000E+02  0.00000E+00  9.000E+00
       1     1     1     2   501     0 -1.247605398E+02  2.290703048E+01  6.595905566E+02  6.716767278E+02  7.629394531E-06  0.00000E+00  9.000E+00
#rwgt            1           1   2.7617537909946827E-002           1      312418           0
</event>
<event>
      5   9999  3.19816E-02  9.71365E+01 -1.00000E+00  1.24398E-01
       2    -1     0     0   502     0  0.000000000E+00  0.000000000E+00  1.767863498E+03  1.767863498E+03  0.000000000E+00  0.00000E+00  9.000E+00
      21    -1     0     0   501   502  0.000000000E+00  0.000000000E+00 -2.637030022E+02  2.637030022E+02  0.000000000E+00  0.00000E+00  9.000E+00
      25     1     1     2     0     0 -6.176878422E+01  4.187329693E+02  5.905644445E+02  7.372543967E+02  1.250000000E+02  0.00000E+00  9.000E+00
      25     1     1     2     0     0  8.405139659E+00 -4.998983629E+02  1.674643946E+02  5.418840679E+02  1.250000000E+02  0.00000E+00  9.000E+00
       2     1     1     2   501     0  5.336364456E+01  8.116539358E+01  7.461316569E+02  7.524280358E+02  1.078959322E-05  0.00000E+00  9.000E+00
#rwgt            1           1   2.8168425159158184E-002           1      312591           0
</event>
<event>
      5   9999  3.19816E-02  9.75190E+01 -1.00000E+00  1.24321E-01
      21    -1     0     0   511   501  0.000000000E+00  0.000000000E+00  2.011027752E+02  2.011027752E+02  0.000000000E+00  0.00000E+00  9.000E+00
      21    -1     0     0   501   502  0.000000000E+00  0.000000000E+00 -1.680646476E+03  1.680646476E+03  0.000000000E+00  0.00000E+00  9.000E+00
      25     1     1     2     0     0 -3.886565054E+02 -2.753815012E+02 -1.204771447E+03  1.301532977E+03  1.250000000E+02  0.00000E+00  9.000E+00
      25     1     1     2     0     0  3.466015288E+02  1.873966581E+02 -2.276157924E+02  4.718941366E+02  1.250000000E+02  0.00000E+00  9.000E+00
      21     1     1     2   511   502  4.205497661E+01  8.798484311E+01 -4.715646140E+01  1.083221378E+02  2.431401974E-06  0.00000E+00  9.000E+00
#rwgt            1           1   2.9919440136432017E-002           1      312668           0
</event>
<event>
      5   9999  3.19816E-02  2.45203E+01 -1.00000E+00  1.59384E-01
      21    -1     0     0   502   501  0.000000000E+00  0.000000000E+00  5.332968816E+02  5.332968816E+02  0.000000000E+00  0.00000E+00  9.000E+00
      21    -1     0     0   501   512  0.000000000E+00  0.000000000E+00 -7.503154813E+02  7.503154813E+02  0.000000000E+00  0.00000E+00  9.000E+00
      25     1     1     2     0     0  2.062481444E+02  2.569599297E+02  3.178505378E+02  4.745741954E+02  1.250000000E+02  0.00000E+00  9.000E+00
      25     1     1     2     0     0 -2.045933192E+02 -2.324955813E+02 -6.712456317E+01  3.406513299E+02  1.250000000E+02  0.00000E+00  9.000E+00
      21     1     1     2   502   512 -1.654825147E+00 -2.446434846E+01 -4.677445744E+02  4.683868376E+02  7.629394531E-06  0.00000E+00  9.000E+00
#rwgt            1           1   2.7735750331395068E-002           1      312710           0
</event>
<event>
      5   9999  3.19816E-02  2.36655E+01 -1.00000E+00  1.60556E-01
      21    -1     0     0   502   501  0.000000000E+00  0.000000000E+00  2.146621625E+02  2.146621625E+02  0.000000000E+00  0.00000E+00  9.000E+00
      21    -1     0     0   501   511  0.000000000E+00  0.000000000E+00 -2.330736509E+03  2.330736509E+03  0.000000000E+00  0.00000E+00  9.000E+00
      25     1     1     2     0     0 -3.667767287E+02  4.707865540E+02 -4.488817456E+02  7.571558424E+02  1.250000000E+02  0.00000E+00  9.000E+00
      25     1     1     2     0     0  3.518249083E+02 -4.891304277E+02 -1.531445730E+03  1.650448535E+03  1.250000000E+02  0.00000E+00  9.000E+00
      21     1     1     2   502   511  1.495182039E+01  1.834387374E+01 -1.357468704E+02  1.377942940E+02  1.907348633E-06  0.00000E+00  9.000E+00
#rwgt            1           1   2.1429069114727237E-002           1      312914           0
</event>
<event>
      5   9999  3.19816E-02  3.58011E+01 -1.00000E+00  1.47892E-01
       1    -1     0     0   502     0  0.000000000E+00  0.000000000E+00  1.617611465E+03  1.617611465E+03  0.000000000E+00  0.00000E+00  9.000E+00
      21    -1     0     0   501   502  0.000000000E+00  0.000000000E+00 -4.997629409E+02  4.997629409E+02  0.000000000E+00  0.00000E+00  9.000E+00
      25     1     1     2     0     0 -8.637101663E+01  1.728732727E+02 -4.416700016E+02  4.980386644E+02  1.250000000E+02  0.00000E+00  9.000E+00
      25     1     1     2     0     0  5.542648566E+01 -1.548689671E+02  3.302540138E+02  3.895500044E+02  1.250000000E+02  0.00000E+00  9.000E+00
       1     1     1     2   501     0  3.094453097E+01 -1.800430559E+01  1.229264512E+03  1.229785737E+03  0.000000000E+00  0.00000E+00  9.000E+00
#rwgt            1           1   3.0735848476035138E-002           1      313026           0
</event>
<event>
      5   9999  3.19816E-02  2.48485E+02 -1.00000E+00  1.08321E-01
       2    -1     0     0   502     0  0.000000000E+00  0.000000000E+00  1.415781979E+03  1.415781979E+03  0.000000000E+00  0.00000E+00  9.000E+00
      21    -1     0     0   501   502  0.000000000E+00  0.000000000E+00 -1.405173775E+02  1.405173775E+02  0.000000000E+00  0.00000E+00  9.000E+00
      25     1     1     2     0     0 -1.634475964E+02  1.944023628E+02  7.931600290E+01  2.939786110E+02  1.250000000E+02  0.00000E+00  9.000E+00
      25     1     1     2     0     0  5.108117829E+01  2.722483410E+01  2.635421548E+02  2.973717298E+02  1.250000000E+02  0.00000E+00  9.000E+00
       2     1     1     2   501     0  1.123664181E+02 -2.216271969E+02  9.324064437E+02  9.649490155E+02  1.078959322E-05  0.00000E+00  9.000E+00
#rwgt            2          18   1.5417441027463024E-003           1      313179           0
</event>
<event>
      5   9999  3.19816E-02  1.08671E+01 -1.00000E+00  1.91673E-01
      21    -1     0     0   502   501  0.000000000E+00  0.000000000E+00  2.301246145E+02  2.301246145E+02  0.000000000E+00  0.00000E+00  9.000E+00
      21    -1     0     0   511   502  0.000000000E+00  0.000000000E+00 -1.144641155E+02  1.144641155E+02  0.000000000E+00  0.00000E+00  9.000E+00
      25     1     1     2     0     0  8.539963355E+01 -4.418001675E+01  8.621296748E+01  1.797293717E+02  1.250000000E+02  0.00000E+00  9.000E+00
      25     1     1     2     0     0 -7.599137125E+01  3.874150397E+01  2.796533116E+01  1.538916904E+02  1.250000000E+02  0.00000E+00  9.000E+00
      21     1     1     2   511   501 -9.408262301E+00  5.438512784E+00  1.482200335E+00  1.096766788E+01  2.179851955E-07  0.00000E+00  9.000E+00
#rwgt            1           1   6.9001863320431664E-002           1      313198           0
</event>
<event>
      5   9999  3.19816E-02  4.69916E+01 -1.00000E+00  1.40631E-01
       1    -1     0     0   502     0  0.000000000E+00  0.000000000E+00  1.620993503E+03  1.620993503E+03  0.000000000E+00  0.00000E+00  9.000E+00
      21    -1     0     0   501   502  0.000000000E+00  0.000000000E+00 -9.658928557E+02  9.658928557E+02  0.000000000E+00  0.00000E+00  9.000E+00
      25     1     1     2     0     0 -2.323630896E+02 -4.624148328E+01 -7.410682050E+02  7.879961705E+02  1.250000000E+02  0.00000E+00  9.000E+00
      25     1     1     2     0     0  1.871288547E+02  3.351050442E+01 -1.366162475E+02  2.653849303E+02  1.250000000E+02  0.00000E+00  9.000E+00
       1     1     1     2   501     0  4.523423490E+01  1.273097886E+01  1.532785100E+03  1.533505258E+03  0.000000000E+00  0.00000E+00  9.000E+00
#rwgt            1           1   3.1863035231054035E-002           1      313419           0
</event>
<event>
      5   9999  3.19816E-02  2.82181E+01 -1.00000E+00  1.54910E-01
      21    -1     0     0   502   501  0.000000000E+00  0.000000000E+00  1.263440009E+03  1.263440009E+03  0.000000000E+00  0.00000E+00  9.000E+00
      21    -1     0     0   501   511  0.000000000E+00  0.000000000E+00 -5.750227113E+02  5.750227113E+02  0.000000000E+00  0.00000E+00  9.000E+00
      25     1     1     2     0     0  5.641626751E+02 -4.537421058E+02  3.598635623E+02  8.181003643E+02  1.250000000E+02  0.00000E+00  9.000E+00
      25     1     1     2     0     0 -5.886337661E+02  4.677929909E+02  4.571002536E+02  8.887551039E+02  1.250000000E+02  0.00000E+00  9.000E+00
      21     1     1     2   502   511  2.447109099E+01 -1.405088510E+01 -1.285465178E+02  1.316072524E+02  2.697398305E-06  0.00000E+00  9.000E+00
#rwgt            1           1   3.0811899389249393E-002           1      313522           0
</event>
<event>
      5   9999  3.19816E-02  1.62120E+02 -1.00000E+00  1.15072E-01
      21    -1     0     0   502   512  0.000000000E+00  0.000000000E+00  1.423260885E+03  1.423260885E+03  0.000000000E+00  0.00000E+00  9.000E+00
      21    -1     0     0   501   502  0.000000000E+00  0.000000000E+00 -2.239555888E+02  2.239555888E+02  0.000000000E+00  0.00000E+00  9.000E+00
      25     1     1     2     0     0 -3.803441334E+02 -2.417454745E+02  1.552481625E+02  4.927773597E+02  1.250000000E+02  0.00000E+00  9.000E+00
      25     1     1     2     0     0  2.850447940E+02  1.105933897E+02  6.852284930E+02  7.606868738E+02  1.250000000E+02  0.00000E+00  9.000E+00
      21     1     1     2   501   512  9.529933940E+01  1.311520848E+02  3.588286408E+02  3.937522405E+02  3.814697266E-06  0.00000E+00  9.000E+00
#rwgt            2          11   3.2952146442872567E-003           1      313722           0
</event>
<event>
      5   9999  3.19816E-02  4.12999E+01 -1.00000E+00  1.43984E-01
       2    -1     0     0   502     0  0.000000000E+00  0.000000000E+00  2.781124635E+02  2.781124635E+02  0.000000000E+00  0.00000E+00  9.000E+00
      21    -1     0     0   501   502  0.000000000E+00  0.000000000E+00 -1.742129509E+02  1.742129509E+02  0.000000000E+00  0.00000E+00  9.000E+00
      25     1     1     2     0     0  8.230246764E+01 -4.661628217E+01  1.357812521E+02  2.073844796E+02  1.250000000E+02  0.00000E+00  9.000E+00
      25     1     1     2     0     0 -1.188550455E+02  6.584094567E+01 -6.096247052E+01  1.944298711E+02  1.250000000E+02  0.00000E+00  9.000E+00
       2     1     1     2   501     0  3.655257789E+01 -1.922466350E+01  2.908073094E+01  5.051106363E+01  4.768371582E-07  0.00000E+00  9.000E+00
#rwgt            1           1   2.3510312196441695E-002           1      313757           0
</event>
<event>
      5   9999  3.19816E-02  9.24624E+00 -1.00000E+00  1.99776E-01
      21    -1     0     0   511   501  0.000000000E+00  0.000000000E+00  1.006719072E+02  1.006719072E+02  0.000000000E+00  0.00000E+00  9.000E+00
      21    -1     0     0   501   502  0.000000000E+00  0.000000000E+00 -8.034066204E+02  8.034066204E+02  0.000000000E+00  0.00000E+00  9.000E+00
      25     1     1     2     0     0 -2.166294221E+02  1.096645356E+02 -3.145640321E+02  4.165694986E+02  1.250000000E+02  0.00000E+00  9.000E+00
      25     1     1     2     0     0  2.189733160E+02 -1.186087609E+02 -3.886889009E+02  4.782482755E+02  1.250000000E+02  0.00000E+00  9.000E+00
      21     1     1     2   511   502 -2.343893950E+00  8.944225309E+00  5.182198199E-01  9.260753588E+00  2.095455097E-07  0.00000E+00  9.000E+00
#rwgt            1           1   2.7887878069522882E-002           1      313820           0
</event>
<event>
      5   9999  3.19816E-02  5.20796E+01 -1.00000E+00  1.38073E-01
       2    -1     0     0   502     0  0.000000000E+00  0.000000000E+00  1.214337580E+03  1.214337580E+03  0.000000000E+00  0.00000E+00  9.000E+00
      21    -1     0     0   501   502  0.000000000E+00  0.000000000E+00 -1.691961990E+02  1.691961990E+02  0.000000000E+00  0.00000E+00  9.000E+00
      25     1     1     2     0     0  6.842243765E+01  1.109765631E+02  1.975877549E+02  2.677001091E+02  1.250000000E+02  0.00000E+00  9.000E+00
      25     1     1     2     0     0 -2.505152272E+01 -8.214511961E+01 -9.031907453E+01  1.765161032E+02  1.250000000E+02  0.00000E+00  9.000E+00
       2     1     1     2   501     0 -4.337091492E+01 -2.883144353E+01  9.378727004E+02  9.393175664E+02  1.525878906E-05  0.00000E+00  9.000E+00
#rwgt            1           1   2.6509831385279136E-002           1      314016           0
</event>
<event>
      5   9999  3.19816E-02  8.90475E+01 -1.00000E+00  1.26137E-01
      21    -1     0     0   502   511  0.000000000E+00  0.000000000E+00  8.691298359E+01  8.691298359E+01  0.000000000E+00  0.00000E+00  9.000E+00
      21    -1     0     0   501   502  0.000000000E+00  0.000000000E+00 -1.702460418E+03  1.702460418E+03  0.000000000E+00  0.00000E+00  9.000E+00
      25     1     1     2     0     0  3.551831217E+02 -3.842482807E+00 -7.004878938E+02  7.952849200E+02  1.250000000E+02  0.00000E+00  9.000E+00
      25     1     1     2     0     0 -2.690359291E+02 -1.869898019E+01 -7.453710427E+02  8.024543441E+02  1.250000000E+02  0.00000E+00  9.000E+00
      21     1     1     2   501   511 -8.614719258E+01  2.254146299E+01 -1.696884981E+02  1.916341377E+02  0.000000000E+00  0.00000E+00  9.000E+00
#rwgt            1           1   2.9819941481081469E-002           1      314061           0
</event>
<event>
      5   9999  3.19816E-02  6.01657E+01 -1.00000E+00  1.34639E-01
      21    -1     0     0   512   501  0.000000000E+00  0.000000000E+00  9.486850333E+01  9.486850333E+01  0.000000000E+00  0.00000E+00  9.000E+00
      21    -1     0     0   501   502  0.000000000E+00  0.000000000E+00 -2.027094986E+03  2.027094986E+03  0.000000000E+00  0.00000E+00  9.000E+00
      25     1     1     2     0     0 -1.868051309E+01 -3.133204728E+02 -1.300971038E+03  1.344123998E+03  1.250000000E+02  0.00000E+00  9.000E+00
      25     1     1     2     0     0  7.792790390E+01  3.028487845E+02 -6.336951788E+02  7.176243614E+02  1.250000000E+02  0.00000E+00  9.000E+00
      21     1     1     2   512   502 -5.924739081E+01  1.047168835E+01  2.439734070E+00  6.021512997E+01  2.889442359E-07  0.00000E+00  9.000E+00
#rwgt            1           1   2.6736550389722707E-002           1      314165           0
</event>
<event>
      5   9999  3.19816E-02  1.30868E+02 -1.00000E+00  1.18791E-01
      21    -1     0     0   502   501  0.000000000E+00  0.000000000E+00  7.903200807E+02  7.903200807E+02  0.000000000E+00  0.00000E+00  9.000E+00
      21    -1     0     0   501   511  0.000000000E+00  0.000000000E+00 -1.307042997E+03  1.307042997E+03  0.000000000E+00  0.00000E+00  9.000E+00
      25     1     1     2     0     0  8.244773188E+02  2.955042871E+01 -4.773930366E+02  9.613351072E+02  1.250000000E+02  0.00000E+00  9.000E+00
      25     1     1     2     0     0 -7.744190777E+02 -1.504666457E+02  2.345661341E+02  8.324730571E+02  1.250000000E+02  0.00000E+00  9.000E+00
      21     1     1     2   502   511 -5.005824101E+01  1.209162170E+02 -2.738960140E+02  3.035549136E+02  5.394796609E-06  0.00000E+00  9.000E+00
#rwgt            1           1   3.2026447361078049E-002           1      314296           0
</event>
<event>
      5   9999  3.19816E-02  5.73212E+01 -1.00000E+00  1.35772E-01
      21    -1     0     0   502   512  0.000000000E+00  0.000000000E+00  1.102704386E+03  1.102704386E+03  0.000000000E+00  0.00000E+00  9.000E+00
      21    -1     0     0   501   502  0.000000000E+00  0.000000000E+00 -4.711068361E+01  4.711068361E+01  0.000000000E+00  0.00000E+00  9.000E+00
      25     1     1     2     0     0  9.506848467E+01  8.359261864E+01  2.651795971E+02  3.193289235E+02  1.250000000E+02  0.00000E+00  9.000E+00
      25     1     1     2     0     0 -4.076583197E+01 -6.523659145E+01  2.734222640E+02  3.103262805E+02  1.250000000E+02  0.00000E+00  9.000E+00
      21     1     1     2   501   512 -5.430265270E+01 -1.835602718E+01  5.169918412E+02  5.201598655E+02  1.078959322E-05  0.00000E+00  9.000E+00
#rwgt            1           1   2.5989312264023453E-002           1      314410           0
</event>
<event>
      5   9999  3.19816E-02  6.87080E+01 -1.00000E+00  1.31632E-01
      21    -1     0     0   511   501  0.000000000E+00  0.000000000E+00  4.434436949E+02  4.434436949E+02  0.000000000E+00  0.00000E+00  9.000E+00
      21    -1     0     0   501   502  0.000000000E+00  0.000000000E+00 -6.879232727E+02  6.879232727E+02  0.000000000E+00  0.00000E+00  9.000E+00
      25     1     1     2     0     0 -1.687104848E+02 -3.943824794E+02 -3.087768858E+02  5.431104243E+02  1.250000000E+02  0.00000E+00  9.000E+00
      25     1     1     2     0     0  1.160331369E+02  3.502702485E+02 -1.067315430E+02  4.039425183E+02  1.250000000E+02  0.00000E+00  9.000E+00
      21     1     1     2   511   502  5.267734796E+01  4.411223096E+01  1.710288510E+02  1.843140249E+02  2.697398305E-06  0.00000E+00  9.000E+00
#rwgt            1           1   3.1396442363941901E-002           1      314462           0
</event>
<event>
      5   9999  3.19816E-02  3.01678E+02 -1.00000E+00  1.05513E-01
      21    -1     0     0   502   512  0.000000000E+00  0.000000000E+00  2.469014590E+03  2.469014590E+03  0.000000000E+00  0.00000E+00  9.000E+00
      21    -1     0     0   501   502  0.000000000E+00  0.000000000E+00 -1.526420231E+02  1.526420231E+02  0.000000000E+00  0.00000E+00  9.000E+00
      25     1     1     2     0     0  3.523878427E+00 -2.740851631E+02  3.143421691E+02  4.353976270E+02  1.250000000E+02  0.00000E+00  9.000E+00
      25     1     1     2     0     0 -3.051990597E+02  2.727086459E+02  5.181716547E+02  6.720441468E+02  1.250000000E+02  0.00000E+00  9.000E+00
      21     1     1     2   501   512  3.016751813E+02  1.376517172E+00  1.483858743E+03  1.514214840E+03  2.157918644E-05  0.00000E+00  9.000E+00
#rwgt            1           1   2.9254253638412504E-002           1      314571           0
</event>
<event>
      5   9999  3.19816E-02  7.54465E+00 -1.00000E+00  2.11055E-01
      21    -1     0     0   502   511  0.000000000E+00  0.000000000E+00  1.281377346E+03  1.281377346E+03  0.000000000E+00  0.00000E+00  9.000E+00
      21    -1     0     0   501   502  0.000000000E+00  0.000000000E+00 -3.837151540E+01  3.837151540E+01  0.000000000E+00  0.00000E+00  9.000E+00
      25     1     1     2     0     0  1.942933076E+01  1.405136131E+02  9.222199907E+02  9.414012352E+02  1.250000000E+02  0.00000E+00  9.000E+00
      25     1     1     2     0     0 -1.328894806E+01 -1.448973909E+02  2.985311428E+02  3.548488315E+02  1.250000000E+02  0.00000E+00  9.000E+00
      21     1     1     2   501   511 -6.140382703E+00  4.383777765E+00  2.225469693E+01  2.349879449E+01  3.371747881E-07  0.00000E+00  9.000E+00
#rwgt            1           1   2.7637811118464774E-002           1      314601           0
</event>
<event>
      5   9999  3.19816E-02  1.92797E+01 -1.00000E+00  1.67694E-01
      21    -1     0     0   502   501  0.000000000E+00  0.000000000E+00  1.294676383E+03  1.294676383E+03  0.000000000E+00  0.00000E+00  9.000E+00
      21    -1     0     0   501   512  0.000000000E+00  0.000000000E+00 -1.212666494E+02  1.212666494E+02  0.000000000E+00  0.00000E+00  9.000E+00
      25     1     1     2     0     0  8.535565974E+01  2.800613756E+02  1.766642040E+02  3.640813147E+02  1.250000000E+02  0.00000E+00  9.000E+00
      25     1     1     2     0     0 -6.840468182E+01 -2.708759047E+02  9.787448133E+02  1.025484942E+03  1.250000000E+02  0.00000E+00  9.000E+00
      21     1     1     2   502   512 -1.695097792E+01 -9.185470862E+00  1.800071678E+01  2.637677638E+01  2.384185791E-07  0.00000E+00  9.000E+00
#rwgt            1           1   2.9234178048748755E-002           1      314830           0
</event>
<event>
      5   9999  3.19816E-02  7.13646E+01 -1.00000E+00  1.30797E-01
      21    -1     0     0   502   501  0.000000000E+00  0.000000000E+00  9.586760483E+02  9.586760483E+02  0.000000000E+00  0.00000E+00  9.000E+00
      21    -1     0     0   501   511  0.000000000E+00  0.000000000E+00 -1.221534889E+02  1.221534889E+02  0.000000000E+00  0.00000E+00  9.000E+00
      25     1     1     2     0     0  1.692985462E+02 -1.629753545E+02  2.090918362E+02  3.384780050E+02  1.250000000E+02  0.00000E+00  9.000E+00
      25     1     1     2     0     0 -1.723002195E+02  2.342768383E+02  5.645507086E+02  6.472368231E+02  1.250000000E+02  0.00000E+00  9.000E+00
      21     1     1     2   502   511  3.001673305E+00 -7.130148380E+01  6.288001467E+01  9.511470906E+01  1.348699152E-06  0.00000E+00  9.000E+00
#rwgt            1           1   1.2230182856139363E-002           1      315021           0
</event>
<event>
      5   9999  3.19816E-02  1.24700E+02 -1.00000E+00  1.19664E-01
      21    -1     0     0   502   501  0.000000000E+00  0.000000000E+00  1.120124218E+02  1.120124218E+02  0.000000000E+00  0.00000E+00  9.000E+00
      21    -1     0     0   501   512  0.000000000E+00  0.000000000E+00 -1.984754751E+03  1.984754751E+03  0.000000000E+00  0.00000E+00  9.000E+00
      25     1     1     2     0     0  2.939529986E+02  6.705396787E+01 -3.449602339E+02  4.748970025E+02  1.250000000E+02  0.00000E+00  9.000E+00
      25     1     1     2     0     0 -3.074160407E+02 -1.910246363E+02 -8.438400353E+02  9.266531384E+02  1.250000000E+02  0.00000E+00  9.000E+00
      21     1     1     2   502   512  1.346304204E+01  1.239706684E+02 -6.839420604E+02  6.952170324E+02  7.629394531E-06  0.00000E+00  9.000E+00
#rwgt            1           1   2.3198748284349150E-002           1      315154           0
</event>
<event>
      5   9999  3.19816E-02  1.04496E+02 -1.00000E+00  1.22975E-01
      21    -1     0     0   502   501  0.000000000E+00  0.000000000E+00  1.592140189E+03  1.592140189E+03  0.000000000E+00  0.00000E+00  9.000E+00
       2    -1     0     0   501     0  0.000000000E+00  0.000000000E+00 -5.645234612E+02  5.645234612E+02  0.000000000E+00  0.00000E+00  9.000E+00
      25     1     1     2     0     0  2.252839500E+02  5.208980313E+02  2.843218751E+02  6.469555980E+02  1.250000000E+02  0.00000E+00  9.000E+00
      25     1     1     2     0     0 -1.834246229E+02 -4.251527094E+02  1.066849647E+03  1.169697648E+03  1.250000000E+02  0.00000E+00  9.000E+00
       2     1     1     2   502     0 -4.185932709E+01 -9.574532192E+01 -3.235547944E+02  3.400104042E+02  5.394796609E-06  0.00000E+00  9.000E+00
#rwgt            1           1   2.9695095358974195E-002           1      315196           0
</event>
<event>
      5   9999  3.19816E-02  2.85109E+01 -1.00000E+00  1.54592E-01
      21    -1     0     0   502   501  0.000000000E+00  0.000000000E+00  1.036294510E+02  1.036294510E+02  0.000000000E+00  0.00000E+00  9.000E+00
      21    -1     0     0   511   502  0.000000000E+00  0.000000000E+00 -1.630641191E+03  1.630641191E+03  0.000000000E+00  0.00000E+00  9.000E+00
      25     1     1     2     0     0 -2.332447353E+02  2.752593085E+02 -9.473611321E+02  1.021415150E+03  1.250000000E+02  0.00000E+00  9.000E+00
      25     1     1     2     0     0  2.539385112E+02 -2.556471502E+02 -5.042505687E+02  6.322451019E+02  1.250000000E+02  0.00000E+00  9.000E+00
      21     1     1     2   511   501 -2.069377585E+01 -1.961215831E+01 -7.540003903E+01  8.061039014E+01  0.000000000E+00  0.00000E+00  9.000E+00
#rwgt            1           1   2.6529215966619512E-002           1      315299           0
</event>
<event>
      5   9999  3.19816E-02  6.06321E+01 -1.00000E+00  1.34461E-01
       1    -1     0     0   502     0  0.000000000E+00  0.000000000E+00  8.847363147E+02  8.847363147E+02  0.000000000E+00  0.00000E+00  9.000E+00
      21    -1     0     0   501   502  0.000000000E+00  0.000000000E+00 -1.326893407E+03  1.326893407E+03  0.000000000E+00  0.00000E+00  9.000E+00
      25     1     1     2     0     0 -6.703377191E+02  3.180724098E+02 -8.932408895E+02  1.167915666E+03  1.250000000E+02  0.00000E+00  9.000E+00
      25     1     1     2     0     0  6.611183136E+02 -2.581453571E+02  1.493730962E+02  7.359713118E+02  1.250000000E+02  0.00000E+00  9.000E+00
       1     1     1     2   501     0  9.219405513E+00 -5.992705274E+01  3.017107014E+02  3.077427439E+02  3.814697266E-06  0.00000E+00  9.000E+00
#rwgt            1           1   2.2512506032037576E-002           1      315439           0
</event>
<event>
      5   9999  3.19816E-02  3.22665E+01 -1.00000E+00  1.50875E-01
      21    -1     0     0   511   501  0.000000000E+00  0.000000000E+00  6.530297457E+02  6.530297457E+02  0.000000000E+00  0.00000E+00  9.000E+00
      21    -1     0     0   501   502  0.000000000E+00  0.000000000E+00 -6.291521693E+01  6.291521693E+01  0.000000000E+00  0.00000E+00  9.000E+00
      25     1     1     2     0     0  1.190812713E+02 -2.734676833E+00  2.744754081E+02  3.242677555E+02  1.250000000E+02  0.00000E+00  9.000E+00
      25     1     1     2     0     0 -1.491836148E+02 -8.883164833E+00  2.378463564E+02  3.074582099E+02  1.250000000E+02  0.00000E+00  9.000E+00
      21     1     1     2   511   502  3.010234349E+01  1.161784167E+01  7.779276422E+01  8.421899722E+01  0.000000000E+00  0.00000E+00  9.000E+00
#rwgt            1           1   3.0490864684074654E-002           1      315578           0
</event>
<event>
      5   9999  3.19816E-02  5.88048E+01 -1.00000E+00  1.35172E-01
      21    -1     0     0   502   512  0.000000000E+00  0.000000000E+00  2.711254257E+02  2.711254257E+02  0.000000000E+00  0.00000E+00  9.000E+00
      21    -1     0     0   501   502  0.000000000E+00  0.000000000E+00 -2.976669568E+02  2.976669568E+02  0.000000000E+00  0.00000E+00  9.000E+00
      25     1     1     2     0     0 -1.497375478E+02 -1.075658916E+02  5.049780183E+01  2.284004865E+02  1.250000000E+02  0.00000E+00  9.000E+00
      25     1     1     2     0     0  1.748137245E+02  5.437579733E+01 -1.335797423E+02  2.588148240E+02  1.250000000E+02  0.00000E+00  9.000E+00
      21     1     1     2   501   512 -2.507617662E+01  5.319009423E+01  5.654040934E+01  8.157707182E+01  1.348699152E-06  0.00000E+00  9.000E+00
#rwgt            1           1   2.5769969063204310E-002           1      315678           0
</event>
<event>
      5   9999  3.19816E-02  9.65465E+01 -1.00000E+00  1.24518E-01
      21    -1     0     0   502   501  0.000000000E+00  0.000000000E+00  7.225930338E+02  7.225930338E+02  0.000000000E+00  0.00000E+00  9.000E+00
      21    -1     0     0   511   502  0.000000000E+00  0.000000000E+00 -1.075036129E+03  1.075036129E+03  0.000000000E+00  0.00000E+00  9.000E+00
      25     1     1     2     0     0  5.278099229E+02  4.293781621E+02 -3.833404431E+02  7.909006361E+02  1.250000000E+02  0.00000E+00  9.000E+00
      25     1     1     2     0     0 -4.677804473E+02 -5.049935162E+02  2.691928188E+02  7.496177506E+02  1.250000000E+02  0.00000E+00  9.000E+00
      21     1     1     2   511   501 -6.002947558E+01  7.561535410E+01 -2.382954707E+02  2.571107758E+02  5.394796609E-06  0.00000E+00  9.000E+00
#rwgt            1           1   2.0808075521530578E-002           1      315730           0
</event>
<event>
      5   9999  3.19816E-02  1.82188E+01 -1.00000E+00  1.69782E-01
      21    -1     0     0   502   512  0.000000000E+00  0.000000000E+00  3.538021440E+02  3.538021440E+02  0.000000000E+00  0.00000E+00  9.000E+00
      21    -1     0     0   501   502  0.000000000E+00  0.000000000E+00 -1.359175959E+02  1.359175959E+02  0.000000000E+00  0.00000E+00  9.000E+00
      25     1     1     2     0     0 -6.311625572E+01  8.790336497E+01  2.194040148E+02  2.747249261E+02  1.250000000E+02  0.00000E+00  9.000E+00
      25     1     1     2     0     0  5.291674145E+01 -1.029995305E+02 -3.767423347E+01  1.745091192E+02  1.250000000E+02  0.00000E+00  9.000E+00
      21     1     1     2   501   512  1.019951427E+01  1.509616553E+01  3.615476676E+01  4.048569457E+01  0.000000000E+00  0.00000E+00  9.000E+00
#rwgt            1           1   2.9592612461325513E-002           1      315883           0
</event>
<event>
      5   9999  3.19816E-02  9.90087E+01 -1.00000E+00  1.24023E-01
      21    -1     0     0   502   501  0.000000000E+00  0.000000000E+00  1.291391648E+03  1.291391648E+03  0.000000000E+00  0.00000E+00  9.000E+00
       1    -1     0     0   501     0  0.000000000E+00  0.000000000E+00 -2.567297339E+02  2.567297339E+02  0.000000000E+00  0.00000E+00  9.000E+00
      25     1     1     2     0     0 -1.247286384E+02 -4.142881165E+02  7.671823170E+02  8.895985523E+02  1.250000000E+02  0.00000E+00  9.000E+00
      25     1     1     2     0     0  1.545716848E+02  3.198841074E+02  3.554306830E+00  3.766375991E+02  1.250000000E+02  0.00000E+00  9.000E+00
       1     1     1     2   502     0 -2.984304642E+01  9.440400903E+01  2.639252900E+02  2.818852303E+02  0.000000000E+00  0.00000E+00  9.000E+00
#rwgt            1           1   3.2341050666782320E-002           1      316027           0
</event>
<event>
      5   9999  3.19816E-02  3.82463E+02 -1.00000E+00  1.02275E-01
      21    -1     0     0   502   501  0.000000000E+00  0.000000000E+00  2.026551721E+03  2.026551721E+03  0.000000000E+00  0.00000E+00  9.000E+00
      21    -1     0     0   511   502  0.000000000E+00  0.000000000E+00 -1.169503545E+03  1.169503545E+03  0.000000000E+00  0.00000E+00  9.000E+00
      25     1     1     2     0     0 -6.568188236E+02  2.797374611E+02  1.454428729E+03  1.625008289E+03  1.250000000E+02  0.00000E+00  9.000E+00
      25     1     1     2     0     0  1.036699342E+03 -2.353686993E+02 -4.294689661E+02  1.153348405E+03  1.250000000E+02  0.00000E+00  9.000E+00
      21     1     1     2   511   501 -3.798805188E+02 -4.436876179E+01 -1.679115866E+02  4.176985714E+02  5.722045898E-06  0.00000E+00  9.000E+00
#rwgt            2          11   5.0402200285449622E-003           1      316103           0
</event>
<event>
      5   9999  3.19816E-02  5.47821E+01 -1.00000E+00  1.36849E-01
      -5    -1     0     0     0   501  0.000000000E+00  0.000000000E+00  1.143033804E+03  1.143033804E+03  0.000000000E+00  0.00000E+00  9.000E+00
      21    -1     0     0   501   502  0.000000000E+00  0.000000000E+00 -1.747406738E+02  1.747406738E+02  0.000000000E+00  0.00000E+00  9.000E+00
      25     1     1     2     0     0  1.107946816E+02  5.127612736E+01  1.773497502E+02  2.489631230E+02  1.250000000E+02  0.00000E+00  9.000E+00
      25     1     1     2     0     0 -8.282160407E+01 -4.174288190E+00 -9.735258391E+01  1.788277618E+02  1.250000000E+02  0.00000E+00  9.000E+00
      -5     1     1     2     0   502 -2.797307753E+01 -4.710183917E+01  8.882959639E+02  8.899835930E+02  0.000000000E+00  0.00000E+00  9.000E+00
#rwgt            1           1   2.6538328587486427E-002           1      316123           0
</event>
<event>
      5   9999  3.19816E-02  3.96183E+02 -1.00000E+00  1.01811E-01
      21    -1     0     0   502   501  0.000000000E+00  0.000000000E+00  1.039977117E+03  1.039977117E+03  0.000000000E+00  0.00000E+00  9.000E+00
       2    -1     0     0   501     0  0.000000000E+00  0.000000000E+00 -6.959607496E+02  6.959607496E+02  0.000000000E+00  0.00000E+00  9.000E+00
      25     1     1     2     0     0  6.356212146E+02  8.338766538E+01  4.491004579E+02  7.926437109E+02  1.250000000E+02  0.00000E+00  9.000E+00
      25     1     1     2     0     0 -2.398837220E+02 -6.460221316E+01  2.772615626E+02  3.927042400E+02  1.250000000E+02  0.00000E+00  9.000E+00
       2     1     1     2   502     0 -3.957374926E+02 -1.878545222E+01 -3.823456533E+02  5.505899153E+02  1.078959322E-05  0.00000E+00  9.000E+00
#rwgt            2          13   8.8700529083879441E-004           1      316214           0
</event>
<event>
      5   9999  3.19816E-02  8.28122E+01 -1.00000E+00  1.27627E-01
      21    -1     0     0   502   511  0.000000000E+00  0.000000000E+00  6.547409388E+02  6.547409388E+02  0.000000000E+00  0.00000E+00  9.000E+00
      21    -1     0     0   501   502  0.000000000E+00  0.000000000E+00 -2.657067432E+02  2.657067432E+02  0.000000000E+00  0.00000E+00  9.000E+00
      25     1     1     2     0     0 -3.108227203E+02  3.035483149E+01  1.917467789E+02  3.872002149E+02  1.250000000E+02  0.00000E+00  9.000E+00
      25     1     1     2     0     0  3.663431241E+02 -9.179871198E+01  1.096062325E+02  4.126412658E+02  1.250000000E+02  0.00000E+00  9.000E+00
      21     1     1     2   501   511 -5.552040381E+01  6.144388049E+01  8.768118427E+01  1.206062012E+02  9.536743164E-07  0.00000E+00  9.000E+00
#rwgt            1           1   2.9296895262247803E-002           1      316263           0
</event>
<event>
      5   9999  3.19816E-02  1.23232E+02 -1.00000E+00  1.19880E-01
      21    -1     0     0   502   501  0.000000000E+00  0.000000000E+00  1.936893870E+02  1.936893870E+02  0.000000000E+00  0.00000E+00  9.000E+00
      21    -1     0     0   501   512  0.000000000E+00  0.000000000E+00 -1.186082853E+03  1.186082853E+03  0.000000000E+00  0.00000E+00  9.000E+00
      25     1     1     2     0     0 -2.273835029E+02 -1.263299310E+02 -5.569040504E+02  6.272396912E+02  1.250000000E+02  0.00000E+00  9.000E+00
      25     1     1     2     0     0  1.497316221E+02  2.220191614E+02  4.549778025E+00  2.955634740E+02  1.250000000E+02  0.00000E+00  9.000E+00
      21     1     1     2   502   512  7.765188076E+01 -9.568923042E+01 -4.400391933E+02  4.569690745E+02  0.000000000E+00  0.00000E+00  9.000E+00
#rwgt            1           1   2.8632052238116500E-002           1      316354           0
</event>
<event>
      5   9999  3.19816E-02  5.52839E+01 -1.00000E+00  1.36631E-01
      21    -1     0     0   502   501  0.000000000E+00  0.000000000E+00  2.084448674E+02  2.084448674E+02  0.000000000E+00  0.00000E+00  9.000E+00
       2    -1     0     0   501     0  0.000000000E+00  0.000000000E+00 -3.033512491E+02  3.033512491E+02  0.000000000E+00  0.00000E+00  9.000E+00
      25     1     1     2     0     0 -3.212637819E+01  4.196399466E+01  9.716031004E+01  1.669077795E+02  1.250000000E+02  0.00000E+00  9.000E+00
      25     1     1     2     0     0 -1.172633649E+01 -7.562769910E+01 -1.616485342E+00  1.465764949E+02  1.250000000E+02  0.00000E+00  9.000E+00
       2     1     1     2   502     0  4.385271468E+01  3.366370444E+01 -1.904502064E+02  1.983118421E+02  2.697398305E-06  0.00000E+00  9.000E+00
#rwgt            1           1   3.7562620044458532E-002           1      316435           0
</event>
<event>
      5   9999  3.19816E-02  2.10298E+01 -1.00000E+00  1.64590E-01
      21    -1     0     0   502   501  0.000000000E+00  0.000000000E+00  1.300762779E+03  1.300762779E+03  0.000000000E+00  0.00000E+00  9.000E+00
      21    -1     0     0   501   511  0.000000000E+00  0.000000000E+00 -7.676295456E+01  7.676295456E+01  0.000000000E+00  0.00000E+00  9.000E+00
      25     1     1     2     0     0  8.764545314E+01  1.637202938E+02  1.038739715E+03  1.062587058E+03  1.250000000E+02  0.00000E+00  9.000E+00
      25     1     1     2     0     0 -7.603041014E+01 -1.812515428E+02  1.629012249E+02  2.842438286E+02  1.250000000E+02  0.00000E+00  9.000E+00
      21     1     1     2   502   511 -1.161504300E+01  1.753124896E+01  2.235888429E+01  3.069484681E+01  4.129530925E-07  0.00000E+00  9.000E+00
#rwgt            1           1   2.3775429510674347E-002           1      316478           0
</event>
<event>
      5   9999  3.19816E-02  6.20460E+01 -1.00000E+00  1.33930E-01
      21    -1     0     0   512   501  0.000000000E+00  0.000000000E+00  6.252659849E+02  6.252659849E+02  0.000000000E+00  0.00000E+00  9.000E+00
      21    -1     0     0   501   502  0.000000000E+00  0.000000000E+00 -1.580943237E+02  1.580943237E+02  0.000000000E+00  0.00000E+00  9.000E+00
      25     1     1     2     0     0 -6.367525533E+01  1.839930384E+02  6.349907172E+01  2.399272982E+02  1.250000000E+02  0.00000E+00  9.000E+00
      25     1     1     2     0     0  1.181349478E+02 -2.137226919E+02  2.266406955E+02  3.558430269E+02  1.250000000E+02  0.00000E+00  9.000E+00
      21     1     1     2   512   502 -5.445969244E+01  2.972965352E+01  1.770318940E+02  1.875899835E+02  1.907348633E-06  0.00000E+00  9.000E+00
#rwgt            1           1   2.6495332833482543E-002           1      316646           0
</event>
<event>
      5   9999  3.19816E-02  3.15719E+01 -1.00000E+00  1.51515E-01
      21    -1     0     0   502   501  0.000000000E+00  0.000000000E+00  1.934338046E+01  1.934338046E+01  0.000000000E+00  0.00000E+00  9.000E+00
      21    -1     0     0   501   511  0.000000000E+00  0.000000000E+00 -1.503627633E+03  1.503627633E+03  0.000000000E+00  0.00000E+00  9.000E+00
      25     1     1     2     0     0 -6.416194490E+01  1.385836605E+01 -7.630919941E+02  7.760432983E+02  1.250000000E+02  0.00000E+00  9.000E+00
      25     1     1     2     0     0  9.297208215E+01 -9.447967731E-01 -5.062165668E+02  5.296460264E+02  1.250000000E+02  0.00000E+00  9.000E+00
      21     1     1     2   502   511 -2.881013725E+01 -1.291356928E+01 -2.149756921E+02  2.172816893E+02  0.000000000E+00  0.00000E+00  9.000E+00
#rwgt            1           1   5.9884627928741295E-002           1      316791           0
</event>
<event>
      5   9999  3.19816E-02  5.43717E+01 -1.00000E+00  1.37030E-01
      21    -1     0     0   502   512  0.000000000E+00  0.000000000E+00  1.121419691E+03  1.121419691E+03  0.000000000E+00  0.00000E+00  9.000E+00
      21    -1     0     0   501   502  0.000000000E+00  0.000000000E+00 -4.024122608E+02  4.024122608E+02  0.000000000E+00  0.00000E+00  9.000E+00
      25     1     1     2     0     0  1.390743658E+02 -2.204046491E+02  4.910877288E+01  2.931834923E+02  1.250000000E+02  0.00000E+00  9.000E+00
      25     1     1     2     0     0 -9.147347558E+01  1.941284947E+02 -2.243905475E+02  3.347079129E+02  1.250000000E+02  0.00000E+00  9.000E+00
      21     1     1     2   501   512 -4.760089026E+01  2.627615444E+01  8.942892043E+02  8.959405460E+02  1.525878906E-05  0.00000E+00  9.000E+00
#rwgt            1           1   2.1420764068868045E-002           1      316903           0
</event>
<event>
      5   9999  3.19816E-02  2.02838E+01 -1.00000E+00  1.65866E-01
      21    -1     0     0   502   501  0.000000000E+00  0.000000000E+00  2.933829351E+02  2.933829351E+02  0.000000000E+00  0.00000E+00  9.000E+00
      21    -1     0     0   511   502  0.000000000E+00  0.000000000E+00 -2.332436508E+02  2.332436508E+02  0.000000000E+00  0.00000E+00  9.000E+00
      25     1     1     2     0     0 -1.766648756E+01  1.193526890E+02 -1.151676867E+02  2.084364777E+02  1.250000000E+02  0.00000E+00  9.000E+00
      25     1     1     2     0     0  1.967833067E+00 -1.065081006E+02  2.168123660E+02  2.719934740E+02  1.250000000E+02  0.00000E+00  9.000E+00
      21     1     1     2   511   501  1.569865449E+01 -1.284458847E+01 -4.150539496E+01  4.619663426E+01  8.259061849E-07  0.00000E+00  9.000E+00
#rwgt            1           1   2.8121430613840825E-002           1      316984           0
</event>
<event>
      5   9999  3.19816E-02  1.78673E+01 -1.00000E+00  1.70514E-01
      21    -1     0     0   512   501  0.000000000E+00  0.000000000E+00  1.517571832E+03  1.517571832E+03  0.000000000E+00  0.00000E+00  9.000E+00
      21    -1     0     0   501   502  0.000000000E+00  0.000000000E+00 -1.115112060E+02  1.115112060E+02  0.000000000E+00  0.00000E+00  9.000E+00
      25     1     1     2     0     0 -1.569620910E+02 -1.002023509E+02  7.068467492E+01  2.351572504E+02  1.250000000E+02  0.00000E+00  9.000E+00
      25     1     1     2     0     0  1.390959160E+02  1.000040101E+02  3.559399723E+02  4.143268514E+02  1.250000000E+02  0.00000E+00  9.000E+00
      21     1     1     2   512   502  1.786617503E+01  1.983407589E-01  9.794359790E+02  9.795989365E+02  0.000000000E+00  0.00000E+00  9.000E+00
#rwgt            1           1   1.9667339038138026E-002           1      317136           0
</event>
<event>
      5   9999  3.19816E-02  6.59459E+00 -1.00000E+00  2.19282E-01
      21    -1     0     0   502   511  0.000000000E+00  0.000000000E+00  4.054461151E+02  4.054461151E+02  0.000000000E+00  0.00000E+00  9.000E+00
      21    -1     0     0   501   502  0.000000000E+00  0.000000000E+00 -6.731893465E+02  6.731893465E+02  0.000000000E+00  0.00000E+00  9.000E+00
      25     1     1     2     0     0  1.196031477E+02  2.334944590E+02 -3.737960991E+02  4.734692166E+02  1.250000000E+02  0.00000E+00  9.000E+00
      25     1     1     2     0     0 -1.172005148E+02 -2.396357928E+02 -1.625616785E+02  3.364707613E+02  1.250000000E+02  0.00000E+00  9.000E+00
      21     1     1     2   501   511 -2.402632976E+00  6.141333814E+00  2.686145461E+02  2.686954838E+02  0.000000000E+00  0.00000E+00  9.000E+00
#rwgt            1           1   2.7858437345959421E-002           1      317308           0
</event>
<event>
      5   9999  3.19816E-02  1.95995E+02 -1.00000E+00  1.11969E-01
      21    -1     0     0   502   501  0.000000000E+00  0.000000000E+00  3.884228248E+02  3.884228248E+02  0.000000000E+00  0.00000E+00  9.000E+00
       2    -1     0     0   501     0  0.000000000E+00  0.000000000E+00 -2.252091565E+03  2.252091565E+03  0.000000000E+00  0.00000E+00  9.000E+00
      25     1     1     2     0     0  8.827858526E+01  4.680317031E+02 -2.742882227E+02  5.636539832E+02  1.250000000E+02  0.00000E+00  9.000E+00
      25     1     1     2     0     0 -2.759705315E+02 -4.115897354E+02 -3.727154957E+01  5.124256170E+02  1.250000000E+02  0.00000E+00  9.000E+00
       2     1     1     2   502     0  1.876919463E+02 -5.644196769E+01 -1.552108968E+03  1.564434790E+03  0.000000000E+00  0.00000E+00  9.000E+00
#rwgt            1           1   2.6405054815625252E-002           1      317543           0
</event>
<event>
      5   9999  3.19816E-02  1.12375E+02 -1.00000E+00  1.21591E-01
      21    -1     0     0   502   501  0.000000000E+00  0.000000000E+00  1.490273996E+02  1.490273996E+02  0.000000000E+00  0.00000E+00  9.000E+00
      21    -1     0     0   501   511  0.000000000E+00  0.000000000E+00 -1.112142511E+03  1.112142511E+03  0.000000000E+00  0.00000E+00  9.000E+00
      25     1     1     2     0     0  5.221465586E+01  2.872475351E+02 -5.650211883E+02  6.481600573E+02  1.250000000E+02  0.00000E+00  9.000E+00
      25     1     1     2     0     0 -5.132998911E+01 -1.748755523E+02 -2.387985807E+01  2.222869186E+02  1.250000000E+02  0.00000E+00  9.000E+00
      21     1     1     2   502   511 -8.846667555E-01 -1.123719828E+02 -3.742140647E+02  3.907229343E+02  0.000000000E+00  0.00000E+00  9.000E+00
#rwgt            1           1   3.3154257572651738E-002           1      317606           0
</event>
<event>
      5   9999  3.19816E-02  5.14400E+01 -1.00000E+00  1.38376E-01
      21    -1     0     0   502   501  0.000000000E+00  0.000000000E+00  6.740671551E+02  6.740671551E+02  0.000000000E+00  0.00000E+00  9.000E+00
      21    -1     0     0   501   512  0.000000000E+00  0.000000000E+00 -7.573236678E+02  7.573236678E+02  0.000000000E+00  0.00000E+00  9.000E+00
      25     1     1     2     0     0 -1.266533986E+02 -2.683801470E+02  5.759429236E+02  6.598516788E+02  1.250000000E+02  0.00000E+00  9.000E+00
      25     1     1     2     0     0  1.634209351E+02  2.324048670E+02 -3.949194722E+02  5.022995259E+02  1.250000000E+02  0.00000E+00  9.000E+00
      21     1     1     2   502   512 -3.676753644E+01  3.597528003E+01 -2.642799642E+02  2.692396182E+02  5.394796609E-06  0.00000E+00  9.000E+00
#rwgt            1           1   3.1409381760791992E-002           1      317670           0
</event>
<event>
      5   9999  3.19816E-02  1.52517E+02 -1.00000E+00  1.16108E-01
      21    -1     0     0   502   511  0.000000000E+00  0.000000000E+00  5.490174170E+02  5.490174170E+02  0.000000000E+00  0.00000E+00  9.000E+00
      21    -1     0     0   501   502  0.000000000E+00  0.000000000E+00 -2.820826053E+03  2.820826053E+03  0.000000000E+00  0.00000E+00  9.000E+00
      25     1     1     2     0     0  5.597247316E+02  8.047826281E+02 -2.130530385E+03  2.348563726E+03  1.250000000E+02  0.00000E+00  9.000E+00
      25     1     1     2     0     0 -4.335988719E+02 -7.190295518E+02 -1.708439257E+02  8.659238564E+02  1.250000000E+02  0.00000E+00  9.000E+00
      21     1     1     2   501   511 -1.261258597E+02 -8.575307625E+01  2.956567490E+01  1.553558873E+02  2.360223517E-06  0.00000E+00  9.000E+00
#rwgt            1           1   2.2586598415641652E-002           1      317770           0
</event>
<event>
      5   9999  3.19816E-02  3.49697E+01 -1.00000E+00  1.48556E-01
      21    -1     0     0   502   501  0.000000000E+00  0.000000000E+00  5.009322946E+02  5.009322946E+02  0.000000000E+00  0.00000E+00  9.000E+00
      21    -1     0     0   501   512  0.000000000E+00  0.000000000E+00 -5.219685418E+02  5.219685418E+02  0.000000000E+00  0.00000E+00  9.000E+00
      25     1     1     2     0     0 -1.780932509E+02  3.345750105E+02 -2.761929175E+02  4.853505654E+02  1.250000000E+02  0.00000E+00  9.000E+00
      25     1     1     2     0     0  1.870212117E+02 -3.007642433E+02  2.999969135E+02  4.806861885E+02  1.250000000E+02  0.00000E+00  9.000E+00
      21     1     1     2   502   512 -8.927960852E+00 -3.381076717E+01 -4.484024323E+01  5.686408247E+01  0.000000000E+00  0.00000E+00  9.000E+00
#rwgt            1           1   2.5745182856758746E-002           1      317877           0
</event>
<event>
      5   9999  3.19816E-02  8.39091E+01 -1.00000E+00  1.27355E-01
      21    -1     0     0   502   501  0.000000000E+00  0.000000000E+00  4.017488107E+02  4.017488107E+02  0.000000000E+00  0.00000E+00  9.000E+00
      21    -1     0     0   511   502  0.000000000E+00  0.000000000E+00 -4.870323748E+02  4.870323748E+02  0.000000000E+00  0.00000E+00  9.000E+00
      25     1     1     2     0     0  3.120852282E+02 -2.478491897E+02  8.654892510E+01  4.265467464E+02  1.250000000E+02  0.00000E+00  9.000E+00
      25     1     1     2     0     0 -2.684563770E+02  1.761745565E+02 -1.479400534E+02  3.749900800E+02  1.250000000E+02  0.00000E+00  9.000E+00
      21     1     1     2   511   501 -4.362885124E+01  7.167463320E+01 -2.389243584E+01  8.724435910E+01  4.768371582E-07  0.00000E+00  9.000E+00
#rwgt            1           1   3.0205214360411337E-002           1      318054           0
</event>
<event>
      5   9999  3.19816E-02  9.53709E+01 -1.00000E+00  1.24761E-01
      21    -1     0     0   502   501  0.000000000E+00  0.000000000E+00  4.005145256E+02  4.005145256E+02  0.000000000E+00  0.00000E+00  9.000E+00
      21    -1     0     0   501   512  0.000000000E+00  0.000000000E+00 -8.965049023E+02  8.965049023E+02  0.000000000E+00  0.00000E+00  9.000E+00
      25     1     1     2     0     0 -1.367271020E+02 -1.363847080E+02  3.146675250E+02  3.897893537E+02  1.250000000E+02  0.00000E+00  9.000E+00
      25     1     1     2     0     0  2.319475662E+02  1.417384939E+02 -6.992965687E+02  7.606117045E+02  1.250000000E+02  0.00000E+00  9.000E+00
      21     1     1     2   502   512 -9.522046425E+01 -5.353785894E+00 -1.113613330E+02  1.466183696E+02  2.336015456E-06  0.00000E+00  9.000E+00
#rwgt            1           1   2.9539192691644997E-002           1      318185           0
</event>
<event>
      5   9999  3.19816E-02  9.15392E+01 -1.00000E+00  1.25580E-01
       1    -1     0     0   502     0  0.000000000E+00  0.000000000E+00  1.917133991E+03  1.917133991E+03  0.000000000E+00  0.00000E+00  9.000E+00
      21    -1     0     0   501   502  0.000000000E+00  0.000000000E+00 -2.763330781E+02  2.763330781E+02  0.000000000E+00  0.00000E+00  9.000E+00
      25     1     1     2     0     0  2.370893775E+02 -3.145579074E+02 -4.106885255E+01  4.152947155E+02  1.250000000E+02  0.00000E+00  9.000E+00
      25     1     1     2     0     0 -3.246455312E+02  2.878495577E+02  1.098718747E+03  1.187880455E+03  1.250000000E+02  0.00000E+00  9.000E+00
       1     1     1     2   501     0  8.755615362E+01  2.670834975E+01  5.831510185E+02  5.902918993E+02  0.000000000E+00  0.00000E+00  9.000E+00
#rwgt            1           1   3.4547553519012709E-002           1      318245           0
</event>
<event>
      5   9999  3.19816E-02  3.09081E+01 -1.00000E+00  1.52146E-01
      21    -1     0     0   502   511  0.000000000E+00  0.000000000E+00  2.211570943E+02  2.211570943E+02  0.000000000E+00  0.00000E+00  9.000E+00
      21    -1     0     0   501   502  0.000000000E+00  0.000000000E+00 -5.804077146E+02  5.804077146E+02  0.000000000E+00  0.00000E+00  9.000E+00
      25     1     1     2     0     0  7.556600661E+01  2.167495657E+02 -2.618065879E+02  3.699436241E+02  1.250000000E+02  0.00000E+00  9.000E+00
      25     1     1     2     0     0 -8.529520254E+01 -2.460864288E+02 -1.821025923E+02  3.414969343E+02  1.250000000E+02  0.00000E+00  9.000E+00
      21     1     1     2   501   511  9.729195933E+00  2.933686313E+01  8.465855976E+01  9.012425052E+01  0.000000000E+00  0.00000E+00  9.000E+00
#rwgt            1           1   2.8122491438761225E-002           1      318377           0
</event>
<event>
      5   9999  3.19816E-02  3.65576E+01 -1.00000E+00  1.47306E-01
      21    -1     0     0   512   501  0.000000000E+00  0.000000000E+00  4.841650297E+02  4.841650297E+02  0.000000000E+00  0.00000E+00  9.000E+00
      21    -1     0     0   501   502  0.000000000E+00  0.000000000E+00 -2.926539890E+02  2.926539890E+02  0.000000000E+00  0.00000E+00  9.000E+00
      25     1     1     2     0     0  4.351697233E+01 -1.590978185E+02 -2.255575697E+02  3.061160891E+02  1.250000000E+02  0.00000E+00  9.000E+00
      25     1     1     2     0     0 -2.991502505E+01  1.251649205E+02  3.691045316E+02  4.103953232E+02  1.250000000E+02  0.00000E+00  9.000E+00
      21     1     1     2   512   502 -1.360194728E+01  3.393289801E+01  4.796407873E+01  6.030760637E+01  6.743495762E-07  0.00000E+00  9.000E+00
#rwgt            1           1   3.1878585694665555E-002           1      318531           0
</event>
<event>
      5   9999  3.19816E-02  4.16528E+02 -1.00000E+00  1.01159E-01
      21    -1     0     0   502   501  0.000000000E+00  0.000000000E+00  3.084235680E+02  3.084235680E+02  0.000000000E+00  0.00000E+00  9.000E+00
      21    -1     0     0   511   502  0.000000000E+00  0.000000000E+00 -1.772048266E+03  1.772048266E+03  0.000000000E+00  0.00000E+00  9.000E+00
      25     1     1     2     0     0  3.158245830E+01 -3.126456404E+02  1.021785278E+02  3.532848704E+02  1.250000000E+02  0.00000E+00  9.000E+00
      25     1     1     2     0     0 -2.849451421E+02 -1.796375359E+01 -6.305634115E+02  7.033858446E+02  1.250000000E+02  0.00000E+00  9.000E+00
      21     1     1     2   511   501  2.533626838E+02  3.306093940E+02 -9.352398148E+02  1.023801119E+03  1.525878906E-05  0.00000E+00  9.000E+00
#rwgt            1           1   3.0161055030352595E-002           1      318694           0
</event>
<event>
      5   9999  3.19816E-02  8.21235E+01 -1.00000E+00  1.27801E-01
      -5    -1     0     0     0   501  0.000000000E+00  0.000000000E+00  3.771169211E+02  3.771169211E+02  0.000000000E+00  0.00000E+00  9.000E+00
      21    -1     0     0   501   502  0.000000000E+00  0.000000000E+00 -1.559885280E+03  1.559885280E+03  0.000000000E+00  0.00000E+00  9.000E+00
      25     1     1     2     0     0 -2.610150973E-01 -1.486490068E+02  5.413172775E+01  2.016230128E+02  1.250000000E+02  0.00000E+00  9.000E+00
      25     1     1     2     0     0  7.679483096E+01  1.784288472E+02 -1.470102067E+03  1.488139572E+03  1.250000000E+02  0.00000E+00  9.000E+00
      -5     1     1     2     0   502 -7.653381586E+01 -2.977984043E+01  2.332019805E+02  2.472396157E+02  3.814697266E-06  0.00000E+00  9.000E+00
#rwgt            1           1   3.6735530781143950E-002           1      318724           0
</event>
<event>
      5   9999  3.19816E-02  1.03449E+02 -1.00000E+00  1.23169E-01
      21    -1     0     0   502   501  0.000000000E+00  0.000000000E+00  2.818517922E+02  2.818517922E+02  0.000000000E+00  0.00000E+00  9.000E+00
      21    -1     0     0   511   502  0.000000000E+00  0.000000000E+00 -8.571364470E+02  8.571364470E+02  0.000000000E+00  0.00000E+00  9.000E+00
      25     1     1     2     0     0 -7.365723981E+01  1.304330414E+00 -1.995589237E+02  2.467303271E+02  1.250000000E+02  0.00000E+00  9.000E+00
      25     1     1     2     0     0 -2.380492699E+01 -3.598653953E+01  2.367121351E+02  2.711445011E+02  1.250000000E+02  0.00000E+00  9.000E+00
      21     1     1     2   511   501  9.746216680E+01  3.468220912E+01 -6.124378661E+02  6.211134111E+02  1.321449896E-05  0.00000E+00  9.000E+00
#rwgt            1           1   3.3720501772345562E-002           1      318808           0
</event>
<event>
      5   9999  3.19816E-02  7.29270E+02 -1.00000E+00  9.44081E-02
      21    -1     0     0   502   501  0.000000000E+00  0.000000000E+00  2.972121467E+03  2.972121467E+03  0.000000000E+00  0.00000E+00  9.000E+00
       1    -1     0     0   501     0  0.000000000E+00  0.000000000E+00 -2.062746173E+03  2.062746173E+03  0.000000000E+00  0.00000E+00  9.000E+00
      25     1     1     2     0     0  2.895262807E+02  7.033724528E+02  2.037102307E+03  2.178065445E+03  1.250000000E+02  0.00000E+00  9.000E+00
      25     1     1     2     0     0 -9.924417947E+02 -8.976504868E+02  1.834479455E+02  1.356464250E+03  1.250000000E+02  0.00000E+00  9.000E+00
       1     1     1     2   502     0  7.029155140E+02  1.942780341E+02 -1.311174959E+03  1.500337944E+03  1.525878906E-05  0.00000E+00  9.000E+00
#rwgt            2          12   1.7657805167323743E-003           1      318890           0
</event>
<event>
      5   9999  3.19816E-02  5.73937E+01 -1.00000E+00  1.35742E-01
      21    -1     0     0   511   501  0.000000000E+00  0.000000000E+00  1.104511261E+02  1.104511261E+02  0.000000000E+00  0.00000E+00  9.000E+00
      21    -1     0     0   501   502  0.000000000E+00  0.000000000E+00 -6.500924357E+02  6.500924357E+02  0.000000000E+00  0.00000E+00  9.000E+00
      25     1     1     2     0     0 -1.031884461E+02  1.343321229E+02 -2.510219355E+02  3.276125559E+02  1.250000000E+02  0.00000E+00  9.000E+00
      25     1     1     2     0     0  1.467525842E+02 -1.716979904E+02 -2.675674700E+02  3.717981601E+02  1.250000000E+02  0.00000E+00  9.000E+00
      21     1     1     2   511   502 -4.356413802E+01  3.736586746E+01 -2.105190407E+01  6.113284581E+01  7.539457465E-07  0.00000E+00  9.000E+00
#rwgt            1           1   3.1893136470180848E-002           1      318939           0
</event>
<event>
      5   9999  3.19816E-02  1.29896E+02 -1.00000E+00  1.18925E-01
      21    -1     0     0   502   501  0.000000000E+00  0.000000000E+00  1.541020483E+03  1.541020483E+03  0.000000000E+00  0.00000E+00  9.000E+00
       2    -1     0     0   501     0  0.000000000E+00  0.000000000E+00 -4.493683877E+03  4.493683877E+03  0.000000000E+00  0.00000E+00  9.000E+00
      25     1     1     2     0     0  9.193178345E+02 -3.297442648E+02  1.282499044E+03  1.616881368E+03  1.250000000E+02  0.00000E+00  9.000E+00
      25     1     1     2     0     0 -7.894750166E+02  3.260244933E+02 -1.993235719E+03  2.172136369E+03  1.250000000E+02  0.00000E+00  9.000E+00
       2     1     1     2   502     0 -1.298428179E+02  3.719771509E+00 -2.241926719E+03  2.245686623E+03  0.000000000E+00  0.00000E+00  9.000E+00
#rwgt            1           1   2.0237693662990074E-002           1      319007           0
</event>
<event>
      5   9999  3.19816E-02  7.32682E+01 -1.00000E+00  1.30225E-01
      21    -1     0     0   502   511  0.000000000E+00  0.000000000E+00  4.719618397E+01  4.719618397E+01  0.000000000E+00  0.00000E+00  9.000E+00
      21    -1     0     0   501   502  0.000000000E+00  0.000000000E+00 -2.220143597E+03  2.220143597E+03  0.000000000E+00  0.00000E+00  9.000E+00
      25     1     1     2     0     0  1.919841826E+02 -1.082370439E+02 -9.668550455E+02  9.995033082E+02  1.250000000E+02  0.00000E+00  9.000E+00
      25     1     1     2     0     0 -1.758145994E+02  1.796987324E+02 -1.120632486E+03  1.155268184E+03  1.250000000E+02  0.00000E+00  9.000E+00
      21     1     1     2   501   511 -1.616958324E+01 -7.146168852E+01 -8.545988164E+01  1.125682891E+02  1.348699152E-06  0.00000E+00  9.000E+00
#rwgt            1           1   9.0439484916727667E-002           1      319125           0
</event>
<event>
      5   9999  3.19816E-02  5.78236E+02 -1.00000E+00  9.70909E-02
       1    -1     0     0   502     0  0.000000000E+00  0.000000000E+00  2.299644444E+03  2.299644444E+03  0.000000000E+00  0.00000E+00  9.000E+00
      21    -1     0     0   501   502  0.000000000E+00  0.000000000E+00 -5.349689079E+02  5.349689079E+02  0.000000000E+00  0.00000E+00  9.000E+00
      25     1     1     2     0     0  6.558819712E+01 -1.307663124E+02 -3.909463299E+02  4.357357834E+02  1.250000000E+02  0.00000E+00  9.000E+00
      25     1     1     2     0     0  7.970715128E+01 -4.289172262E+02  7.188527784E+02  8.501161885E+02  1.250000000E+02  0.00000E+00  9.000E+00
       1     1     1     2   501     0 -1.452953484E+02  5.596835386E+02  1.436769087E+03  1.548761380E+03  0.000000000E+00  0.00000E+00  9.000E+00
#rwgt            2          17   5.0876577623682005E-004           1      319298           0
</event>
<event>
      5   9999  3.19816E-02  1.89659E+02 -1.00000E+00  1.12494E-01
       2    -1     0     0   502     0  0.000000000E+00  0.000000000E+00  1.106329331E+03  1.106329331E+03  0.000000000E+00  0.00000E+00  9.000E+00
      21    -1     0     0   501   502  0.000000000E+00  0.000000000E+00 -2.109197878E+02  2.109197878E+02  0.000000000E+00  0.00000E+00  9.000E+00
      25     1     1     2     0     0  1.739461799E+02  1.754765464E+02  5.100101442E+02  5.803314906E+02  1.250000000E+02  0.00000E+00  9.000E+00
      25     1     1     2     0     0 -2.313908451E+02  5.274036564E+00 -4.473549227E+01  2.668254166E+02  1.250000000E+02  0.00000E+00  9.000E+00
       2     1     1     2   501     0  5.744466522E+01 -1.807505830E+02  4.301348915E+02  4.700922119E+02  5.394796609E-06  0.00000E+00  9.000E+00
#rwgt            1           1   2.7982283785174960E-002           1      319317           0
</event>
<event>
      5   9999  3.19816E-02  1.34688E+02 -1.00000E+00  1.18278E-01
      21    -1     0     0   502   511  0.000000000E+00  0.000000000E+00  9.634697341E+02  9.634697341E+02  0.000000000E+00  0.00000E+00  9.000E+00
      21    -1     0     0   501   502  0.000000000E+00  0.000000000E+00 -1.985842054E+03  1.985842054E+03  0.000000000E+00  0.00000E+00  9.000E+00
      25     1     1     2     0     0  4.260126271E+02 -3.926077489E+02 -1.539969603E+02  6.123460352E+02  1.250000000E+02  0.00000E+00  9.000E+00
      25     1     1     2     0     0 -4.434638643E+02  2.590550480E+02 -1.552340837E+03  1.639864869E+03  1.250000000E+02  0.00000E+00  9.000E+00
      21     1     1     2   501   511  1.745123714E+01  1.335527010E+02  6.839654765E+02  6.971008841E+02  1.078959322E-05  0.00000E+00  9.000E+00
#rwgt            1           1   3.2207887117352653E-002           1      319362           0
</event>
<event>
      5   9999  3.19816E-02  7.00184E+01 -1.00000E+00  1.31215E-01
      -3    -1     0     0     0   501  0.000000000E+00  0.000000000E+00  9.446340998E+02  9.446340998E+02  0.000000000E+00  0.00000E+00  9.000E+00
      21    -1     0     0   501   502  0.000000000E+00  0.000000000E+00 -1.470096852E+03  1.470096852E+03  0.000000000E+00  0.00000E+00  9.000E+00
      25     1     1     2     0     0  1.833108078E+02  7.366392922E+00 -4.048348858E+02  4.617070508E+02  1.250000000E+02  0.00000E+00  9.000E+00
      25     1     1     2     0     0 -2.488606973E+02  1.724648394E+01 -1.016663132E+03  1.054257090E+03  1.250000000E+02  0.00000E+00  9.000E+00
      -3     1     1     2     0   502  6.554988948E+01 -2.461287686E+01  8.960352661E+02  8.987668106E+02  1.078959322E-05  0.00000E+00  9.000E+00
#rwgt            1           1   3.1428466528787551E-002           1      319474           0
</event>
<event>
      5   9999  3.19816E-02  8.01303E+01 -1.00000E+00  1.28315E-01
      21    -1     0     0   502   501  0.000000000E+00  0.000000000E+00  5.716879512E+02  5.716879512E+02  0.000000000E+00  0.00000E+00  9.000E+00
      21    -1     0     0   511   502  0.000000000E+00  0.000000000E+00 -3.611005881E+02  3.611005881E+02  0.000000000E+00  0.00000E+00  9.000E+00
      25     1     1     2     0     0 -3.135615866E+02  1.184712934E+02  4.211580834E+01  3.602152929E+02  1.250000000E+02  0.00000E+00  9.000E+00
      25     1     1     2     0     0  2.950260966E+02 -1.964283441E+02  2.553598241E+02  4.543766409E+02  1.250000000E+02  0.00000E+00  9.000E+00
      21     1     1     2   511   501  1.853549005E+01  7.795705077E+01 -8.688826944E+01  1.181966054E+02  1.348699152E-06  0.00000E+00  9.000E+00
#rwgt            1           1   2.8581242745190839E-002           1      319529           0
</event>
<event>
      5   9999  3.19816E-02  5.14057E+01 -1.00000E+00  1.38392E-01
      21    -1     0     0   502   501  0.000000000E+00  0.000000000E+00  1.194169969E+03  1.194169969E+03  0.000000000E+00  0.00000E+00  9.000E+00
      21    -1     0     0   501   512  0.000000000E+00  0.000000000E+00 -6.742438329E+02  6.742438329E+02  0.000000000E+00  0.00000E+00  9.000E+00
      25     1     1     2     0     0 -6.247655326E+02 -2.660269348E+02  1.891372136E+02  7.158911833E+02  1.250000000E+02  0.00000E+00  9.000E+00
      25     1     1     2     0     0  6.646869336E+02  2.336413092E+02  5.656319453E+02  9.121192239E+02  1.250000000E+02  0.00000E+00  9.000E+00
      21     1     1     2   502   512 -3.992140105E+01  3.238562556E+01 -2.348430226E+02  2.404033949E+02  5.394796609E-06  0.00000E+00  9.000E+00
#rwgt            1           1   2.0698954137695871E-002           1      319635           0
</event>
<event>
      5   9999  3.19816E-02  7.32443E+01 -1.00000E+00  1.30232E-01
      21    -1     0     0   502   501  0.000000000E+00  0.000000000E+00  4.357638943E+01  4.357638943E+01  0.000000000E+00  0.00000E+00  9.000E+00
       2    -1     0     0   501     0  0.000000000E+00  0.000000000E+00 -1.345728728E+03  1.345728728E+03  0.000000000E+00  0.00000E+00  9.000E+00
      25     1     1     2     0     0 -1.084109872E+02  4.078306251E+00 -5.921061362E+02  6.148042381E+02  1.250000000E+02  0.00000E+00  9.000E+00
      25     1     1     2     0     0  9.703980962E+01  6.827787347E+01 -2.222924893E+02  2.812784092E+02  1.250000000E+02  0.00000E+00  9.000E+00
       2     1     1     2   502     0  1.137117755E+01 -7.235617972E+01 -4.877537129E+02  4.932224700E+02  0.000000000E+00  0.00000E+00  9.000E+00
#rwgt            1           1   3.3801354399263621E-002           1      319711           0
</event>
<event>
      5   9999  3.19816E-02  4.04994E+01 -1.00000E+00  1.44507E-01
      21    -1     0     0   511   501  0.000000000E+00  0.000000000E+00  3.423350442E+02  3.423350442E+02  0.000000000E+00  0.00000E+00  9.000E+00
      21    -1     0     0   501   502  0.000000000E+00  0.000000000E+00 -1.068318401E+02  1.068318401E+02  0.000000000E+00  0.00000E+00  9.000E+00
      25     1     1     2     0     0 -4.015821965E+01 -9.925057868E+01  7.097667398E+01  1.792374074E+02  1.250000000E+02  0.00000E+00  9.000E+00
      25     1     1     2     0     0 -1.086017796E-02  9.408864438E+01  7.893106625E+01  1.752363728E+02  1.250000000E+02  0.00000E+00  9.000E+00
      21     1     1     2   511   502  4.016907983E+01  5.161934294E+00  8.559546387E+01  9.469310416E+01  1.907348633E-06  0.00000E+00  9.000E+00
#rwgt            1           1   7.4625366015433417E-002           1      319782           0
</event>
<event>
      5   9999  3.19816E-02  1.11472E+02 -1.00000E+00  1.21743E-01
      21    -1     0     0   502   501  0.000000000E+00  0.000000000E+00  1.649660778E+03  1.649660778E+03  0.000000000E+00  0.00000E+00  9.000E+00
      21    -1     0     0   512   502  0.000000000E+00  0.000000000E+00 -6.829316170E+02  6.829316170E+02  0.000000000E+00  0.00000E+00  9.000E+00
      25     1     1     2     0     0  7.506017272E+02  1.389578580E+02 -1.885824676E+02  7.961787401E+02  1.250000000E+02  0.00000E+00  9.000E+00
      25     1     1     2     0     0 -8.507459284E+02 -8.999799767E+01  1.128753415E+03  1.421821911E+03  1.250000000E+02  0.00000E+00  9.000E+00
      21     1     1     2   512   501  1.001442012E+02 -4.895986037E+01  2.655821285E+01  1.145917433E+02  5.840038640E-07  0.00000E+00  9.000E+00
#rwgt            1           1   3.0428448065898565E-002           1      319885           0
</event>
<event>
      5   9999  3.19816E-02  1.04803E+02 -1.00000E+00  1.22918E-01
      21    -1     0     0   502   501  0.000000000E+00  0.000000000E+00  5.552676642E+02  5.552676642E+02  0.000000000E+00  0.00000E+00  9.000E+00
      21    -1     0     0   511   502  0.000000000E+00  0.000000000E+00 -2.843740144E+02  2.843740144E+02  0.000000000E+00  0.00000E+00  9.000E+00
      25     1     1     2     0     0 -2.733411668E+02  3.124300459E+01  2.090333469E+02  3.674390547E+02  1.250000000E+02  0.00000E+00  9.000E+00
      25     1     1     2     0     0  3.271587443E+02  5.868640791E+01  8.440682501E+01  3.650019870E+02  1.250000000E+02  0.00000E+00  9.000E+00
      21     1     1     2   511   501 -5.381757751E+01 -8.992941250E+01 -2.254652221E+01  1.072006369E+02  1.092571186E-06  0.00000E+00  9.000E+00
#rwgt            1           1   2.7089838990167259E-002           1      319965           0
</event>
<event>
      5   9999  3.19816E-02  7.12555E+00 -1.00000E+00  2.14468E-01
       5    -1     0     0   502     0  0.000000000E+00  0.000000000E+00  2.282159875E+02  2.282159875E+02  0.000000000E+00  0.00000E+00  9.000E+00
      21    -1     0     0   501   502  0.000000000E+00  0.000000000E+00 -1.407180908E+03  1.407180908E+03  0.000000000E+00  0.00000E+00  9.000E+00
      25     1     1     2     0     0  8.976125609E+01 -1.272362565E+02 -4.784163985E+02  5.184143116E+02  1.250000000E+02  0.00000E+00  9.000E+00
      25     1     1     2     0     0 -9.586013412E+01  1.309209673E+02 -8.971585850E+02  9.202434415E+02  1.250000000E+02  0.00000E+00  9.000E+00
       5     1     1     2   501     0  6.098878031E+00 -3.684710786E+00  1.966100629E+02  1.967391426E+02  3.814697266E-06  0.00000E+00  9.000E+00
#rwgt            1           1   3.2716480916565052E-002           1      320045           0
</event>
<event>
      5   9999  3.19816E-02  1.49133E+02 -1.00000E+00  1.16493E-01
      21    -1     0     0   502   501  0.000000000E+00  0.000000000E+00  1.929439538E+02  1.929439538E+02  0.000000000E+00  0.00000E+00  9.000E+00
       2    -1     0     0   501     0  0.000000000E+00  0.000000000E+00 -1.652555352E+03  1.652555352E+03  0.000000000E+00  0.00000E+00  9.000E+00
      25     1     1     2     0     0  4.570054840E+02 -6.951453778E+00 -3.495995743E+02  5.888524412E+02  1.250000000E+02  0.00000E+00  9.000E+00
      25     1     1     2     0     0 -3.091830895E+02 -1.277586030E+01 -3.557831487E+02  4.878155946E+02  1.250000000E+02  0.00000E+00  9.000E+00
       2     1     1     2   502     0 -1.478223946E+02  1.972731407E+01 -7.542286750E+02  7.688312698E+02  0.000000000E+00  0.00000E+00  9.000E+00
#rwgt            1           1   3.2610534691481070E-002           1      320372           0
</event>
<event>
      5   9999  3.19816E-02  2.83336E+01 -1.00000E+00  1.54784E-01
      21    -1     0     0   511   501  0.000000000E+00  0.000000000E+00  5.980156731E+01  5.980156731E+01  0.000000000E+00  0.00000E+00  9.000E+00
      21    -1     0     0   501   502  0.000000000E+00  0.000000000E+00 -8.687401985E+02  8.687401985E+02  0.000000000E+00  0.00000E+00  9.000E+00
      25     1     1     2     0     0  6.513518876E+01 -7.314107762E+01 -1.368508109E+02  2.096314731E+02  1.250000000E+02  0.00000E+00  9.000E+00
      25     1     1     2     0     0 -4.160846872E+01  5.735232011E+01 -6.752800173E+02  6.903974616E+02  1.250000000E+02  0.00000E+00  9.000E+00
      21     1     1     2   511   502 -2.352672004E+01  1.578875752E+01  3.192196947E+00  2.851283116E+01  6.925433897E-07  0.00000E+00  9.000E+00
#rwgt            1           1   2.7672826146346741E-002           1      320468           0
</event>
<event>
      5   9999  3.19816E-02  1.49294E+01 -1.00000E+00  1.77577E-01
      21    -1     0     0   502   501  0.000000000E+00  0.000000000E+00  1.480752346E+03  1.480752346E+03  0.000000000E+00  0.00000E+00  9.000E+00
      21    -1     0     0   501   512  0.000000000E+00  0.000000000E+00 -8.819771229E+01  8.819771229E+01  0.000000000E+00  0.00000E+00  9.000E+00
      25     1     1     2     0     0  1.584763785E+02  2.472348900E+02  6.535417748E+02  7.273112846E+02  1.250000000E+02  0.00000E+00  9.000E+00
      25     1     1     2     0     0 -1.522679780E+02 -2.336575737E+02  7.581111470E+02  8.173976450E+02  1.250000000E+02  0.00000E+00  9.000E+00
      21     1     1     2   502   512 -6.208400526E+00 -1.357731628E+01 -1.909828756E+01  2.424112915E+01  4.768371582E-07  0.00000E+00  9.000E+00
#rwgt            1           1   2.7926306916973672E-002           1      320576           0
</event>
<event>
      5   9999  3.19816E-02  1.05215E+02 -1.00000E+00  1.22843E-01
      21    -1     0     0   502   501  0.000000000E+00  0.000000000E+00  2.059848599E+02  2.059848599E+02  0.000000000E+00  0.00000E+00  9.000E+00
      21    -1     0     0   511   502  0.000000000E+00  0.000000000E+00 -2.846172433E+03  2.846172433E+03  0.000000000E+00  0.00000E+00  9.000E+00
      25     1     1     2     0     0  1.007286412E+02 -1.127810529E+02  1.407126213E+02  2.414350158E+02  1.250000000E+02  0.00000E+00  9.000E+00
      25     1     1     2     0     0 -5.496701202E+01  2.075226433E+02 -1.154595799E+03  1.181017984E+03  1.250000000E+02  0.00000E+00  9.000E+00
      21     1     1     2   511   501 -4.576162919E+01 -9.474159039E+01 -1.626304395E+03  1.629704293E+03  0.000000000E+00  0.00000E+00  9.000E+00
#rwgt            1           1   2.5651213138151767E-002           1      320796           0
</event>
<event>
      5   9999  3.19816E-02  2.42510E+01 -1.00000E+00  1.59747E-01
      21    -1     0     0   502   501  0.000000000E+00  0.000000000E+00  1.374079457E+03  1.374079457E+03  0.000000000E+00  0.00000E+00  9.000E+00
      21    -1     0     0   512   502  0.000000000E+00  0.000000000E+00 -3.143938702E+02  3.143938702E+02  0.000000000E+00  0.00000E+00  9.000E+00
      25     1     1     2     0     0  1.038022426E+02 -3.112977339E+02  1.214550116E+03  1.264293545E+03  1.250000000E+02  0.00000E+00  9.000E+00
      25     1     1     2     0     0 -9.590948953E+01  3.342284294E+02 -1.370969964E+02  3.941165559E+02  1.250000000E+02  0.00000E+00  9.000E+00
      21     1     1     2   512   501 -7.892753105E+00 -2.293069544E+01 -1.776753268E+01  3.006322609E+01  8.920806376E-07  0.00000E+00  9.000E+00
#rwgt            1           1   2.9218945343593695E-002           1      320858           0
</event>
<event>
      5   9999  3.19816E-02  4.76979E+01 -1.00000E+00  1.40254E-01
      21    -1     0     0   502   501  0.000000000E+00  0.000000000E+00  2.058622586E+02  2.058622586E+02  0.000000000E+00  0.00000E+00  9.000E+00
       2    -1     0     0   501     0  0.000000000E+00  0.000000000E+00 -1.255716844E+03  1.255716844E+03  0.000000000E+00  0.00000E+00  9.000E+00
      25     1     1     2     0     0 -2.440065268E+02 -7.958103766E+01 -1.055524844E+02  3.043659863E+02  1.250000000E+02  0.00000E+00  9.000E+00
      25     1     1     2     0     0  1.994919348E+02  9.671399992E+01 -4.720783438E+01  2.588517133E+02  1.250000000E+02  0.00000E+00  9.000E+00
       2     1     1     2   502     0  4.451459198E+01 -1.713296226E+01 -8.970942668E+02  8.983614032E+02  0.000000000E+00  0.00000E+00  9.000E+00
#rwgt            1           1   2.6468410087333069E-002           1      321000           0
</event>
<event>
      5   9999  3.19816E-02  3.70319E+02 -1.00000E+00  1.02703E-01
      -5    -1     0     0     0   501  0.000000000E+00  0.000000000E+00  1.418428410E+03  1.418428410E+03  0.000000000E+00  0.00000E+00  9.000E+00
      21    -1     0     0   501   502  0.000000000E+00  0.000000000E+00 -2.519961972E+02  2.519961972E+02  0.000000000E+00  0.00000E+00  9.000E+00
      25     1     1     2     0     0 -7.217170729E+01 -1.436455102E+02  5.402204970E+01  2.106802549E+02  1.250000000E+02  0.00000E+00  9.000E+00
      25     1     1     2     0     0  4.374760292E+02  8.290619609E+01  2.604263333E+02  5.307594451E+02  1.250000000E+02  0.00000E+00  9.000E+00
      -5     1     1     2     0   502 -3.653043219E+02  6.073931413E+01  8.519838301E+02  9.289849077E+02  0.000000000E+00  0.00000E+00  9.000E+00
#rwgt            2           1   1.4329413222627595E-005           1      321261           0
</event>
<event>
      5   9999  3.19816E-02  3.38648E+01 -1.00000E+00  1.49472E-01
      21    -1     0     0   502   501  0.000000000E+00  0.000000000E+00  4.073083072E+02  4.073083072E+02  0.000000000E+00  0.00000E+00  9.000E+00
       2    -1     0     0   501     0  0.000000000E+00  0.000000000E+00 -8.721283205E+02  8.721283205E+02  0.000000000E+00  0.00000E+00  9.000E+00
      25     1     1     2     0     0  1.362240984E+02  3.958424909E+02 -3.752266655E+02  5.759065315E+02  1.250000000E+02  0.00000E+00  9.000E+00
      25     1     1     2     0     0 -1.495477842E+02 -4.269761238E+02  1.254511019E+02  4.858354958E+02  1.250000000E+02  0.00000E+00  9.000E+00
       2     1     1     2   502     0  1.332368585E+01  3.113363292E+01 -2.150444497E+02  2.176946004E+02  2.697398305E-06  0.00000E+00  9.000E+00
#rwgt            1           1   2.3156586929230713E-002           1      321280           0
</event>
<event>
      5   9999  3.19816E-02  1.29204E+02 -1.00000E+00  1.19022E-01
      21    -1     0     0   511   501  0.000000000E+00  0.000000000E+00  6.658799432E+02  6.658799432E+02  0.000000000E+00  0.00000E+00  9.000E+00
      21    -1     0     0   501   502  0.000000000E+00  0.000000000E+00 -9.641779619E+02  9.641779619E+02  0.000000000E+00  0.00000E+00  9.000E+00
      25     1     1     2     0     0 -2.533721248E+02 -3.363242901E+02  2.386766108E+02  4.999029769E+02  1.250000000E+02  0.00000E+00  9.000E+00
      25     1     1     2     0     0  2.146887046E+02  4.596011657E+02 -7.301138495E+02  8.977837739E+02  1.250000000E+02  0.00000E+00  9.000E+00
      21     1     1     2   511   502  3.868342016E+01 -1.232768756E+02  1.931392200E+02  2.323711543E+02  2.697398305E-06  0.00000E+00  9.000E+00
#rwgt            2          11   3.7696481763638294E-003           1      321471           0
</event>
<event>
      5   9999  3.19816E-02  4.57574E+01 -1.00000E+00  1.41309E-01
      21    -1     0     0   512   501  0.000000000E+00  0.000000000E+00  4.970312005E+02  4.970312005E+02  0.000000000E+00  0.00000E+00  9.000E+00
      21    -1     0     0   501   502  0.000000000E+00  0.000000000E+00 -4.727454329E+02  4.727454329E+02  0.000000000E+00  0.00000E+00  9.000E+00
      25     1     1     2     0     0  5.822005441E+01 -2.880934067E+02  3.450579457E+02  4.701886554E+02  1.250000000E+02  0.00000E+00  9.000E+00
      25     1     1     2     0     0 -9.424396417E+01  2.598795925E+02 -3.347179008E+02  4.517525877E+02  1.250000000E+02  0.00000E+00  9.000E+00
      21     1     1     2   512   502  3.602390976E+01  2.821381422E+01  1.394572265E+01  4.783539033E+01  7.907449699E-07  0.00000E+00  9.000E+00
#rwgt            1           1   3.0024755763568136E-002           1      321491           0
</event>
<event>
      5   9999  3.19816E-02  1.55479E+01 -1.00000E+00  1.75928E-01
      21    -1     0     0   502   511  0.000000000E+00  0.000000000E+00  4.832694721E+02  4.832694721E+02  0.000000000E+00  0.00000E+00  9.000E+00
      21    -1     0     0   501   502  0.000000000E+00  0.000000000E+00 -3.524177841E+02  3.524177841E+02  0.000000000E+00  0.00000E+00  9.000E+00
      25     1     1     2     0     0 -1.915220639E+02 -2.794837448E+02 -3.375286502E+01  3.627066590E+02  1.250000000E+02  0.00000E+00  9.000E+00
      25     1     1     2     0     0  1.799189589E+02  2.898329081E+02  6.122596689E+01  3.684393646E+02  1.250000000E+02  0.00000E+00  9.000E+00
      21     1     1     2   501   511  1.160310504E+01 -1.034916332E+01  1.033785862E+02  1.045412326E+02  1.348699152E-06  0.00000E+00  9.000E+00
#rwgt            1           1   2.8211017110916767E-002           1      321665           0
</event>
<event>
      5   9999  3.19816E-02  1.24757E+02 -1.00000E+00  1.19656E-01
      21    -1     0     0   502   501  0.000000000E+00  0.000000000E+00  3.310933902E+02  3.310933902E+02  0.000000000E+00  0.00000E+00  9.000E+00
      21    -1     0     0   512   502  0.000000000E+00  0.000000000E+00 -2.723520799E+02  2.723520799E+02  0.000000000E+00  0.00000E+00  9.000E+00
      25     1     1     2     0     0 -4.757074090E-02 -3.342361473E+01  2.247523458E+02  2.593371497E+02  1.250000000E+02  0.00000E+00  9.000E+00
      25     1     1     2     0     0 -1.224011648E+02  9.535837745E+00 -1.134470473E+02  2.087299928E+02  1.250000000E+02  0.00000E+00  9.000E+00
      21     1     1     2   512   501  1.224487355E+02  2.388777698E+01 -5.256398809E+01  1.353783276E+02  1.168007728E-06  0.00000E+00  9.000E+00
#rwgt            1           1   2.5403425576366327E-002           1      321797           0
</event>
<event>
      5   9999  3.19816E-02  3.14209E+02 -1.00000E+00  1.04943E-01
      21    -1     0     0   511   501  0.000000000E+00  0.000000000E+00  7.135308823E+02  7.135308823E+02  0.000000000E+00  0.00000E+00  9.000E+00
      21    -1     0     0   501   502  0.000000000E+00  0.000000000E+00 -7.517354415E+02  7.517354415E+02  0.000000000E+00  0.00000E+00  9.000E+00
      25     1     1     2     0     0  2.854914005E+02  2.690151472E+02  1.687315006E+02  4.449379827E+02  1.250000000E+02  0.00000E+00  9.000E+00
      25     1     1     2     0     0 -3.852211509E+02  2.894659075E+01 -4.624068182E+02  6.153684309E+02  1.250000000E+02  0.00000E+00  9.000E+00
      21     1     1     2   511   502  9.972975047E+01 -2.979617380E+02  2.554707584E+02  4.049599101E+02  9.725607898E-06  0.00000E+00  9.000E+00
#rwgt            1           1   2.6969113425105089E-002           1      321882           0
</event>
<event>
      5   9999  3.19816E-02  8.04104E+01 -1.00000E+00  1.28242E-01
      21    -1     0     0   512   501  0.000000000E+00  0.000000000E+00  1.255502977E+03  1.255502977E+03  0.000000000E+00  0.00000E+00  9.000E+00
      21    -1     0     0   501   502  0.000000000E+00  0.000000000E+00 -2.171640941E+02  2.171640941E+02  0.000000000E+00  0.00000E+00  9.000E+00
      25     1     1     2     0     0 -3.135883697E+02 -2.274323145E+02  1.128804771E+02  4.224099021E+02  1.250000000E+02  0.00000E+00  9.000E+00
      25     1     1     2     0     0  2.336279058E+02  2.359268753E+02  4.760430192E+02  5.937048467E+02  1.250000000E+02  0.00000E+00  9.000E+00
      21     1     1     2   512   502  7.996046384E+01 -8.494560732E+00  4.494153865E+02  4.565523222E+02  0.000000000E+00  0.00000E+00  9.000E+00
#rwgt            1           1   2.9669025277100646E-002           1      321937           0
</event>
<event>
      5   9999  3.19816E-02  2.55919E+01 -1.00000E+00  1.57993E-01
      21    -1     0     0   502   501  0.000000000E+00  0.000000000E+00  9.359308473E+01  9.359308473E+01  0.000000000E+00  0.00000E+00  9.000E+00
      21    -1     0     0   501   511  0.000000000E+00  0.000000000E+00 -5.280924986E+02  5.280924986E+02  0.000000000E+00  0.00000E+00  9.000E+00
      25     1     1     2     0     0  2.277545313E+01  9.644383661E+00 -3.771730058E+02  3.981158270E+02  1.250000000E+02  0.00000E+00  9.000E+00
      25     1     1     2     0     0  5.108575404E-01  9.714141898E-01  3.332869798E+01  1.293715839E+02  1.250000000E+02  0.00000E+00  9.000E+00
      21     1     1     2   502   511 -2.328631067E+01 -1.061579785E+01 -9.065510605E+01  9.419817239E+01  0.000000000E+00  0.00000E+00  9.000E+00
#rwgt            1           1   3.0647389769177909E-002           1      322020           0
</event>
<event>
      5   9999  3.19816E-02  1.64583E+02 -1.00000E+00  1.14819E-01
      21    -1     0     0   502   501  0.000000000E+00  0.000000000E+00  5.979400615E+02  5.979400615E+02  0.000000000E+00  0.00000E+00  9.000E+00
      21    -1     0     0   512   502  0.000000000E+00  0.000000000E+00 -2.480138741E+02  2.480138741E+02  0.000000000E+00  0.00000E+00  9.000E+00
      25     1     1     2     0     0  1.114916187E+02 -9.002457202E+01 -1.217478572E+01  1.905466610E+02  1.250000000E+02  0.00000E+00  9.000E+00
      25     1     1     2     0     0 -1.421264630E+02  2.517308401E+02  3.757178128E+02  4.902624014E+02  1.250000000E+02  0.00000E+00  9.000E+00
      21     1     1     2   512   501  3.063484428E+01 -1.617062681E+02 -1.361683963E+01  1.651448732E+02  2.057871402E-06  0.00000E+00  9.000E+00
#rwgt            2          11   3.7116503397192691E-003           1      322178           0
</event>
<event>
      5   9999  3.19816E-02  4.35321E+02 -1.00000E+00  1.00592E-01
      21    -1     0     0   502   501  0.000000000E+00  0.000000000E+00  3.689700951E+02  3.689700951E+02  0.000000000E+00  0.00000E+00  9.000E+00
       1    -1     0     0   501     0  0.000000000E+00  0.000000000E+00 -8.908274709E+02  8.908274709E+02  0.000000000E+00  0.00000E+00  9.000E+00
      25     1     1     2     0     0 -1.202270392E+02  4.894730940E+01 -3.393163393E+02  3.842017154E+02  1.250000000E+02  0.00000E+00  9.000E+00
      25     1     1     2     0     0 -2.216235467E+02 -3.184708321E+02 -1.125800813E+01  4.077896641E+02  1.250000000E+02  0.00000E+00  9.000E+00
       1     1     1     2   502     0  3.418505859E+02  2.695235227E+02 -1.712830284E+02  4.678061865E+02  8.092194914E-06  0.00000E+00  9.000E+00
#rwgt            2          12   2.3645846353159309E-004           1      322348           0
</event>
<event>
      5   9999  3.19816E-02  8.23787E+01 -1.00000E+00  1.27737E-01
       2    -1     0     0   502     0  0.000000000E+00  0.000000000E+00  2.081304149E+03  2.081304149E+03  0.000000000E+00  0.00000E+00  9.000E+00
      21    -1     0     0   501   502  0.000000000E+00  0.000000000E+00 -8.816903359E+02  8.816903359E+02  0.000000000E+00  0.00000E+00  9.000E+00
      25     1     1     2     0     0 -3.443897618E+02 -3.049473243E+02  2.404416575E+02  5.338861014E+02  1.250000000E+02  0.00000E+00  9.000E+00
      25     1     1     2     0     0  2.620122994E+02  3.044936791E+02 -6.736406331E+02  7.942188290E+02  1.250000000E+02  0.00000E+00  9.000E+00
       2     1     1     2   501     0  8.237746235E+01  4.536452443E-01  1.632812789E+03  1.634889554E+03  2.157918644E-05  0.00000E+00  9.000E+00
#rwgt            2          18   4.8859004776800538E-003           1      322367           0
</event>
<event>
      5   9999  3.19816E-02  1.03245E+02 -1.00000E+00  1.23207E-01
      21    -1     0     0   502   501  0.000000000E+00  0.000000000E+00  1.961889933E+03  1.961889933E+03  0.000000000E+00  0.00000E+00  9.000E+00
      21    -1     0     0   511   502  0.000000000E+00  0.000000000E+00 -3.926021874E+02  3.926021874E+02  0.000000000E+00  0.00000E+00  9.000E+00
      25     1     1     2     0     0  5.656552686E+02 -2.493258305E+02  1.405764791E+03  1.540755951E+03  1.250000000E+02  0.00000E+00  9.000E+00
      25     1     1     2     0     0 -5.706044274E+02  3.524520142E+02  1.879410946E+02  7.076430526E+02  1.250000000E+02  0.00000E+00  9.000E+00
      21     1     1     2   511   501  4.949158766E+00 -1.031261838E+02 -2.441813975E+01  1.060931171E+02  2.078484985E-06  0.00000E+00  9.000E+00
#rwgt            1           1   3.4729140097979436E-002           1      322386           0
</event>
<event>
      5   9999  3.19816E-02  8.15180E+00 -1.00000E+00  2.06609E-01
      21    -1     0     0   502   501  0.000000000E+00  0.000000000E+00  1.360197619E+03  1.360197619E+03  0.000000000E+00  0.00000E+00  9.000E+00
      21    -1     0     0   512   502  0.000000000E+00  0.000000000E+00 -2.461730097E+02  2.461730097E+02  0.000000000E+00  0.00000E+00  9.000E+00
      25     1     1     2     0     0 -3.693267923E+02 -2.263521358E+02  7.111681294E+01  4.564210446E+02  1.250000000E+02  0.00000E+00  9.000E+00
      25     1     1     2     0     0  3.680167310E+02  2.343979774E+02  1.046766137E+03  1.140930792E+03  1.250000000E+02  0.00000E+00  9.000E+00
      21     1     1     2   512   501  1.310061291E+00 -8.045841662E+00 -3.858340398E+00  9.018792561E+00  1.576990671E-07  0.00000E+00  9.000E+00
#rwgt            1           1   2.9487893725112031E-002           1      322453           0
</event>
<event>
      5   9999  3.19816E-02  8.78242E+01 -1.00000E+00  1.26418E-01
      21    -1     0     0   511   501  0.000000000E+00  0.000000000E+00  3.149752104E+02  3.149752104E+02  0.000000000E+00  0.00000E+00  9.000E+00
      21    -1     0     0   501   502  0.000000000E+00  0.000000000E+00 -6.252859743E+02  6.252859743E+02  0.000000000E+00  0.00000E+00  9.000E+00
      25     1     1     2     0     0 -6.122917162E+00 -1.762335102E+02 -2.325497298E+01  2.173971803E+02  1.250000000E+02  0.00000E+00  9.000E+00
      25     1     1     2     0     0  9.353332216E+01  1.677185233E+02 -4.683614936E+02  5.214072057E+02  1.250000000E+02  0.00000E+00  9.000E+00
      21     1     1     2   511   502 -8.741040500E+01  8.514986888E+00  1.813057027E+02  2.014567987E+02  2.697398305E-06  0.00000E+00  9.000E+00
#rwgt            1           1   3.0141626798516688E-002           1      322791           0
</event>
<event>
      5   9999  3.19816E-02  2.02031E+02 -1.00000E+00  1.11489E-01
      21    -1     0     0   502   501  0.000000000E+00  0.000000000E+00  1.315017338E+03  1.315017338E+03  0.000000000E+00  0.00000E+00  9.000E+00
      21    -1     0     0   501   512  0.000000000E+00  0.000000000E+00 -4.360371423E+02  4.360371423E+02  0.000000000E+00  0.00000E+00  9.000E+00
      25     1     1     2     0     0 -2.878547601E+02 -4.271623431E+02  4.337014742E+02  6.848722501E+02  1.250000000E+02  0.00000E+00  9.000E+00
      25     1     1     2     0     0  4.868764007E+02  3.924203608E+02  5.468396033E+02  8.400600698E+02  1.250000000E+02  0.00000E+00  9.000E+00
      21     1     1     2   502   512 -1.990216406E+02  3.474198222E+01 -1.015608817E+02  2.261221605E+02  5.046370146E-06  0.00000E+00  9.000E+00
#rwgt            1           1   2.9733020460673571E-002           1      322875           0
</event>
<event>
      5   9999  3.19816E-02  7.46846E+01 -1.00000E+00  1.29812E-01
      21    -1     0     0   502   501  0.000000000E+00  0.000000000E+00  8.117944228E+01  8.117944228E+01  0.000000000E+00  0.00000E+00  9.000E+00
       1    -1     0     0   501     0  0.000000000E+00  0.000000000E+00 -8.201618849E+02  8.201618849E+02  0.000000000E+00  0.00000E+00  9.000E+00
      25     1     1     2     0     0  7.374743725E+01  7.010356515E+01 -6.819671630E+01  1.750113895E+02  1.250000000E+02  0.00000E+00  9.000E+00
      25     1     1     2     0     0 -1.321966778E+02 -2.361196646E+01 -5.824133846E+02  6.106257750E+02  1.250000000E+02  0.00000E+00  9.000E+00
       1     1     1     2   502     0  5.844924054E+01 -4.649159868E+01 -8.837234174E+01  1.157041626E+02  1.651812370E-06  0.00000E+00  9.000E+00
#rwgt            1           1   2.8084254565417705E-002           1      322920           0
</event>
<event>
      5   9999  3.19816E-02  3.74493E+01 -1.00000E+00  1.46638E-01
      21    -1     0     0   502   511  0.000000000E+00  0.000000000E+00  5.041382065E+02  5.041382065E+02  0.000000000E+00  0.00000E+00  9.000E+00
      21    -1     0     0   501   502  0.000000000E+00  0.000000000E+00 -1.625485998E+02  1.625485998E+02  0.000000000E+00  0.00000E+00  9.000E+00
      25     1     1     2     0     0 -1.809786059E+02  1.231561151E+02  7.181130509E+01  2.621117091E+02  1.250000000E+02  0.00000E+00  9.000E+00
      25     1     1     2     0     0  1.444079031E+02 -1.150919392E+02  1.262668127E+02  2.562578875E+02  1.250000000E+02  0.00000E+00  9.000E+00
      21     1     1     2   501   511  3.657070286E+01 -8.064175935E+00  1.435114889E+02  1.483172097E+02  1.907348633E-06  0.00000E+00  9.000E+00
#rwgt            1           1   2.6530245598583416E-002           1      322991           0
</event>
<event>
      5   9999  3.19816E-02  7.30141E+01 -1.00000E+00  1.30300E-01
      21    -1     0     0   502   501  0.000000000E+00  0.000000000E+00  4.668827036E+02  4.668827036E+02  0.000000000E+00  0.00000E+00  9.000E+00
       3    -1     0     0   501     0  0.000000000E+00  0.000000000E+00 -2.200759430E+03  2.200759430E+03  0.000000000E+00  0.00000E+00  9.000E+00
      25     1     1     2     0     0  1.562363640E+02  2.017442198E+02 -1.845196070E+02  3.387964242E+02  1.250000000E+02  0.00000E+00  9.000E+00
      25     1     1     2     0     0 -9.889247818E+01 -2.469407966E+02  3.335249535E+02  4.445485056E+02  1.250000000E+02  0.00000E+00  9.000E+00
       3     1     1     2   502     0 -5.734388582E+01  4.519657682E+01 -1.882882073E+03  1.884297203E+03  0.000000000E+00  0.00000E+00  9.000E+00
#rwgt            1           1   2.4779533095580661E-002           1      323081           0
</event>
<event>
      5   9999  3.19816E-02  2.94363E+02 -1.00000E+00  1.05860E-01
       2    -1     0     0   502     0  0.000000000E+00  0.000000000E+00  1.303575562E+03  1.303575562E+03  0.000000000E+00  0.00000E+00  9.000E+00
      21    -1     0     0   501   502  0.000000000E+00  0.000000000E+00 -1.340655006E+02  1.340655006E+02  0.000000000E+00  0.00000E+00  9.000E+00
      25     1     1     2     0     0 -1.015642816E+02  9.650170861E+01  3.286984700E+02  3.785440096E+02  1.250000000E+02  0.00000E+00  9.000E+00
      25     1     1     2     0     0 -1.590036594E+02 -2.334463350E+02  2.439458132E+02  3.935910502E+02  1.250000000E+02  0.00000E+00  9.000E+00
       2     1     1     2   501     0  2.605679410E+02  1.369446264E+02  5.968657779E+02  6.655060025E+02  0.000000000E+00  0.00000E+00  9.000E+00
#rwgt            2          18   1.1289032797256696E-003           1      323221           0
</event>
<event>
      5   9999  3.19816E-02  1.57398E+02 -1.00000E+00  1.15571E-01
      21    -1     0     0   502   501  0.000000000E+00  0.000000000E+00  1.084812578E+03  1.084812578E+03  0.000000000E+00  0.00000E+00  9.000E+00
      21    -1     0     0   501   511  0.000000000E+00  0.000000000E+00 -1.185134725E+02  1.185134725E+02  0.000000000E+00  0.00000E+00  9.000E+00
      25     1     1     2     0     0  5.013608909E+01 -7.234013296E+01  6.183277517E+02  6.369465682E+02  1.250000000E+02  0.00000E+00  9.000E+00
      25     1     1     2     0     0 -3.693988152E+01  2.291835305E+02  3.051204276E+02  4.032531721E+02  1.250000000E+02  0.00000E+00  9.000E+00
      21     1     1     2   502   511 -1.319620757E+01 -1.568433975E+02  4.285092627E+01  1.631263103E+02  4.768371582E-07  0.00000E+00  9.000E+00
#rwgt            1           1   2.9612612443580474E-002           1      323240           0
</event>
<event>
      5   9999  3.19816E-02  7.09985E+01 -1.00000E+00  1.30910E-01
      21    -1     0     0   502   501  0.000000000E+00  0.000000000E+00  3.243454360E+03  3.243454360E+03  0.000000000E+00  0.00000E+00  9.000E+00
      21    -1     0     0   501   512  0.000000000E+00  0.000000000E+00 -3.079656583E+01  3.079656583E+01  0.000000000E+00  0.00000E+00  9.000E+00
      25     1     1     2     0     0  4.722465886E+01 -9.025126245E+01  2.558367046E+03  2.563443466E+03  1.250000000E+02  0.00000E+00  9.000E+00
      25     1     1     2     0     0 -3.441247862E+01  1.600841954E+02  4.627304433E+02  5.065132096E+02  1.250000000E+02  0.00000E+00  9.000E+00
      21     1     1     2   502   512 -1.281218024E+01 -6.983293297E+01  1.915603048E+02  2.042942507E+02  3.814697266E-06  0.00000E+00  9.000E+00
#rwgt            1           1   2.9062461638237950E-002           1      323296           0
</event>
<event>
      5   9999  3.19816E-02  1.42447E+02 -1.00000E+00  1.17290E-01
      21    -1     0     0   502   501  0.000000000E+00  0.000000000E+00  1.821322544E+03  1.821322544E+03  0.000000000E+00  0.00000E+00  9.000E+00
      21    -1     0     0   511   502  0.000000000E+00  0.000000000E+00 -1.493652829E+02  1.493652829E+02  0.000000000E+00  0.00000E+00  9.000E+00
      25     1     1     2     0     0  3.133412085E+02  1.423580807E+02  8.834897745E+02  9.563617086E+02  1.250000000E+02  0.00000E+00  9.000E+00
      25     1     1     2     0     0 -2.890825182E+02 -1.991500312E+00  8.110889963E+02  8.700936893E+02  1.250000000E+02  0.00000E+00  9.000E+00
      21     1     1     2   511   501 -2.425869026E+01 -1.403665804E+02 -2.262150940E+01  1.442324292E+02  4.156969970E-06  0.00000E+00  9.000E+00
#rwgt            1           1   3.5733868111072008E-002           1      323329           0
</event>
<event>
      5   9999  3.19816E-02  1.24617E+02 -1.00000E+00  1.19676E-01
      21    -1     0     0   502   512  0.000000000E+00  0.000000000E+00  2.494273071E+03  2.494273071E+03  0.000000000E+00  0.00000E+00  9.000E+00
      21    -1     0     0   501   502  0.000000000E+00  0.000000000E+00 -1.458349504E+02  1.458349504E+02  0.000000000E+00  0.00000E+00  9.000E+00
      25     1     1     2     0     0 -1.540058855E+02  4.425299832E+02  5.918215418E+02  7.651328879E+02  1.250000000E+02  0.00000E+00  9.000E+00
      25     1     1     2     0     0  5.137265170E+01 -5.132109599E+02  1.400187070E+03  1.497388884E+03  1.250000000E+02  0.00000E+00  9.000E+00
      21     1     1     2   501   512  1.026332338E+02  7.068097671E+01  3.564295089E+02  3.775862497E+02  0.000000000E+00  0.00000E+00  9.000E+00
#rwgt            2          11   3.9321123814867187E-003           1      323411           0
</event>
<event>
      5   9999  3.19816E-02  2.18559E+01 -1.00000E+00  1.63251E-01
      21    -1     0     0   511   501  0.000000000E+00  0.000000000E+00  8.700108931E+02  8.700108931E+02  0.000000000E+00  0.00000E+00  9.000E+00
      21    -1     0     0   501   502  0.000000000E+00  0.000000000E+00 -1.194782379E+02  1.194782379E+02  0.000000000E+00  0.00000E+00  9.000E+00
      25     1     1     2     0     0 -1.800970944E+02  2.263792935E+02  2.858939467E+02  4.254913591E+02  1.250000000E+02  0.00000E+00  9.000E+00
      25     1     1     2     0     0  1.758494139E+02 -2.049401400E+02  4.266760368E+02  5.201931543E+02  1.250000000E+02  0.00000E+00  9.000E+00
      21     1     1     2   511   502  4.247680485E+00 -2.143915345E+01  3.796267159E+01  4.380461762E+01  4.768371582E-07  0.00000E+00  9.000E+00
#rwgt            1           1   2.8090122934116828E-002           1      323431           0
</event>
<event>
      5   9999  3.19816E-02  1.62241E+02 -1.00000E+00  1.15059E-01
      21    -1     0     0   502   501  0.000000000E+00  0.000000000E+00  2.215053887E+02  2.215053887E+02  0.000000000E+00  0.00000E+00  9.000E+00
      21    -1     0     0   512   502  0.000000000E+00  0.000000000E+00 -1.163379426E+03  1.163379426E+03  0.000000000E+00  0.00000E+00  9.000E+00
      25     1     1     2     0     0  1.340346041E+02  2.687243829E+02 -7.954505176E+02  8.593861734E+02  1.250000000E+02  0.00000E+00  9.000E+00
      25     1     1     2     0     0 -9.270245244E+01 -1.118360857E+02  1.108131026E+02  2.213720815E+02  1.250000000E+02  0.00000E+00  9.000E+00
      21     1     1     2   512   501 -4.133215164E+01 -1.568882971E+02 -2.572366222E+02  3.041265597E+02  3.814697266E-06  0.00000E+00  9.000E+00
#rwgt            1           1   2.6399319426809953E-002           1      323589           0
</event>
<event>
      5   9999  3.19816E-02  1.11302E+02 -1.00000E+00  1.21772E-01
       4    -1     0     0   502     0  0.000000000E+00  0.000000000E+00  2.424202635E+02  2.424202635E+02  0.000000000E+00  0.00000E+00  9.000E+00
      21    -1     0     0   501   502  0.000000000E+00  0.000000000E+00 -6.065878542E+02  6.065878542E+02  0.000000000E+00  0.00000E+00  9.000E+00
      25     1     1     2     0     0 -1.104521419E+02  2.071776360E+01 -5.165735073E+02  5.432329978E+02  1.250000000E+02  0.00000E+00  9.000E+00
      25     1     1     2     0     0  4.564242466E+01  6.976876187E+01  6.264708785E+01  1.627899526E+02  1.250000000E+02  0.00000E+00  9.000E+00
       4     1     1     2   501     0  6.480971727E+01 -9.048652547E+01  8.975882877E+01  1.429851674E+02  1.348699152E-06  0.00000E+00  9.000E+00
#rwgt            1           1   2.8830150731384247E-002           1      323669           0
</event>
<event>
      5   9999  3.19816E-02  1.33245E+01 -1.00000E+00  1.82371E-01
      21    -1     0     0   502   501  0.000000000E+00  0.000000000E+00  3.876770409E+02  3.876770409E+02  0.000000000E+00  0.00000E+00  9.000E+00
      21    -1     0     0   501   511  0.000000000E+00  0.000000000E+00 -6.274121003E+02  6.274121003E+02  0.000000000E+00  0.00000E+00  9.000E+00
      25     1     1     2     0     0 -3.274046873E+01  1.846321946E+02 -5.288236680E+02  5.748395058E+02  1.250000000E+02  0.00000E+00  9.000E+00
      25     1     1     2     0     0  2.342397699E+01 -1.751061758E+02  3.314471844E+02  3.958447821E+02  1.250000000E+02  0.00000E+00  9.000E+00
      21     1     1     2   502   511  9.316491738E+00 -9.526018795E+00 -4.235857575E+01  4.440485324E+01  8.259061849E-07  0.00000E+00  9.000E+00
#rwgt            1           1   3.0341474904008372E-002           1      323723           0
</event>
<event>
      5   9999  3.19816E-02  5.74497E+01 -1.00000E+00  1.35719E-01
      21    -1     0     0   502   501  0.000000000E+00  0.000000000E+00  4.059165822E+02  4.059165822E+02  0.000000000E+00  0.00000E+00  9.000E+00
      21    -1     0     0   512   502  0.000000000E+00  0.000000000E+00 -1.354802359E+02  1.354802359E+02  0.000000000E+00  0.00000E+00  9.000E+00
      25     1     1     2     0     0  1.556940863E+01  1.262105377E+02  2.757789724E+02  3.284060717E+02  1.250000000E+02  0.00000E+00  9.000E+00
      25     1     1     2     0     0 -4.337602394E+01 -7.593872802E+01  1.187379947E+01  1.530168519E+02  1.250000000E+02  0.00000E+00  9.000E+00
      21     1     1     2   512   501  2.780661531E+01 -5.027180971E+01 -1.721642557E+01  5.997389445E+01  1.390207266E-06  0.00000E+00  9.000E+00
#rwgt            1           1   3.2823002451677998E-002           1      323972           0
</event>
<event>
      5   9999  3.43809E-02  6.35292E+01 -1.00000E+00  1.33390E-01
      21    -1     0     0   502   501  0.000000000E+00  0.000000000E+00  7.262530551E+02  7.262530551E+02  0.000000000E+00  0.00000E+00  9.000E+00
      21    -1     0     0   511   502  0.000000000E+00  0.000000000E+00 -2.101004080E+03  2.101004080E+03  0.000000000E+00  0.00000E+00  9.000E+00
      25     1     1     2     0     0  1.146317473E+03 -3.537218297E+02 -6.177358496E+02  1.355133005E+03  1.250000000E+02  0.00000E+00  9.000E+00
      25     1     1     2     0     0 -1.125226146E+03  2.937959264E+02 -6.262635092E+02  1.326755784E+03  1.250000000E+02  0.00000E+00  9.000E+00
      21     1     1     2   511   501 -2.109132627E+01  5.992590332E+01 -1.307516656E+02  1.453683459E+02  1.907348633E-06  0.00000E+00  9.000E+00
#rwgt            1           1   8.1978338078321222E-002           1      324074           0
</event>
<event>
      5   9999  3.19816E-02  3.59985E+01 -1.00000E+00  1.47737E-01
      21    -1     0     0   502   501  0.000000000E+00  0.000000000E+00  2.090209019E+02  2.090209019E+02  0.000000000E+00  0.00000E+00  9.000E+00
      21    -1     0     0   501   512  0.000000000E+00  0.000000000E+00 -2.171880864E+02  2.171880864E+02  0.000000000E+00  0.00000E+00  9.000E+00
      25     1     1     2     0     0 -8.535805632E+01 -8.719219019E+01 -4.459643281E+01  1.802839916E+02  1.250000000E+02  0.00000E+00  9.000E+00
      25     1     1     2     0     0  1.211562727E+02  9.098443576E+01  5.691894664E+01  2.045037321E+02  1.250000000E+02  0.00000E+00  9.000E+00
      21     1     1     2   502   512 -3.579821639E+01 -3.792245567E+00 -2.048969834E+01  4.142126460E+01  5.331201500E-07  0.00000E+00  9.000E+00
#rwgt            1           1   3.3570655815234565E-002           1      324264           0
</event>
<event>
      5   9999  3.19816E-02  6.44559E+01 -1.00000E+00  1.33062E-01
      21    -1     0     0   511   501  0.000000000E+00  0.000000000E+00  3.962727991E+03  3.962727991E+03  0.000000000E+00  0.00000E+00  9.000E+00
      21    -1     0     0   501   502  0.000000000E+00  0.000000000E+00 -2.633682574E+01  2.633682574E+01  0.000000000E+00  0.00000E+00  9.000E+00
      25     1     1     2     0     0 -1.858312283E+02 -5.123879286E+01  5.900334210E+02  6.331848839E+02  1.250000000E+02  0.00000E+00  9.000E+00
      25     1     1     2     0     0  1.213831301E+02  5.023352466E+01  2.082639357E+03  2.090518826E+03  1.250000000E+02  0.00000E+00  9.000E+00
      21     1     1     2   511   502  6.444809820E+01  1.005268198E+00  1.263718388E+03  1.265361107E+03  0.000000000E+00  0.00000E+00  9.000E+00
#rwgt            1           1   4.6555185404675237E-002           1      324326           0
</event>
<event>
      5   9999  3.19816E-02  5.12796E+02 -1.00000E+00  9.85412E-02
      21    -1     0     0   502   501  0.000000000E+00  0.000000000E+00  2.133115896E+03  2.133115896E+03  0.000000000E+00  0.00000E+00  9.000E+00
      21    -1     0     0   501   512  0.000000000E+00  0.000000000E+00 -1.829923261E+02  1.829923261E+02  0.000000000E+00  0.00000E+00  9.000E+00
      25     1     1     2     0     0  2.686510054E+02  3.989545868E+02  8.548512586E+02  9.888042270E+02  1.250000000E+02  0.00000E+00  9.000E+00
      25     1     1     2     0     0 -1.396591035E+02  9.735283146E+01  4.927537450E+02  5.361095897E+02  1.250000000E+02  0.00000E+00  9.000E+00
      21     1     1     2   502   512 -1.289919019E+02 -4.963074182E+02  6.025185661E+02  7.911944051E+02  1.078959322E-05  0.00000E+00  9.000E+00
#rwgt            2          11   2.2229274978197108E-003           1      324705           0
</event>
<event>
      5   9999  3.19816E-02  1.23701E+02 -1.00000E+00  1.19811E-01
      21    -1     0     0   502   511  0.000000000E+00  0.000000000E+00  1.128149256E+03  1.128149256E+03  0.000000000E+00  0.00000E+00  9.000E+00
      21    -1     0     0   501   502  0.000000000E+00  0.000000000E+00 -2.458103661E+02  2.458103661E+02  0.000000000E+00  0.00000E+00  9.000E+00
      25     1     1     2     0     0 -1.041130497E+02  1.008863122E+02  1.919316651E+02  2.710725718E+02  1.250000000E+02  0.00000E+00  9.000E+00
      25     1     1     2     0     0  2.272237378E+02 -1.129551976E+02 -1.021400582E+02  3.007442355E+02  1.250000000E+02  0.00000E+00  9.000E+00
      21     1     1     2   501   511 -1.231106881E+02  1.206888548E+01  7.925472826E+02  8.021428143E+02  0.000000000E+00  0.00000E+00  9.000E+00
#rwgt            1           1   2.7757883416413880E-002           1      324725           0
</event>
<event>
      5   9999  3.19816E-02  7.95999E+01 -1.00000E+00  1.28455E-01
      21    -1     0     0   502   512  0.000000000E+00  0.000000000E+00  5.260900799E+02  5.260900799E+02  0.000000000E+00  0.00000E+00  9.000E+00
      21    -1     0     0   501   502  0.000000000E+00  0.000000000E+00 -1.502995045E+03  1.502995045E+03  0.000000000E+00  0.00000E+00  9.000E+00
      25     1     1     2     0     0  7.364199088E+02  2.937144142E+01 -6.327667810E+02  9.793854005E+02  1.250000000E+02  0.00000E+00  9.000E+00
      25     1     1     2     0     0 -7.428848341E+02 -1.087083840E+02 -4.745246634E+02  8.969359206E+02  1.250000000E+02  0.00000E+00  9.000E+00
      21     1     1     2   501   512  6.464925253E+00  7.933694258E+01  1.303864793E+02  1.527638037E+02  3.303624740E-06  0.00000E+00  9.000E+00
#rwgt            1           1   2.0997009856395240E-002           1      324783           0
</event>
<event>
      5   9999  3.19816E-02  1.14877E+03 -1.00000E+00  8.95682E-02
       1    -1     0     0   502     0  0.000000000E+00  0.000000000E+00  2.607609524E+03  2.607609524E+03  0.000000000E+00  0.00000E+00  9.000E+00
      21    -1     0     0   501   502  0.000000000E+00  0.000000000E+00 -1.055276577E+03  1.055276577E+03  0.000000000E+00  0.00000E+00  9.000E+00
      25     1     1     2     0     0 -5.598657822E+01  1.626409894E+03  6.004263009E+02  1.739103328E+03  1.250000000E+02  0.00000E+00  9.000E+00
      25     1     1     2     0     0  1.588241562E+02 -4.822496384E+02  2.877152515E+02  5.968206533E+02  1.250000000E+02  0.00000E+00  9.000E+00
       1     1     1     2   501     0 -1.028375780E+02 -1.144160256E+03  6.641913943E+02  1.326962120E+03  1.078959322E-05  0.00000E+00  9.000E+00
#rwgt            2          17   1.9734208886115279E-004           1      324923           0
</event>
<event>
      5   9999  3.19816E-02  7.19286E+01 -1.00000E+00  1.30626E-01
      21    -1     0     0   502   501  0.000000000E+00  0.000000000E+00  4.849408455E+01  4.849408455E+01  0.000000000E+00  0.00000E+00  9.000E+00
      21    -1     0     0   501   511  0.000000000E+00  0.000000000E+00 -1.469833807E+03  1.469833807E+03  0.000000000E+00  0.00000E+00  9.000E+00
      25     1     1     2     0     0 -7.802288988E+01 -6.506642747E+01 -4.003291872E+02  4.315201843E+02  1.250000000E+02  0.00000E+00  9.000E+00
      25     1     1     2     0     0  1.489850242E+02  7.681808485E+01 -3.209101688E+02  3.830220516E+02  1.250000000E+02  0.00000E+00  9.000E+00
      21     1     1     2   502   511 -7.096213432E+01 -1.175165739E+01 -7.001003663E+02  7.037856555E+02  7.629394531E-06  0.00000E+00  9.000E+00
#rwgt            1           1   3.4078679943184649E-002           1      324942           0
</event>
<event>
      5   9999  3.19816E-02  1.94519E+01 -1.00000E+00  1.67371E-01
      21    -1     0     0   502   512  0.000000000E+00  0.000000000E+00  1.005414479E+02  1.005414479E+02  0.000000000E+00  0.00000E+00  9.000E+00
      21    -1     0     0   501   502  0.000000000E+00  0.000000000E+00 -8.289497912E+02  8.289497912E+02  0.000000000E+00  0.00000E+00  9.000E+00
      25     1     1     2     0     0  2.496323260E+02  6.458584534E+01 -3.524621325E+02  4.542490336E+02  1.250000000E+02  0.00000E+00  9.000E+00
      25     1     1     2     0     0 -2.332069034E+02 -5.416561382E+01 -3.602381756E+02  4.502398434E+02  1.250000000E+02  0.00000E+00  9.000E+00
      21     1     1     2   501   512 -1.642542268E+01 -1.042023151E+01 -1.570803520E+01  2.500236199E+01  5.591411304E-07  0.00000E+00  9.000E+00
#rwgt            1           1   3.4852893700896719E-002           1      325055           0
</event>
<event>
      5   9999  3.19816E-02  9.76329E+01 -1.00000E+00  1.24298E-01
      21    -1     0     0   511   501  0.000000000E+00  0.000000000E+00  8.024322483E+02  8.024322483E+02  0.000000000E+00  0.00000E+00  9.000E+00
      21    -1     0     0   501   502  0.000000000E+00  0.000000000E+00 -1.981394300E+02  1.981394300E+02  0.000000000E+00  0.00000E+00  9.000E+00
      25     1     1     2     0     0  2.449592864E+02 -1.921217614E+02  1.544943239E+02  3.693363227E+02  1.250000000E+02  0.00000E+00  9.000E+00
      25     1     1     2     0     0 -1.500517671E+02  1.692145776E+02  1.156327319E+02  2.830989840E+02  1.250000000E+02  0.00000E+00  9.000E+00
      21     1     1     2   511   502 -9.490751928E+01  2.290718381E+01  3.341657626E+02  3.481363715E+02  5.394796609E-06  0.00000E+00  9.000E+00
#rwgt            1           1   2.8233049878605629E-002           1      325223           0
</event>
<event>
      5   9999  3.19816E-02  7.73037E+01 -1.00000E+00  1.29074E-01
      21    -1     0     0   512   501  0.000000000E+00  0.000000000E+00  3.898829854E+02  3.898829854E+02  0.000000000E+00  0.00000E+00  9.000E+00
      21    -1     0     0   501   502  0.000000000E+00  0.000000000E+00 -3.435905811E+02  3.435905811E+02  0.000000000E+00  0.00000E+00  9.000E+00
      25     1     1     2     0     0 -5.338335962E+01 -3.165019827E+02 -6.012133466E+01  3.496610688E+02  1.250000000E+02  0.00000E+00  9.000E+00
      25     1     1     2     0     0  8.330189300E+01  2.452226056E+02  6.039044555E+01  2.938457718E+02  1.250000000E+02  0.00000E+00  9.000E+00
      21     1     1     2   512   502 -2.991853338E+01  7.127937706E+01  4.602329341E+01  8.996672590E+01  6.743495762E-07  0.00000E+00  9.000E+00
#rwgt            1           1   2.7141986037291198E-002           1      325299           0
</event>
<event>
      5   9999  3.19816E-02  1.07512E+02 -1.00000E+00  1.22429E-01
      21    -1     0     0   502   501  0.000000000E+00  0.000000000E+00  3.526275702E+02  3.526275702E+02  0.000000000E+00  0.00000E+00  9.000E+00
       2    -1     0     0   501     0  0.000000000E+00  0.000000000E+00 -2.622315540E+03  2.622315540E+03  0.000000000E+00  0.00000E+00  9.000E+00
      25     1     1     2     0     0  9.904577872E+01  1.909098791E+02  2.874190809E+02  3.801202130E+02  1.250000000E+02  0.00000E+00  9.000E+00
      25     1     1     2     0     0  7.501943849E-01 -1.509148722E+02 -5.333224802E+02  5.681845909E+02  1.250000000E+02  0.00000E+00  9.000E+00
       2     1     1     2   502     0 -9.979597311E+01 -3.999500689E+01 -2.023784571E+03  2.026638306E+03  0.000000000E+00  0.00000E+00  9.000E+00
#rwgt            2          13   4.6938216880666470E-003           1      325681           0
</event>
<event>
      5   9999  3.19816E-02  1.54197E+01 -1.00000E+00  1.76262E-01
      21    -1     0     0   502   501  0.000000000E+00  0.000000000E+00  1.115421597E+03  1.115421597E+03  0.000000000E+00  0.00000E+00  9.000E+00
      21    -1     0     0   501   511  0.000000000E+00  0.000000000E+00 -6.303071678E+01  6.303071678E+01  0.000000000E+00  0.00000E+00  9.000E+00
      25     1     1     2     0     0  1.327841288E+02 -1.503287110E+02  2.930948586E+02  3.765102155E+02  1.250000000E+02  0.00000E+00  9.000E+00
      25     1     1     2     0     0 -1.419467427E+02  1.379265525E+02  7.450127496E+02  7.809235614E+02  1.250000000E+02  0.00000E+00  9.000E+00
      21     1     1     2   502   511  9.162613936E+00  1.240215850E+01  1.428327153E+01  2.101853647E+01  3.371747881E-07  0.00000E+00  9.000E+00
#rwgt            1           1   3.4479511855849639E-002           1      325715           0
</event>
<event>
      5   9999  3.19816E-02  1.96394E+02 -1.00000E+00  1.11937E-01
      21    -1     0     0   502   501  0.000000000E+00  0.000000000E+00  6.619551039E+02  6.619551039E+02  0.000000000E+00  0.00000E+00  9.000E+00
       2    -1     0     0   501     0  0.000000000E+00  0.000000000E+00 -4.913984322E+02  4.913984322E+02  0.000000000E+00  0.00000E+00  9.000E+00
      25     1     1     2     0     0 -1.389947227E+02 -1.527343195E+01  1.401341250E+02  2.341268538E+02  1.250000000E+02  0.00000E+00  9.000E+00
      25     1     1     2     0     0  3.308182448E+02 -2.684761615E+01  3.790416927E+02  5.190945101E+02  1.250000000E+02  0.00000E+00  9.000E+00
       2     1     1     2   502     0 -1.918235222E+02  4.212104810E+01 -3.486191459E+02  4.001321723E+02  3.814697266E-06  0.00000E+00  9.000E+00
#rwgt            1           1   3.2550081531438242E-002           1      325872           0
</event>
<event>
      5   9999  3.19816E-02  8.57264E+02 -1.00000E+00  9.26261E-02
       2    -1     0     0   502     0  0.000000000E+00  0.000000000E+00  3.368038686E+03  3.368038686E+03  0.000000000E+00  0.00000E+00  9.000E+00
      21    -1     0     0   501   502  0.000000000E+00  0.000000000E+00 -2.519317103E+03  2.519317103E+03  0.000000000E+00  0.00000E+00  9.000E+00
      25     1     1     2     0     0  2.310544222E+02 -8.420129293E+02  3.039345817E+03  3.164746422E+03  1.250000000E+02  0.00000E+00  9.000E+00
      25     1     1     2     0     0 -6.328488261E+02  8.473938657E+01 -1.451727655E+03  1.590854042E+03  1.250000000E+02  0.00000E+00  9.000E+00
       2     1     1     2   501     0  4.017944038E+02  7.572735427E+02 -7.388965789E+02  1.131755325E+03  1.078959322E-05  0.00000E+00  9.000E+00
#rwgt            2          18   1.6233124315672532E-004           1      325931           0
</event>
<event>
      5   9999  3.19816E-02  6.59500E+01 -1.00000E+00  1.32545E-01
      21    -1     0     0   511   501  0.000000000E+00  0.000000000E+00  1.317434916E+03  1.317434916E+03  0.000000000E+00  0.00000E+00  9.000E+00
      21    -1     0     0   501   502  0.000000000E+00  0.000000000E+00 -2.972755132E+02  2.972755132E+02  0.000000000E+00  0.00000E+00  9.000E+00
      25     1     1     2     0     0 -5.675273315E+02 -1.708867604E+02  3.135555679E+02  6.820789185E+02  1.250000000E+02  0.00000E+00  9.000E+00
      25     1     1     2     0     0  5.075029911E+02  1.435650227E+02  6.434183830E+02  8.412980550E+02  1.250000000E+02  0.00000E+00  9.000E+00
      21     1     1     2   511   502  6.002434043E+01  2.732173768E+01  6.318545183E+01  9.133345563E+01  0.000000000E+00  0.00000E+00  9.000E+00
#rwgt            1           1   2.8768581652721691E-002           1      325950           0
</event>
<event>
      5   9999  3.19816E-02  1.56104E+02 -1.00000E+00  1.15711E-01
      21    -1     0     0   502   501  0.000000000E+00  0.000000000E+00  1.198948580E+03  1.198948580E+03  0.000000000E+00  0.00000E+00  9.000E+00
      21    -1     0     0   512   502  0.000000000E+00  0.000000000E+00 -1.043835783E+02  1.043835783E+02  0.000000000E+00  0.00000E+00  9.000E+00
      25     1     1     2     0     0 -1.035493599E+02 -5.660735512E+01  6.010879975E+02  6.251868867E+02  1.250000000E+02  0.00000E+00  9.000E+00
      25     1     1     2     0     0  2.338399466E+02  1.425886784E+02  3.817426543E+02  4.861739462E+02  1.250000000E+02  0.00000E+00  9.000E+00
      21     1     1     2   512   501 -1.302905866E+02 -8.598132331E+01  1.117343504E+02  1.919713259E+02  2.336015456E-06  0.00000E+00  9.000E+00
#rwgt            1           1   2.8098442863384997E-002           1      326085           0
</event>
<event>
      5   9999  3.19816E-02  1.35788E+02 -1.00000E+00  1.18133E-01
      21    -1     0     0   502   511  0.000000000E+00  0.000000000E+00  2.664294686E+02  2.664294686E+02  0.000000000E+00  0.00000E+00  9.000E+00
      21    -1     0     0   501   502  0.000000000E+00  0.000000000E+00 -1.679514100E+03  1.679514100E+03  0.000000000E+00  0.00000E+00  9.000E+00
      25     1     1     2     0     0  4.319752360E+02  2.747575940E+02 -4.902647449E+02  7.197769516E+02  1.250000000E+02  0.00000E+00  9.000E+00
      25     1     1     2     0     0 -5.671900815E+02 -2.622973923E+02 -8.744276498E+02  1.082013505E+03  1.250000000E+02  0.00000E+00  9.000E+00
      21     1     1     2   501   511  1.352148455E+02 -1.246020169E+01 -4.839223646E+01  1.441531117E+02  6.743495762E-07  0.00000E+00  9.000E+00
#rwgt            1           1   3.0178458571417117E-002           1      326127           0
</event>
<event>
      5   9999  3.19816E-02  5.37918E+00 -1.00000E+00  2.33100E-01
      21    -1     0     0   502   501  0.000000000E+00  0.000000000E+00  9.382043997E+01  9.382043997E+01  0.000000000E+00  0.00000E+00  9.000E+00
      21    -1     0     0   501   512  0.000000000E+00  0.000000000E+00 -9.487168735E+02  9.487168735E+02  0.000000000E+00  0.00000E+00  9.000E+00
      25     1     1     2     0     0 -1.492004973E+02 -1.563454353E+02 -1.472864872E+02  2.898671987E+02  1.250000000E+02  0.00000E+00  9.000E+00
      25     1     1     2     0     0  1.507843141E+02  1.512047075E+02 -6.617570632E+02  7.065027839E+02  1.250000000E+02  0.00000E+00  9.000E+00
      21     1     1     2   502   512 -1.583816814E+00  5.140727861E+00 -4.585288302E+01  4.616733087E+01  6.743495762E-07  0.00000E+00  9.000E+00
#rwgt            1           1   2.7574093265189722E-002           1      326193           0
</event>
<event>
      5   9999  3.19816E-02  2.99321E+01 -1.00000E+00  1.53108E-01
      21    -1     0     0   502   501  0.000000000E+00  0.000000000E+00  9.218325791E+02  9.218325791E+02  0.000000000E+00  0.00000E+00  9.000E+00
      21    -1     0     0   501   511  0.000000000E+00  0.000000000E+00 -6.084031841E+02  6.084031841E+02  0.000000000E+00  0.00000E+00  9.000E+00
      25     1     1     2     0     0  6.568302960E+02  2.647309515E+02  8.371619338E+01  7.239764606E+02  1.250000000E+02  0.00000E+00  9.000E+00
      25     1     1     2     0     0 -6.720173215E+02 -2.905240476E+02  2.242017662E+02  7.758240358E+02  1.250000000E+02  0.00000E+00  9.000E+00
      21     1     1     2   502   511  1.518702545E+01  2.579309610E+01  5.511435381E+00  3.043526685E+01  3.862822472E-07  0.00000E+00  9.000E+00
#rwgt            1           1   3.3629582587745822E-002           1      326462           0
</event>
<event>
      5   9999  3.19816E-02  1.50714E+02 -1.00000E+00  1.16312E-01
      21    -1     0     0   512   501  0.000000000E+00  0.000000000E+00  1.396612819E+03  1.396612819E+03  0.000000000E+00  0.00000E+00  9.000E+00
      21    -1     0     0   501   502  0.000000000E+00  0.000000000E+00 -1.744438506E+03  1.744438506E+03  0.000000000E+00  0.00000E+00  9.000E+00
      25     1     1     2     0     0 -6.192703980E+02  8.923345854E+01 -1.599516288E+03  1.722073109E+03  1.250000000E+02  0.00000E+00  9.000E+00
      25     1     1     2     0     0  4.885827096E+02 -1.416408549E+01  1.069520738E+03  1.182545261E+03  1.250000000E+02  0.00000E+00  9.000E+00
      21     1     1     2   512   502  1.306876884E+02 -7.506937306E+01  1.821698640E+02  2.364329546E+02  2.697398305E-06  0.00000E+00  9.000E+00
#rwgt            1           1   2.7242343388908824E-002           1      326663           0
</event>
<event>
      5   9999  3.19816E-02  1.49946E+01 -1.00000E+00  1.77398E-01
      21    -1     0     0   502   501  0.000000000E+00  0.000000000E+00  2.344309715E+02  2.344309715E+02  0.000000000E+00  0.00000E+00  9.000E+00
      21    -1     0     0   501   511  0.000000000E+00  0.000000000E+00 -1.780854097E+02  1.780854097E+02  0.000000000E+00  0.00000E+00  9.000E+00
      25     1     1     2     0     0 -1.569440862E+01 -9.803166177E+01 -9.277224516E+01  1.846299289E+02  1.250000000E+02  0.00000E+00  9.000E+00
      25     1     1     2     0     0  3.907937070E+00  8.876257118E+01  1.475423835E+02  2.128093535E+02  1.250000000E+02  0.00000E+00  9.000E+00
      21     1     1     2   502   511  1.178647155E+01  9.269090585E+00  1.575423510E+00  1.507709890E+01  1.812804499E-07  0.00000E+00  9.000E+00
#rwgt            1           1   2.5181483548441418E-002           1      326734           0
</event>
<event>
      5   9999  3.19816E-02  4.91752E+01 -1.00000E+00  1.39489E-01
      21    -1     0     0   502   501  0.000000000E+00  0.000000000E+00  6.209592706E+02  6.209592706E+02  0.000000000E+00  0.00000E+00  9.000E+00
      21    -1     0     0   512   502  0.000000000E+00  0.000000000E+00 -6.658552937E+02  6.658552937E+02  0.000000000E+00  0.00000E+00  9.000E+00
      25     1     1     2     0     0  3.234839583E+02  2.619582824E+02 -1.582101588E+02  4.625142888E+02  1.250000000E+02  0.00000E+00  9.000E+00
      25     1     1     2     0     0 -3.610387111E+02 -2.302117317E+02  3.597198178E+02  5.730355483E+02  1.250000000E+02  0.00000E+00  9.000E+00
      21     1     1     2   512   501  3.755475283E+01 -3.174655071E+01 -2.464056821E+02  2.512647272E+02  2.697398305E-06  0.00000E+00  9.000E+00
#rwgt            1           1   3.2576062367863902E-002           1      326916           0
</event>
<event>
      5   9999  3.19816E-02  4.70506E+02 -1.00000E+00  9.96080E-02
       1    -1     0     0   502     0  0.000000000E+00  0.000000000E+00  1.939790078E+03  1.939790078E+03  0.000000000E+00  0.00000E+00  9.000E+00
      21    -1     0     0   501   502  0.000000000E+00  0.000000000E+00 -5.723648641E+02  5.723648641E+02  0.000000000E+00  0.00000E+00  9.000E+00
      25     1     1     2     0     0  7.386665109E+02 -1.098843658E+02  3.430522894E+02  8.312717133E+02  1.250000000E+02  0.00000E+00  9.000E+00
      25     1     1     2     0     0 -3.759378015E+02 -1.897890275E+02 -1.099597773E+02  4.528413168E+02  1.250000000E+02  0.00000E+00  9.000E+00
       1     1     1     2   501     0 -3.627287093E+02  2.996733933E+02  1.134332702E+03  1.228041912E+03  1.525878906E-05  0.00000E+00  9.000E+00
#rwgt            2          17   6.1063960809033010E-004           1      327105           0
</event>
<event>
      5   9999  3.19816E-02  4.06661E+01 -1.00000E+00  1.44397E-01
      21    -1     0     0   502   511  0.000000000E+00  0.000000000E+00  8.034101391E+02  8.034101391E+02  0.000000000E+00  0.00000E+00  9.000E+00
      21    -1     0     0   501   502  0.000000000E+00  0.000000000E+00 -4.763845297E+02  4.763845297E+02  0.000000000E+00  0.00000E+00  9.000E+00
      25     1     1     2     0     0  4.380975313E+01  5.206050112E+02  3.287314463E+02  6.297922165E+02  1.250000000E+02  0.00000E+00  9.000E+00
      25     1     1     2     0     0 -1.525219946E+01 -4.916534318E+02 -1.228788420E+02  5.221876449E+02  1.250000000E+02  0.00000E+00  9.000E+00
      21     1     1     2   501   511 -2.855755367E+01 -2.895157934E+01  1.211730052E+02  1.278148075E+02  1.907348633E-06  0.00000E+00  9.000E+00
#rwgt            1           1   3.2188393912987293E-002           1      327124           0
</event>
<event>
      5   9999  3.19816E-02  6.80461E+01 -1.00000E+00  1.31846E-01
      21    -1     0     0   502   512  0.000000000E+00  0.000000000E+00  1.335129756E+02  1.335129756E+02  0.000000000E+00  0.00000E+00  9.000E+00
      21    -1     0     0   501   502  0.000000000E+00  0.000000000E+00 -1.979767174E+03  1.979767174E+03  0.000000000E+00  0.00000E+00  9.000E+00
      25     1     1     2     0     0  3.854618827E+02 -3.348576964E+01 -1.323731274E+03  1.384771334E+03  1.250000000E+02  0.00000E+00  9.000E+00
      25     1     1     2     0     0 -3.820895877E+02 -3.447668941E+01 -5.228801959E+02  6.604618039E+02  1.250000000E+02  0.00000E+00  9.000E+00
      21     1     1     2   501   512 -3.372295009E+00  6.796245904E+01  3.572717806E-01  6.804701210E+01  1.911810851E-06  0.00000E+00  9.000E+00
#rwgt            1           1   3.1067880319084119E-002           1      327230           0
</event>
<event>
      5   9999  3.19816E-02  2.04600E+01 -1.00000E+00  1.65558E-01
      21    -1     0     0   502   501  0.000000000E+00  0.000000000E+00  2.269647524E+03  2.269647524E+03  0.000000000E+00  0.00000E+00  9.000E+00
      21    -1     0     0   501   511  0.000000000E+00  0.000000000E+00 -1.725034485E+02  1.725034485E+02  0.000000000E+00  0.00000E+00  9.000E+00
      25     1     1     2     0     0 -5.329903978E+02  1.061798797E+02  1.065812542E+03  1.202885824E+03  1.250000000E+02  0.00000E+00  9.000E+00
      25     1     1     2     0     0  5.242870141E+02 -1.246963807E+02  1.064857865E+03  1.199988889E+03  1.250000000E+02  0.00000E+00  9.000E+00
      21     1     1     2   502   511  8.703383654E+00  1.851650097E+01 -3.352633130E+01  3.927625982E+01  1.651812370E-06  0.00000E+00  9.000E+00
#rwgt            1           1   2.7880928689473380E-002           1      327390           0
</event>
<event>
      5   9999  3.19816E-02  2.86213E+01 -1.00000E+00  1.54473E-01
      21    -1     0     0   502   501  0.000000000E+00  0.000000000E+00  2.449395976E+02  2.449395976E+02  0.000000000E+00  0.00000E+00  9.000E+00
      21    -1     0     0   501   512  0.000000000E+00  0.000000000E+00 -4.353823602E+02  4.353823602E+02  0.000000000E+00  0.00000E+00  9.000E+00
      25     1     1     2     0     0  7.339630557E+01  2.692035093E+02 -1.205200483E+01  3.059865976E+02  1.250000000E+02  0.00000E+00  9.000E+00
      25     1     1     2     0     0 -9.791673727E+01 -2.544410943E+02 -1.687386191E+02  3.441303234E+02  1.250000000E+02  0.00000E+00  9.000E+00
      21     1     1     2   502   512  2.452043170E+01 -1.476241498E+01 -9.652138801E+00  3.020503684E+01  2.920019320E-07  0.00000E+00  9.000E+00
#rwgt            1           1   3.2109962218483577E-002           1      327619           0
</event>
<event>
      5   9999  3.19816E-02  1.32760E+02 -1.00000E+00  1.18535E-01
      21    -1     0     0   502   501  0.000000000E+00  0.000000000E+00  5.768732044E+02  5.768732044E+02  0.000000000E+00  0.00000E+00  9.000E+00
      21    -1     0     0   511   502  0.000000000E+00  0.000000000E+00 -1.528456061E+02  1.528456061E+02  0.000000000E+00  0.00000E+00  9.000E+00
      25     1     1     2     0     0 -1.294667530E+02 -9.204212371E+01  3.329119555E+02  3.894724160E+02  1.250000000E+02  0.00000E+00  9.000E+00
      25     1     1     2     0     0  8.958472717E+00  1.477465131E+02  3.900306660E+01  1.976247089E+02  1.250000000E+02  0.00000E+00  9.000E+00
      21     1     1     2   511   501  1.205082803E+02 -5.570438943E+01  5.211257610E+01  1.426216856E+02  1.168007728E-06  0.00000E+00  9.000E+00
#rwgt            1           1   2.5675721544226388E-002           1      327748           0
</event>
<event>
      5   9999  3.19816E-02  6.68232E+01 -1.00000E+00  1.32250E-01
      21    -1     0     0   502   501  0.000000000E+00  0.000000000E+00  3.250903318E+03  3.250903318E+03  0.000000000E+00  0.00000E+00  9.000E+00
      21    -1     0     0   501   512  0.000000000E+00  0.000000000E+00 -7.516912411E+02  7.516912411E+02  0.000000000E+00  0.00000E+00  9.000E+00
      25     1     1     2     0     0 -9.589858120E+02  8.962350192E+02  1.046042438E+03  1.683068858E+03  1.250000000E+02  0.00000E+00  9.000E+00
      25     1     1     2     0     0  9.111440876E+02 -9.428881241E+02  1.650242163E+03  2.111432158E+03  1.250000000E+02  0.00000E+00  9.000E+00
      21     1     1     2   502   512  4.784172439E+01  4.665310498E+01 -1.970725243E+02  2.080935430E+02  2.697398305E-06  0.00000E+00  9.000E+00
#rwgt            1           1   5.2171916372276445E-002           1      327819           0
</event>
<event>
      5   9999  3.19816E-02  1.21752E+02 -1.00000E+00  1.20102E-01
      21    -1     0     0   502   501  0.000000000E+00  0.000000000E+00  1.620594166E+02  1.620594166E+02  0.000000000E+00  0.00000E+00  9.000E+00
      21    -1     0     0   511   502  0.000000000E+00  0.000000000E+00 -6.700735581E+02  6.700735581E+02  0.000000000E+00  0.00000E+00  9.000E+00
      25     1     1     2     0     0  1.662428307E+02  2.574590764E+01 -1.137338140E-01  2.095818300E+02  1.250000000E+02  0.00000E+00  9.000E+00
      25     1     1     2     0     0 -1.228689858E+02 -1.395096820E+02 -2.401310994E+02  3.284017112E+02  1.250000000E+02  0.00000E+00  9.000E+00
      21     1     1     2   511   501 -4.337384497E+01  1.137637744E+02 -2.677693083E+02  2.941494335E+02  5.394796609E-06  0.00000E+00  9.000E+00
#rwgt            1           1   2.8186215568836902E-002           1      327965           0
</event>
<event>
      5   9999  3.19816E-02  5.68051E+01 -1.00000E+00  1.35986E-01
      21    -1     0     0   512   501  0.000000000E+00  0.000000000E+00  5.801944131E+02  5.801944131E+02  0.000000000E+00  0.00000E+00  9.000E+00
      21    -1     0     0   501   502  0.000000000E+00  0.000000000E+00 -1.711675657E+02  1.711675657E+02  0.000000000E+00  0.00000E+00  9.000E+00
      25     1     1     2     0     0  3.317106946E+01 -9.895549138E+00 -1.236738982E+02  1.792162795E+02  1.250000000E+02  0.00000E+00  9.000E+00
      25     1     1     2     0     0 -8.555150956E+01 -1.208426886E+01  3.872870478E+02  4.160304649E+02  1.250000000E+02  0.00000E+00  9.000E+00
      21     1     1     2   512   502  5.238044010E+01  2.197981799E+01  1.454136978E+02  1.561152344E+02  3.303624740E-06  0.00000E+00  9.000E+00
#rwgt            1           1   2.6992359027074350E-002           1      328011           0
</event>
<event>
      5   9999  3.19816E-02  2.39212E+02 -1.00000E+00  1.08889E-01
      21    -1     0     0   502   501  0.000000000E+00  0.000000000E+00  4.566885961E+02  4.566885961E+02  0.000000000E+00  0.00000E+00  9.000E+00
      21    -1     0     0   501   511  0.000000000E+00  0.000000000E+00 -6.900645969E+02  6.900645969E+02  0.000000000E+00  0.00000E+00  9.000E+00
      25     1     1     2     0     0 -6.978951924E+01  3.441893990E+02 -3.565972867E+02  5.158716354E+02  1.250000000E+02  0.00000E+00  9.000E+00
      25     1     1     2     0     0  2.365936489E+02 -1.727292748E+02  2.042043083E+02  3.783336577E+02  1.250000000E+02  0.00000E+00  9.000E+00
      21     1     1     2   502   511 -1.668041296E+02 -1.714601242E+02 -8.098302233E+01  2.525478999E+02  9.536743164E-07  0.00000E+00  9.000E+00
#rwgt            2          11   3.8825522231073881E-003           1      328290           0
</event>
<event>
      5   9999  3.19816E-02  2.64659E+02 -1.00000E+00  1.07391E-01
       2    -1     0     0   502     0  0.000000000E+00  0.000000000E+00  2.366100302E+03  2.366100302E+03  0.000000000E+00  0.00000E+00  9.000E+00
      21    -1     0     0   501   502  0.000000000E+00  0.000000000E+00 -1.419319438E+02  1.419319438E+02  0.000000000E+00  0.00000E+00  9.000E+00
      25     1     1     2     0     0 -1.617190164E+02  1.236539224E+02  1.816155882E+02  3.000875784E+02  1.250000000E+02  0.00000E+00  9.000E+00
      25     1     1     2     0     0  4.041212327E+02 -1.742065346E+01  5.603917072E+02  7.023398860E+02  1.250000000E+02  0.00000E+00  9.000E+00
       2     1     1     2   501     0 -2.424022163E+02 -1.062332689E+02  1.482161063E+03  1.505604781E+03  0.000000000E+00  0.00000E+00  9.000E+00
#rwgt            1           1   2.8232216108191661E-002           1      328310           0
</event>
<event>
      5   9999  3.19816E-02  1.64741E+02 -1.00000E+00  1.14803E-01
       2    -1     0     0   502     0  0.000000000E+00  0.000000000E+00  1.197658816E+03  1.197658816E+03  0.000000000E+00  0.00000E+00  9.000E+00
      21    -1     0     0   501   502  0.000000000E+00  0.000000000E+00 -3.201752718E+02  3.201752718E+02  0.000000000E+00  0.00000E+00  9.000E+00
      25     1     1     2     0     0  1.092381546E+02  1.341127444E+02  7.633914449E+02  7.926605205E+02  1.250000000E+02  0.00000E+00  9.000E+00
      25     1     1     2     0     0  3.248637012E+01 -2.180991006E+02 -2.308950794E+02  3.428704123E+02  1.250000000E+02  0.00000E+00  9.000E+00
       2     1     1     2   501     0 -1.417245247E+02  8.398635620E+01  3.449871789E+02  3.823031553E+02  5.394796609E-06  0.00000E+00  9.000E+00
#rwgt            1           1   2.8026285080449003E-002           1      328363           0
</event>
<event>
      5   9999  3.19816E-02  1.73074E+01 -1.00000E+00  1.71723E-01
      21    -1     0     0   502   511  0.000000000E+00  0.000000000E+00  5.680233738E+02  5.680233738E+02  0.000000000E+00  0.00000E+00  9.000E+00
      21    -1     0     0   501   502  0.000000000E+00  0.000000000E+00 -2.541933111E+02  2.541933111E+02  0.000000000E+00  0.00000E+00  9.000E+00
      25     1     1     2     0     0  7.776024656E+01 -1.774669614E+02 -6.966341954E+01  2.408716886E+02  1.250000000E+02  0.00000E+00  9.000E+00
      25     1     1     2     0     0 -6.205054209E+01  1.702040413E+02  2.396745752E+01  2.214026298E+02  1.250000000E+02  0.00000E+00  9.000E+00
      21     1     1     2   501   511 -1.570970447E+01  7.262920120E+00  3.595260247E+02  3.599423666E+02  3.814697266E-06  0.00000E+00  9.000E+00
#rwgt            1           1   2.7598066664213418E-002           1      328424           0
</event>
<event>
      5   9999  3.19816E-02  6.55107E+02 -1.00000E+00  9.56290E-02
       2    -1     0     0   502     0  0.000000000E+00  0.000000000E+00  3.535070763E+02  3.535070763E+02  0.000000000E+00  0.00000E+00  9.000E+00
      21    -1     0     0   501   502  0.000000000E+00  0.000000000E+00 -2.200953400E+03  2.200953400E+03  0.000000000E+00  0.00000E+00  9.000E+00
      25     1     1     2     0     0  2.067656520E+02 -3.564899626E+02 -3.986549581E+02  5.868457241E+02  1.250000000E+02  0.00000E+00  9.000E+00
      25     1     1     2     0     0  2.564429739E+02 -1.067629971E+02 -1.244732271E+03  1.281461963E+03  1.250000000E+02  0.00000E+00  9.000E+00
       2     1     1     2   501     0 -4.632086259E+02  4.632529597E+02 -2.040590943E+02  6.861527889E+02  8.092194914E-06  0.00000E+00  9.000E+00
#rwgt            2          18   3.0644309639238853E-004           1      328708           0
</event>
<event>
      5   9999  3.19816E-02  1.00747E+02 -1.00000E+00  1.23683E-01
       2    -1     0     0   502     0  0.000000000E+00  0.000000000E+00  3.946831811E+02  3.946831811E+02  0.000000000E+00  0.00000E+00  9.000E+00
      21    -1     0     0   501   502  0.000000000E+00  0.000000000E+00 -2.896577587E+02  2.896577587E+02  0.000000000E+00  0.00000E+00  9.000E+00
      25     1     1     2     0     0 -5.764146952E+01  1.304130555E+02  9.001231546E+01  2.098983587E+02  1.250000000E+02  0.00000E+00  9.000E+00
      25     1     1     2     0     0  2.600759092E+01 -2.260643300E+02 -1.358585150E+02  2.930256169E+02  1.250000000E+02  0.00000E+00  9.000E+00
       2     1     1     2   501     0  3.163387860E+01  9.565127448E+01  1.508716220E+02  1.814169642E+02  1.907348633E-06  0.00000E+00  9.000E+00
#rwgt            1           1   3.0560034431236529E-002           1      328727           0
</event>
<event>
      5   9999  3.19816E-02  3.67672E+01 -1.00000E+00  1.47147E-01
      21    -1     0     0   502   511  0.000000000E+00  0.000000000E+00  3.194269030E+02  3.194269030E+02  0.000000000E+00  0.00000E+00  9.000E+00
      21    -1     0     0   501   502  0.000000000E+00  0.000000000E+00 -3.160874788E+02  3.160874788E+02  0.000000000E+00  0.00000E+00  9.000E+00
      25     1     1     2     0     0  3.988772728E+01  1.891556774E+02 -2.845162772E+01  2.319599021E+02  1.250000000E+02  0.00000E+00  9.000E+00
      25     1     1     2     0     0 -6.827558011E+01 -2.125214568E+02 -9.395562703E+01  2.725428118E+02  1.250000000E+02  0.00000E+00  9.000E+00
      21     1     1     2   501   511  2.838785283E+01  2.336577940E+01  1.257466790E+02  1.310116679E+02  2.336015456E-06  0.00000E+00  9.000E+00
#rwgt            1           1   2.7326303711413202E-002           1      328812           0
</event>
<event>
      5   9999  3.19816E-02  3.42050E+01 -1.00000E+00  1.49186E-01
      21    -1     0     0   502   501  0.000000000E+00  0.000000000E+00  1.063493217E+03  1.063493217E+03  0.000000000E+00  0.00000E+00  9.000E+00
      21    -1     0     0   501   512  0.000000000E+00  0.000000000E+00 -7.686893207E+01  7.686893207E+01  0.000000000E+00  0.00000E+00  9.000E+00
      25     1     1     2     0     0  1.895377255E+02  5.412643437E+01  7.590208487E+02  7.940981483E+02  1.250000000E+02  0.00000E+00  9.000E+00
      25     1     1     2     0     0 -1.748666927E+02 -2.322751895E+01  2.248784443E+02  3.119506252E+02  1.250000000E+02  0.00000E+00  9.000E+00
      21     1     1     2   502   512 -1.467103285E+01 -3.089891542E+01  2.724992139E+00  3.431337583E+01  5.013526631E-07  0.00000E+00  9.000E+00
#rwgt            1           1   2.6716389988554898E-002           1      328918           0
</event>
<event>
      5   9999  3.19816E-02  7.25878E+01 -1.00000E+00  1.30427E-01
      21    -1     0     0   511   501  0.000000000E+00  0.000000000E+00  3.934986152E+02  3.934986152E+02  0.000000000E+00  0.00000E+00  9.000E+00
      21    -1     0     0   501   502  0.000000000E+00  0.000000000E+00 -9.698578059E+01  9.698578059E+01  0.000000000E+00  0.00000E+00  9.000E+00
      25     1     1     2     0     0 -5.290457645E+01 -9.773205410E+00  1.726734472E+02  2.198534265E+02  1.250000000E+02  0.00000E+00  9.000E+00
      25     1     1     2     0     0 -7.903437081E+00  4.941385937E+01  9.219945999E+00  1.349599986E+02  1.250000000E+02  0.00000E+00  9.000E+00
      21     1     1     2   511   502  6.080801353E+01 -3.964065396E+01  1.146194414E+02  1.356709708E+02  2.336015456E-06  0.00000E+00  9.000E+00
#rwgt            1           1   4.3407461004916402E-002           1      329046           0
</event>
<event>
      5   9999  3.19816E-02  1.11063E+02 -1.00000E+00  1.21812E-01
       2    -1     0     0   502     0  0.000000000E+00  0.000000000E+00  5.312234981E+02  5.312234981E+02  0.000000000E+00  0.00000E+00  9.000E+00
      21    -1     0     0   501   502  0.000000000E+00  0.000000000E+00 -1.968711816E+03  1.968711816E+03  0.000000000E+00  0.00000E+00  9.000E+00
      25     1     1     2     0     0  1.105621431E+02 -4.921718648E+02 -7.837330675E+02  9.403827163E+02  1.250000000E+02  0.00000E+00  9.000E+00
      25     1     1     2     0     0 -4.905657500E+00  4.579419873E+02 -1.047710010E+03  1.150241798E+03  1.250000000E+02  0.00000E+00  9.000E+00
       2     1     1     2   501     0 -1.056564856E+02  3.422987745E+01  3.939547600E+02  4.093107993E+02  1.206313194E-05  0.00000E+00  9.000E+00
#rwgt            1           1   2.8188586985269128E-002           1      329084           0
</event>
<event>
      5   9999  3.19816E-02  3.38878E+01 -1.00000E+00  1.49453E-01
      21    -1     0     0   502   501  0.000000000E+00  0.000000000E+00  2.765265956E+03  2.765265956E+03  0.000000000E+00  0.00000E+00  9.000E+00
      21    -1     0     0   501   511  0.000000000E+00  0.000000000E+00 -1.323693202E+02  1.323693202E+02  0.000000000E+00  0.00000E+00  9.000E+00
      25     1     1     2     0     0  1.155868396E+01 -3.228576995E+02  2.760048358E+02  4.429157557E+02  1.250000000E+02  0.00000E+00  9.000E+00
      25     1     1     2     0     0 -2.483271655E+01  3.540375698E+02  2.382634259E+03  2.412162988E+03  1.250000000E+02  0.00000E+00  9.000E+00
      21     1     1     2   502   511  1.327403259E+01 -3.117987032E+01 -2.574245952E+01  4.255653271E+01  0.000000000E+00  0.00000E+00  9.000E+00
#rwgt            1           1   7.2722338596794805E-002           1      329178           0
</event>
<event>
      5   9999  3.19816E-02  2.25958E+01 -1.00000E+00  1.62112E-01
      21    -1     0     0   502   501  0.000000000E+00  0.000000000E+00  1.165935654E+03  1.165935654E+03  0.000000000E+00  0.00000E+00  9.000E+00
      21    -1     0     0   501   512  0.000000000E+00  0.000000000E+00 -6.657823426E+01  6.657823426E+01  0.000000000E+00  0.00000E+00  9.000E+00
      25     1     1     2     0     0 -2.139136727E+02  5.483724693E+01  4.126412723E+02  4.844213069E+02  1.250000000E+02  0.00000E+00  9.000E+00
      25     1     1     2     0     0  2.361477659E+02 -5.081057898E+01  6.543156465E+02  7.085911710E+02  1.250000000E+02  0.00000E+00  9.000E+00
      21     1     1     2   502   512 -2.223409319E+01 -4.026667947E+00  3.240050073E+01  3.950141013E+01  0.000000000E+00  0.00000E+00  9.000E+00
#rwgt            1           1   2.6026998708711849E-002           1      329283           0
</event>
<event>
      5   9999  3.19816E-02  1.43530E+02 -1.00000E+00  1.17158E-01
      21    -1     0     0   502   511  0.000000000E+00  0.000000000E+00  2.365281112E+02  2.365281112E+02  0.000000000E+00  0.00000E+00  9.000E+00
      21    -1     0     0   501   502  0.000000000E+00  0.000000000E+00 -6.340403635E+02  6.340403635E+02  0.000000000E+00  0.00000E+00  9.000E+00
      25     1     1     2     0     0  1.189581823E+02 -2.317337311E+02 -3.532693565E+02  4.563724460E+02  1.250000000E+02  0.00000E+00  9.000E+00
      25     1     1     2     0     0 -2.696154620E+01  1.215633364E+02 -1.534605748E+02  2.338369469E+02  1.250000000E+02  0.00000E+00  9.000E+00
      21     1     1     2   501   511 -9.199663605E+01  1.101703947E+02  1.092176790E+02  1.803590816E+02  3.303624740E-06  0.00000E+00  9.000E+00
#rwgt            1           1   3.1030598302125453E-002           1      329425           0
</event>
<event>
      5   9999  3.19816E-02  1.78284E+02 -1.00000E+00  1.13496E-01
      21    -1     0     0   502   501  0.000000000E+00  0.000000000E+00  6.453829908E+02  6.453829908E+02  0.000000000E+00  0.00000E+00  9.000E+00
       4    -1     0     0   501     0  0.000000000E+00  0.000000000E+00 -7.802109217E+02  7.802109217E+02  0.000000000E+00  0.00000E+00  9.000E+00
      25     1     1     2     0     0 -2.073694060E+02 -3.807452968E+02 -4.477721180E+01  4.534303147E+02  1.250000000E+02  0.00000E+00  9.000E+00
      25     1     1     2     0     0  2.910910292E+01  3.778488656E+02  3.287278418E+02  5.170146023E+02  1.250000000E+02  0.00000E+00  9.000E+00
       4     1     1     2   502     0  1.782603031E+02  2.896431275E+00 -4.187785609E+02  4.551489954E+02  5.394796609E-06  0.00000E+00  9.000E+00
#rwgt            1           1   2.8869836408954713E-002           1      329498           0
</event>
<event>
      5   9999  3.19816E-02  9.04550E+01 -1.00000E+00  1.25820E-01
      21    -1     0     0   502   501  0.000000000E+00  0.000000000E+00  1.391390995E+03  1.391390995E+03  0.000000000E+00  0.00000E+00  9.000E+00
      21    -1     0     0   501   511  0.000000000E+00  0.000000000E+00 -2.602462973E+02  2.602462973E+02  0.000000000E+00  0.00000E+00  9.000E+00
      25     1     1     2     0     0  3.830218093E+01 -1.292304143E+01 -1.359716284E+02  1.890696850E+02  1.250000000E+02  0.00000E+00  9.000E+00
      25     1     1     2     0     0 -4.412594332E+01 -7.734427998E+01  1.338542492E+03  1.347312228E+03  1.250000000E+02  0.00000E+00  9.000E+00
      21     1     1     2   502   511  5.823762385E+00  9.026732141E+01 -7.142616528E+01  1.152553800E+02  1.348699152E-06  0.00000E+00  9.000E+00
#rwgt            1           1   2.8228874316968203E-002           1      329555           0
</event>
<event>
      5   9999  3.19816E-02  2.56264E+02 -1.00000E+00  1.07864E-01
      21    -1     0     0   502   512  0.000000000E+00  0.000000000E+00  4.900696953E+02  4.900696953E+02  0.000000000E+00  0.00000E+00  9.000E+00
      21    -1     0     0   501   502  0.000000000E+00  0.000000000E+00 -6.700970211E+02  6.700970211E+02  0.000000000E+00  0.00000E+00  9.000E+00
      25     1     1     2     0     0 -3.299223021E+02 -2.121267628E+02 -1.090564425E+02  4.258694595E+02  1.250000000E+02  0.00000E+00  9.000E+00
      25     1     1     2     0     0  8.738360639E+01  1.293837955E+02 -3.197433304E+02  3.771430213E+02  1.250000000E+02  0.00000E+00  9.000E+00
      21     1     1     2   501   512  2.425386957E+02  8.274296728E+01  2.487724471E+02  3.571542355E+02  8.529922400E-06  0.00000E+00  9.000E+00
#rwgt            2          11   3.7079564184520717E-003           1      329863           0
</event>
<event>
      5   9999  3.19816E-02  3.59065E+01 -1.00000E+00  1.47809E-01
      21    -1     0     0   502   501  0.000000000E+00  0.000000000E+00  1.096682678E+03  1.096682678E+03  0.000000000E+00  0.00000E+00  9.000E+00
      21    -1     0     0   511   502  0.000000000E+00  0.000000000E+00 -1.906458709E+02  1.906458709E+02  0.000000000E+00  0.00000E+00  9.000E+00
      25     1     1     2     0     0 -1.286304901E+02  7.959091504E+01  3.843834710E+02  4.315740602E+02  1.250000000E+02  0.00000E+00  9.000E+00
      25     1     1     2     0     0  9.385158584E+01 -8.851878083E+01  6.748795043E+02  6.983774338E+02  1.250000000E+02  0.00000E+00  9.000E+00
      21     1     1     2   511   501  3.477890423E+01  8.927865789E+00 -1.532261679E+02  1.573770552E+02  1.907348633E-06  0.00000E+00  9.000E+00
#rwgt            2          11   9.6463018909769289E-003           1      329883           0
</event>
<event>
      5   9999  3.19816E-02  1.68119E+02 -1.00000E+00  1.14464E-01
      21    -1     0     0   502   501  0.000000000E+00  0.000000000E+00  4.419773311E+02  4.419773311E+02  0.000000000E+00  0.00000E+00  9.000E+00
      21    -1     0     0   501   512  0.000000000E+00  0.000000000E+00 -6.613122173E+02  6.613122173E+02  0.000000000E+00  0.00000E+00  9.000E+00
      25     1     1     2     0     0  3.136097012E+02  1.804133356E+00  2.643211984E+02  4.287714956E+02  1.250000000E+02  0.00000E+00  9.000E+00
      25     1     1     2     0     0 -1.760549169E+02  9.485329061E+01 -4.425203603E+02  5.014396771E+02  1.250000000E+02  0.00000E+00  9.000E+00
      21     1     1     2   502   512 -1.375547842E+02 -9.665742397E+01 -4.113572421E+01  1.730783756E+02  2.236564522E-06  0.00000E+00  9.000E+00
#rwgt            1           1   3.0246953069330687E-002           1      329903           0
</event>
<event>
      5   9999  3.19816E-02  1.55835E+02 -1.00000E+00  1.15741E-01
      21    -1     0     0   511   501  0.000000000E+00  0.000000000E+00  1.448019614E+03  1.448019614E+03  0.000000000E+00  0.00000E+00  9.000E+00
      21    -1     0     0   501   502  0.000000000E+00  0.000000000E+00 -9.412139296E+02  9.412139296E+02  0.000000000E+00  0.00000E+00  9.000E+00
      25     1     1     2     0     0 -7.389859576E+02  5.625494534E+01  9.731949332E+02  1.229633377E+03  1.250000000E+02  0.00000E+00  9.000E+00
      25     1     1     2     0     0  8.446811449E+02  5.825762729E+01 -5.118819879E+02  9.972604260E+02  1.250000000E+02  0.00000E+00  9.000E+00
      21     1     1     2   511   502 -1.056951873E+02 -1.145125726E+02  4.549273856E+01  1.623397400E+02  1.168007728E-06  0.00000E+00  9.000E+00
#rwgt            1           1   3.7313748633849009E-002           1      329965           0
</event>
<event>
      5   9999  3.19816E-02  8.13075E+01 -1.00000E+00  1.28010E-01
      21    -1     0     0   502   501  0.000000000E+00  0.000000000E+00  1.535820788E+03  1.535820788E+03  0.000000000E+00  0.00000E+00  9.000E+00
      21    -1     0     0   512   502  0.000000000E+00  0.000000000E+00 -1.442491476E+03  1.442491476E+03  0.000000000E+00  0.00000E+00  9.000E+00
      25     1     1     2     0     0  7.643944073E+02  1.294841343E+00 -6.499181171E+02  1.011097941E+03  1.250000000E+02  0.00000E+00  9.000E+00
      25     1     1     2     0     0 -8.356612239E+02 -4.043502437E+01  1.219443513E+03  1.484126731E+03  1.250000000E+02  0.00000E+00  9.000E+00
      21     1     1     2   512   501  7.126681659E+01  3.914018302E+01 -4.761960832E+02  4.830875933E+02  5.394796609E-06  0.00000E+00  9.000E+00
#rwgt            1           1   6.1988021851696849E-002           1      330039           0
</event>
<event>
      5   9999  3.19816E-02  4.35414E+02 -1.00000E+00  1.00589E-01
      21    -1     0     0   511   501  0.000000000E+00  0.000000000E+00  1.675004870E+03  1.675004870E+03  0.000000000E+00  0.00000E+00  9.000E+00
      21    -1     0     0   501   502  0.000000000E+00  0.000000000E+00 -2.648807317E+02  2.648807317E+02  0.000000000E+00  0.00000E+00  9.000E+00
      25     1     1     2     0     0  1.436942126E+02 -4.093921733E+01 -4.619154616E+00  1.948599057E+02  1.250000000E+02  0.00000E+00  9.000E+00
      25     1     1     2     0     0 -1.106498440E+02  4.750970772E+02  4.078390223E+02  6.480110253E+02  1.250000000E+02  0.00000E+00  9.000E+00
      21     1     1     2   511   502 -3.304436860E+01 -4.341578599E+02  1.006904271E+03  1.097014671E+03  1.525878906E-05  0.00000E+00  9.000E+00
#rwgt            2          11   1.6660505542249069E-003           1      330207           0
</event>
<event>
      5   9999  3.19816E-02  6.63066E+01 -1.00000E+00  1.32424E-01
      21    -1     0     0   512   501  0.000000000E+00  0.000000000E+00  1.354360194E+02  1.354360194E+02  0.000000000E+00  0.00000E+00  9.000E+00
      21    -1     0     0   501   502  0.000000000E+00  0.000000000E+00 -1.291516510E+03  1.291516510E+03  0.000000000E+00  0.00000E+00  9.000E+00
      25     1     1     2     0     0  3.064193449E+02  1.084531007E+02 -2.606018516E+02  4.349634640E+02  1.250000000E+02  0.00000E+00  9.000E+00
      25     1     1     2     0     0 -2.868371749E+02 -4.510399641E+01 -8.611126292E+02  9.173057808E+02  1.250000000E+02  0.00000E+00  9.000E+00
      21     1     1     2   512   502 -1.958217004E+01 -6.334910429E+01 -3.436601027E+01  7.468328501E+01  1.066240300E-06  0.00000E+00  9.000E+00
#rwgt            1           1   2.5716589694564772E-002           1      330227           0
</event>
<event>
      5   9999  3.19816E-02  4.13142E+01 -1.00000E+00  1.43975E-01
      21    -1     0     0   502   511  0.000000000E+00  0.000000000E+00  1.437685170E+02  1.437685170E+02  0.000000000E+00  0.00000E+00  9.000E+00
      21    -1     0     0   501   502  0.000000000E+00  0.000000000E+00 -2.232426582E+03  2.232426582E+03  0.000000000E+00  0.00000E+00  9.000E+00
      25     1     1     2     0     0 -8.227352695E+01  1.333694788E+02 -2.083588800E+03  2.093208934E+03  1.250000000E+02  0.00000E+00  9.000E+00
      25     1     1     2     0     0  1.106485460E+02 -1.633981372E+02  2.034635675E+01  2.344803322E+02  1.250000000E+02  0.00000E+00  9.000E+00
      21     1     1     2   501   511 -2.837501904E+01  3.002865836E+01 -2.541562109E+01  4.850583289E+01  1.118282261E-06  0.00000E+00  9.000E+00
#rwgt            1           1   6.6076624752780116E-003           1      330298           0
</event>
<event>
      5   9999  3.19816E-02  1.82546E+02 -1.00000E+00  1.13111E-01
       2    -1     0     0   502     0  0.000000000E+00  0.000000000E+00  1.214942556E+03  1.214942556E+03  0.000000000E+00  0.00000E+00  9.000E+00
      21    -1     0     0   501   502  0.000000000E+00  0.000000000E+00 -1.735584249E+02  1.735584249E+02  0.000000000E+00  0.00000E+00  9.000E+00
      25     1     1     2     0     0 -2.074979383E+02 -1.118564124E+02  4.931056076E+02  5.606651333E+02  1.250000000E+02  0.00000E+00  9.000E+00
      25     1     1     2     0     0  3.516557225E+02  2.238458258E+02  4.192899273E+02  6.043159307E+02  1.250000000E+02  0.00000E+00  9.000E+00
       2     1     1     2   501     0 -1.441577842E+02 -1.119894134E+02  1.289885966E+02  2.235199175E+02  2.697398305E-06  0.00000E+00  9.000E+00
#rwgt            2          18   3.8636323591487490E-004           1      330409           0
</event>
<event>
      5   9999  3.19816E-02  9.95739E+01 -1.00000E+00  1.23911E-01
      21    -1     0     0   502   501  0.000000000E+00  0.000000000E+00  1.149272252E+03  1.149272252E+03  0.000000000E+00  0.00000E+00  9.000E+00
       1    -1     0     0   501     0  0.000000000E+00  0.000000000E+00 -2.016434154E+03  2.016434154E+03  0.000000000E+00  0.00000E+00  9.000E+00
      25     1     1     2     0     0  2.448640506E+02  1.783290111E+02  1.251517770E+02  3.507814231E+02  1.250000000E+02  0.00000E+00  9.000E+00
      25     1     1     2     0     0 -3.304778323E+02 -2.291743466E+02  8.612420013E+02  9.586966483E+02  1.250000000E+02  0.00000E+00  9.000E+00
       1     1     1     2   502     0  8.561378170E+01  5.084533547E+01 -1.853555680E+03  1.856228334E+03  0.000000000E+00  0.00000E+00  9.000E+00
#rwgt            1           1   2.8813962884381379E-002           1      330428           0
</event>
<event>
      5   9999  3.19816E-02  1.15282E+02 -1.00000E+00  1.21112E-01
      21    -1     0     0   502   501  0.000000000E+00  0.000000000E+00  3.008443858E+02  3.008443858E+02  0.000000000E+00  0.00000E+00  9.000E+00
      21    -1     0     0   501   511  0.000000000E+00  0.000000000E+00 -2.734618423E+02  2.734618423E+02  0.000000000E+00  0.00000E+00  9.000E+00
      25     1     1     2     0     0 -1.319639534E+02 -5.049672146E+01 -9.195402173E+01  2.098688781E+02  1.250000000E+02  0.00000E+00  9.000E+00
      25     1     1     2     0     0  5.005657885E+01  1.316204566E+02  1.548719172E+02  2.438030279E+02  1.250000000E+02  0.00000E+00  9.000E+00
      21     1     1     2   502   511  8.190737457E+01 -8.112373519E+01 -3.553535192E+01  1.206343220E+02  2.821006671E-06  0.00000E+00  9.000E+00
#rwgt            1           1   2.6004075194500820E-002           1      330519           0
</event>
<event>
      5   9999  3.19816E-02  3.76280E+01 -1.00000E+00  1.46506E-01
      21    -1     0     0   502   501  0.000000000E+00  0.000000000E+00  3.004755307E+02  3.004755307E+02  0.000000000E+00  0.00000E+00  9.000E+00
      21    -1     0     0   512   502  0.000000000E+00  0.000000000E+00 -7.049520412E+02  7.049520412E+02  0.000000000E+00  0.00000E+00  9.000E+00
      25     1     1     2     0     0 -4.172554769E+02  4.815725702E+01 -1.258048939E+02  4.559310537E+02  1.250000000E+02  0.00000E+00  9.000E+00
      25     1     1     2     0     0  4.016196924E+02 -8.238278120E+01 -2.253774220E+02  4.842574546E+02  1.250000000E+02  0.00000E+00  9.000E+00
      21     1     1     2   512   501  1.563578446E+01  3.422552418E+01 -5.329419449E+01  6.523906366E+01  6.743495762E-07  0.00000E+00  9.000E+00
#rwgt            1           1   2.8696110229333615E-002           1      330564           0
</event>
<event>
      5   9999  3.19816E-02  2.71366E+01 -1.00000E+00  1.56129E-01
      21    -1     0     0   502   511  0.000000000E+00  0.000000000E+00  4.958996520E+02  4.958996520E+02  0.000000000E+00  0.00000E+00  9.000E+00
      21    -1     0     0   501   502  0.000000000E+00  0.000000000E+00 -2.645155717E+02  2.645155717E+02  0.000000000E+00  0.00000E+00  9.000E+00
      25     1     1     2     0     0  1.062656163E+02 -1.108719974E+01 -1.947313265E+02  2.548736878E+02  1.250000000E+02  0.00000E+00  9.000E+00
      25     1     1     2     0     0 -8.996789353E+01 -1.061030158E+01  1.131503562E+02  1.914022034E+02  1.250000000E+02  0.00000E+00  9.000E+00
      21     1     1     2   501   511 -1.629772274E+01  2.169750132E+01  3.129650506E+02  3.141393325E+02  5.394796609E-06  0.00000E+00  9.000E+00
#rwgt            1           1   2.4669231276536432E-002           1      330775           0
</event>
<event>
      5   9999  3.19816E-02  4.77681E+01 -1.00000E+00  1.40217E-01
      21    -1     0     0   502   501  0.000000000E+00  0.000000000E+00  2.915140876E+02  2.915140876E+02  0.000000000E+00  0.00000E+00  9.000E+00
       1    -1     0     0   501     0  0.000000000E+00  0.000000000E+00 -2.139133014E+03  2.139133014E+03  0.000000000E+00  0.00000E+00  9.000E+00
      25     1     1     2     0     0  1.383593543E+02 -5.477857301E+02 -1.743745170E+02  6.043541918E+02  1.250000000E+02  0.00000E+00  9.000E+00
      25     1     1     2     0     0 -9.195506809E+01  5.364529614E+02 -9.537579369E+02  1.105222474E+03  1.250000000E+02  0.00000E+00  9.000E+00
       1     1     1     2   502     0 -4.640428622E+01  1.133276865E+01 -7.194864729E+02  7.210704363E+02  1.078959322E-05  0.00000E+00  9.000E+00
#rwgt            1           1   3.1157707600775488E-002           1      330943           0
</event>
<event>
      5   9999  3.19816E-02  1.17662E+01 -1.00000E+00  1.87931E-01
      21    -1     0     0   502   501  0.000000000E+00  0.000000000E+00  4.126319185E+02  4.126319185E+02  0.000000000E+00  0.00000E+00  9.000E+00
      21    -1     0     0   511   502  0.000000000E+00  0.000000000E+00 -6.637069881E+02  6.637069881E+02  0.000000000E+00  0.00000E+00  9.000E+00
      25     1     1     2     0     0  8.128396711E+01 -1.389122148E+02  2.809535845E+01  2.057134801E+02  1.250000000E+02  0.00000E+00  9.000E+00
      25     1     1     2     0     0 -8.004960345E+01  1.272109172E+02  2.633503459E+02  3.279770742E+02  1.250000000E+02  0.00000E+00  9.000E+00
      21     1     1     2   511   501 -1.234363657E+00  1.170129762E+01 -5.425207740E+02  5.426483523E+02  1.078959322E-05  0.00000E+00  9.000E+00
#rwgt            1           1   2.5288346137800368E-002           1      331192           0
</event>
<event>
      5   9999  3.19816E-02  5.65529E+01 -1.00000E+00  1.36091E-01
      21    -1     0     0   502   501  0.000000000E+00  0.000000000E+00  3.433975460E+02  3.433975460E+02  0.000000000E+00  0.00000E+00  9.000E+00
      21    -1     0     0   512   502  0.000000000E+00  0.000000000E+00 -2.436808643E+03  2.436808643E+03  0.000000000E+00  0.00000E+00  9.000E+00
      25     1     1     2     0     0  3.001358385E+01 -5.412002644E+02 -2.051576115E+03  2.125650041E+03  1.250000000E+02  0.00000E+00  9.000E+00
      25     1     1     2     0     0  1.446527156E+01  5.062737588E+02  7.279795157E+01  5.267322894E+02  1.250000000E+02  0.00000E+00  9.000E+00
      21     1     1     2   512   501 -4.447885541E+01  3.492650557E+01 -1.146329330E+02  1.278238581E+02  1.907348633E-06  0.00000E+00  9.000E+00
#rwgt            1           1   2.7563994240549179E-002           1      331318           0
</event>
<event>
      5   9999  3.19816E-02  1.81424E+01 -1.00000E+00  1.69940E-01
      21    -1     0     0   502   501  0.000000000E+00  0.000000000E+00  2.218418556E+03  2.218418556E+03  0.000000000E+00  0.00000E+00  9.000E+00
      21    -1     0     0   511   502  0.000000000E+00  0.000000000E+00 -9.624536535E+01  9.624536535E+01  0.000000000E+00  0.00000E+00  9.000E+00
      25     1     1     2     0     0  9.826402399E+01  4.046766040E+02  6.779101792E+02  8.053609025E+02  1.250000000E+02  0.00000E+00  9.000E+00
      25     1     1     2     0     0 -9.076396841E+01 -3.881570924E+02  1.409248839E+03  1.469867789E+03  1.250000000E+02  0.00000E+00  9.000E+00
      21     1     1     2   511   501 -7.500055579E+00 -1.651951162E+01  3.501417299E+01  3.943523054E+01  4.768371582E-07  0.00000E+00  9.000E+00
#rwgt            1           1   2.6629234619347516E-002           1      331461           0
</event>
<event>
      5   9999  3.19816E-02  9.08681E+00 -1.00000E+00  2.00691E-01
      21    -1     0     0   512   501  0.000000000E+00  0.000000000E+00  3.774687864E+01  3.774687864E+01  0.000000000E+00  0.00000E+00  9.000E+00
      21    -1     0     0   501   502  0.000000000E+00  0.000000000E+00 -3.105622831E+03  3.105622831E+03  0.000000000E+00  0.00000E+00  9.000E+00
      25     1     1     2     0     0 -6.750675026E+01 -4.969966544E+01 -1.380317690E+03  1.388498881E+03  1.250000000E+02  0.00000E+00  9.000E+00
      25     1     1     2     0     0  6.898301036E+01  5.866575629E+01 -1.717068975E+03  1.723992805E+03  1.250000000E+02  0.00000E+00  9.000E+00
      21     1     1     2   512   502 -1.476260106E+00 -8.966090851E+00  2.951071295E+01  3.087802305E+01  4.344193258E-06  0.00000E+00  9.000E+00
#rwgt            1           1   3.3249881375558947E-002           1      331715           0
</event>
<event>
      5   9999  3.19816E-02  1.87993E+02 -1.00000E+00  1.12636E-01
      21    -1     0     0   502   511  0.000000000E+00  0.000000000E+00  4.771029524E+02  4.771029524E+02  0.000000000E+00  0.00000E+00  9.000E+00
      21    -1     0     0   501   502  0.000000000E+00  0.000000000E+00 -4.515525704E+02  4.515525704E+02  0.000000000E+00  0.00000E+00  9.000E+00
      25     1     1     2     0     0  3.553207915E+02  3.028596828E+01  1.581974680E+02  4.096602783E+02  1.250000000E+02  0.00000E+00  9.000E+00
      25     1     1     2     0     0 -2.201573277E+02 -1.609461308E+02 -1.395722391E+02  3.308750759E+02  1.250000000E+02  0.00000E+00  9.000E+00
      21     1     1     2   501   511 -1.351634639E+02  1.306601625E+02  6.925153048E+00  1.881201685E+02  9.866324280E-07  0.00000E+00  9.000E+00
#rwgt            1           1   2.8329480036149515E-002           1      331951           0
</event>
<event>
      5   9999  3.19816E-02  2.70199E+01 -1.00000E+00  1.56264E-01
      21    -1     0     0   502   512  0.000000000E+00  0.000000000E+00  3.383169940E+02  3.383169940E+02  0.000000000E+00  0.00000E+00  9.000E+00
      21    -1     0     0   501   502  0.000000000E+00  0.000000000E+00 -1.393179139E+02  1.393179139E+02  0.000000000E+00  0.00000E+00  9.000E+00
      25     1     1     2     0     0 -8.150185251E+01  6.211650041E+01 -3.585763541E+01  1.655650374E+02  1.250000000E+02  0.00000E+00  9.000E+00
      25     1     1     2     0     0  8.590038576E+01 -8.877593952E+01  2.187989558E+02  2.806386053E+02  1.250000000E+02  0.00000E+00  9.000E+00
      21     1     1     2   501   512 -4.398533250E+00  2.665943911E+01  1.605775970E+01  3.143126524E+01  2.384185791E-07  0.00000E+00  9.000E+00
#rwgt            1           1   2.9473015596765587E-002           1      331989           0
</event>
<event>
      5   9999  3.19816E-02  6.31871E+01 -1.00000E+00  1.33513E-01
      21    -1     0     0   511   501  0.000000000E+00  0.000000000E+00  6.659696136E+02  6.659696136E+02  0.000000000E+00  0.00000E+00  9.000E+00
      21    -1     0     0   501   502  0.000000000E+00  0.000000000E+00 -1.080748630E+03  1.080748630E+03  0.000000000E+00  0.00000E+00  9.000E+00
      25     1     1     2     0     0 -8.744794432E+01 -7.464986096E+01  5.975037454E+02  6.211726575E+02  1.250000000E+02  0.00000E+00  9.000E+00
      25     1     1     2     0     0  4.254561057E+01  3.019318418E+01 -1.045446227E+03  1.054184315E+03  1.250000000E+02  0.00000E+00  9.000E+00
      21     1     1     2   511   502  4.490233375E+01  4.445667679E+01  3.316346446E+01  7.136127145E+01  1.261592536E-06  0.00000E+00  9.000E+00
#rwgt            1           1   3.3318182420518094E-002           1      332107           0
</event>
<event>
      5   9999  3.19816E-02  8.64236E+01 -1.00000E+00  1.26747E-01
      21    -1     0     0   512   501  0.000000000E+00  0.000000000E+00  7.879051457E+02  7.879051457E+02  0.000000000E+00  0.00000E+00  9.000E+00
      21    -1     0     0   501   502  0.000000000E+00  0.000000000E+00 -3.588488246E+02  3.588488246E+02  0.000000000E+00  0.00000E+00  9.000E+00
      25     1     1     2     0     0  1.501858408E+02  3.319138992E+02  1.286938445E+02  4.060907889E+02  1.250000000E+02  0.00000E+00  9.000E+00
      25     1     1     2     0     0 -1.540213853E+02 -2.455754628E+02 -9.995096018E+01  3.311269990E+02  1.250000000E+02  0.00000E+00  9.000E+00
      21     1     1     2   512   502  3.835544515E+00 -8.633843642E+01  4.003134367E+02  4.095361823E+02  0.000000000E+00  0.00000E+00  9.000E+00
#rwgt            1           1   2.9445598955040460E-002           1      332219           0
</event>
<event>
      5   9999  3.19816E-02  1.35317E+02 -1.00000E+00  1.18195E-01
      21    -1     0     0   502   501  0.000000000E+00  0.000000000E+00  3.726974215E+02  3.726974215E+02  0.000000000E+00  0.00000E+00  9.000E+00
       2    -1     0     0   501     0  0.000000000E+00  0.000000000E+00 -2.281593552E+03  2.281593552E+03  0.000000000E+00  0.00000E+00  9.000E+00
      25     1     1     2     0     0 -2.057702477E+02 -1.897630465E+02  2.472165825E+02  3.938177844E+02  1.250000000E+02  0.00000E+00  9.000E+00
      25     1     1     2     0     0  1.529774492E+02  6.516916956E+01 -1.670029912E+02  2.667660393E+02  1.250000000E+02  0.00000E+00  9.000E+00
       2     1     1     2   502     0  5.279279849E+01  1.245938769E+02 -1.989109722E+03  1.993707150E+03  3.737624730E-05  0.00000E+00  9.000E+00
#rwgt            1           1   2.8193590039422144E-002           1      332275           0
</event>
<event>
      5   9999  3.19816E-02  1.73776E+02 -1.00000E+00  1.13916E-01
      21    -1     0     0   502   501  0.000000000E+00  0.000000000E+00  4.784567330E+02  4.784567330E+02  0.000000000E+00  0.00000E+00  9.000E+00
      21    -1     0     0   511   502  0.000000000E+00  0.000000000E+00 -3.602571681E+02  3.602571681E+02  0.000000000E+00  0.00000E+00  9.000E+00
      25     1     1     2     0     0 -3.845067253E+01 -1.208632519E+01  3.100859297E+02  3.367533479E+02  1.250000000E+02  0.00000E+00  9.000E+00
      25     1     1     2     0     0  2.008587183E+02  7.390762090E+01 -6.610476770E+00  2.479420487E+02  1.250000000E+02  0.00000E+00  9.000E+00
      21     1     1     2   511   501 -1.624080457E+02 -6.182129571E+01 -1.852758880E+02  2.540185045E+02  0.000000000E+00  0.00000E+00  9.000E+00
#rwgt            1           1   2.8871818966941593E-002           1      332340           0
</event>
<event>
      5   9999  3.19816E-02  2.24331E+01 -1.00000E+00  1.62358E-01
      21    -1     0     0   502   501  0.000000000E+00  0.000000000E+00  4.624826256E+01  4.624826256E+01  0.000000000E+00  0.00000E+00  9.000E+00
      21    -1     0     0   512   502  0.000000000E+00  0.000000000E+00 -1.181206522E+03  1.181206522E+03  0.000000000E+00  0.00000E+00  9.000E+00
      25     1     1     2     0     0 -3.742684921E+01 -1.523803708E+02 -2.928289476E+02  3.549568129E+02  1.250000000E+02  0.00000E+00  9.000E+00
      25     1     1     2     0     0  1.673038976E+01  1.610350093E+02 -7.282033548E+02  7.563843640E+02  1.250000000E+02  0.00000E+00  9.000E+00
      21     1     1     2   512   501  2.069645944E+01 -8.654638419E+00 -1.139259567E+02  1.161136074E+02  1.348699152E-06  0.00000E+00  9.000E+00
#rwgt            1           1   2.9405835328734843E-002           1      332378           0
</event>
<event>
      5   9999  3.19816E-02  4.08034E+01 -1.00000E+00  1.44307E-01
      21    -1     0     0   502   511  0.000000000E+00  0.000000000E+00  5.381742056E+02  5.381742056E+02  0.000000000E+00  0.00000E+00  9.000E+00
      21    -1     0     0   501   502  0.000000000E+00  0.000000000E+00 -9.410078116E+02  9.410078116E+02  0.000000000E+00  0.00000E+00  9.000E+00
      25     1     1     2     0     0 -1.615324439E+02  9.591364859E+01 -7.415658459E+02  7.751368023E+02  1.250000000E+02  0.00000E+00  9.000E+00
      25     1     1     2     0     0  1.208420273E+02 -9.894826777E+01 -1.267220253E+02  2.368058845E+02  1.250000000E+02  0.00000E+00  9.000E+00
      21     1     1     2   501   511  4.069041659E+01  3.034619174E+00  4.654542652E+02  4.672393305E+02  5.394796609E-06  0.00000E+00  9.000E+00
#rwgt            1           1   1.3798383439280689E-002           1      332525           0
</event>
<event>
      5   9999  3.19816E-02  2.99255E+02 -1.00000E+00  1.05627E-01
      21    -1     0     0   502   501  0.000000000E+00  0.000000000E+00  1.202208962E+02  1.202208962E+02  0.000000000E+00  0.00000E+00  9.000E+00
       2    -1     0     0   501     0  0.000000000E+00  0.000000000E+00 -2.174499088E+03  2.174499088E+03  0.000000000E+00  0.00000E+00  9.000E+00
      25     1     1     2     0     0 -7.999776124E+00 -3.933008265E+02 -5.300796308E+02  6.718325323E+02  1.250000000E+02  0.00000E+00  9.000E+00
      25     1     1     2     0     0  1.479025821E+02  1.287623573E+02 -4.341829693E+02  4.925391043E+02  1.250000000E+02  0.00000E+00  9.000E+00
       2     1     1     2   502     0 -1.399028059E+02  2.645384692E+02 -1.090015592E+03  1.130348348E+03  1.525878906E-05  0.00000E+00  9.000E+00
#rwgt            2          13   1.4905743738861091E-003           1      332693           0
</event>
<event>
      5   9999  3.19816E-02  1.65990E+01 -1.00000E+00  1.73337E-01
      21    -1     0     0   502   511  0.000000000E+00  0.000000000E+00  1.799591442E+02  1.799591442E+02  0.000000000E+00  0.00000E+00  9.000E+00
      21    -1     0     0   501   502  0.000000000E+00  0.000000000E+00 -7.881519656E+02  7.881519656E+02  0.000000000E+00  0.00000E+00  9.000E+00
      25     1     1     2     0     0 -2.996148203E+01  1.183225388E+02  5.437507326E+01  1.829742118E+02  1.250000000E+02  0.00000E+00  9.000E+00
      25     1     1     2     0     0  2.815594195E+01 -1.018220434E+02 -7.132601987E+02  7.317961442E+02  1.250000000E+02  0.00000E+00  9.000E+00
      21     1     1     2   501   511  1.805540080E+00 -1.650049543E+01  5.069230404E+01  5.334075378E+01  1.348699152E-06  0.00000E+00  9.000E+00
#rwgt            1           1   2.9570632373331674E-002           1      332712           0
</event>
<event>
      5   9999  3.19816E-02  1.73251E+02 -1.00000E+00  1.13966E-01
      21    -1     0     0   502   512  0.000000000E+00  0.000000000E+00  9.581972860E+02  9.581972860E+02  0.000000000E+00  0.00000E+00  9.000E+00
      21    -1     0     0   501   502  0.000000000E+00  0.000000000E+00 -1.601555726E+03  1.601555726E+03  0.000000000E+00  0.00000E+00  9.000E+00
      25     1     1     2     0     0  5.890499148E+02  9.048439704E+02 -5.998722967E+02  1.241448422E+03  1.250000000E+02  0.00000E+00  9.000E+00
      25     1     1     2     0     0 -4.672513327E+02 -1.028055350E+03 -8.759720858E+01  1.139526166E+03  1.250000000E+02  0.00000E+00  9.000E+00
      21     1     1     2   501   512 -1.217985821E+02  1.232113798E+02  4.411106570E+01  1.787784238E+02  2.078484985E-06  0.00000E+00  9.000E+00
#rwgt            1           1   2.7594190091293633E-002           1      332886           0
</event>
<event>
      5   9999  3.19816E-02  9.16159E+01 -1.00000E+00  1.25563E-01
      21    -1     0     0   502   511  0.000000000E+00  0.000000000E+00  1.896838748E+03  1.896838748E+03  0.000000000E+00  0.00000E+00  9.000E+00
      21    -1     0     0   501   502  0.000000000E+00  0.000000000E+00 -1.645546277E+03  1.645546277E+03  0.000000000E+00  0.00000E+00  9.000E+00
      25     1     1     2     0     0 -2.927406805E+02 -1.835220096E+02  1.420982491E+03  1.467717164E+03  1.250000000E+02  0.00000E+00  9.000E+00
      25     1     1     2     0     0  3.738699260E+02  1.409601286E+02 -1.590151751E+03  1.644340619E+03  1.250000000E+02  0.00000E+00  9.000E+00
      21     1     1     2   501   511 -8.112924555E+01  4.256188100E+01  4.204617302E+02  4.303272415E+02  5.394796609E-06  0.00000E+00  9.000E+00
#rwgt            2          11   8.5111307894851374E-003           1      333008           0
</event>
<event>
      5   9999  3.19816E-02  2.38078E+01 -1.00000E+00  1.60357E-01
       2    -1     0     0   502     0  0.000000000E+00  0.000000000E+00  1.454819709E+03  1.454819709E+03  0.000000000E+00  0.00000E+00  9.000E+00
      21    -1     0     0   501   502  0.000000000E+00  0.000000000E+00 -4.647925362E+02  4.647925362E+02  0.000000000E+00  0.00000E+00  9.000E+00
      25     1     1     2     0     0 -9.967285686E+01  2.997452717E+02 -1.607384388E+02  3.758240972E+02  1.250000000E+02  0.00000E+00  9.000E+00
      25     1     1     2     0     0  9.128446956E+01 -3.220263212E+02 -3.388628814E+01  3.588970416E+02  1.250000000E+02  0.00000E+00  9.000E+00
       2     1     1     2   501     0  8.388387295E+00  2.228104950E+01  1.184651899E+03  1.184891106E+03  0.000000000E+00  0.00000E+00  9.000E+00
#rwgt            1           1   2.8221670634014352E-002           1      333043           0
</event>
<event>
      5   9999  3.19816E-02  5.66869E+00 -1.00000E+00  2.29372E-01
      21    -1     0     0   502   501  0.000000000E+00  0.000000000E+00  9.838120351E+01  9.838120351E+01  0.000000000E+00  0.00000E+00  9.000E+00
      21    -1     0     0   501   511  0.000000000E+00  0.000000000E+00 -3.854895217E+02  3.854895217E+02  0.000000000E+00  0.00000E+00  9.000E+00
      25     1     1     2     0     0 -2.327545472E+00 -9.036083524E+01 -1.094387711E+02  1.891357783E+02  1.250000000E+02  0.00000E+00  9.000E+00
      25     1     1     2     0     0  7.994574076E+00  9.049816787E+01 -4.362096700E+01  1.605665605E+02  1.250000000E+02  0.00000E+00  9.000E+00
      21     1     1     2   502   511 -5.667028604E+00 -1.373326388E-01 -1.340485801E+02  1.341683864E+02  1.907348633E-06  0.00000E+00  9.000E+00
#rwgt            1           1   6.7852808549760321E-002           1      333227           0
</event>
<event>
      5   9999  3.19816E-02  7.24457E+01 -1.00000E+00  1.30470E-01
      21    -1     0     0   502   501  0.000000000E+00  0.000000000E+00  4.470538396E+02  4.470538396E+02  0.000000000E+00  0.00000E+00  9.000E+00
      21    -1     0     0   512   502  0.000000000E+00  0.000000000E+00 -4.093476625E+02  4.093476625E+02  0.000000000E+00  0.00000E+00  9.000E+00
      25     1     1     2     0     0  1.405316475E+02  4.303088545E+00  2.645203832E+02  3.245977413E+02  1.250000000E+02  0.00000E+00  9.000E+00
      25     1     1     2     0     0 -1.019892925E+02 -6.564533027E+01  9.742555474E+01  1.995691957E+02  1.250000000E+02  0.00000E+00  9.000E+00
      21     1     1     2   512   501 -3.854235495E+01  6.134224173E+01 -3.242397609E+02  3.322345651E+02  3.814697266E-06  0.00000E+00  9.000E+00
#rwgt            1           1   2.5119617703429773E-002           1      333489           0
</event>
<event>
      5   9999  3.19816E-02  6.23095E+00 -1.00000E+00  2.22954E-01
      21    -1     0     0   511   501  0.000000000E+00  0.000000000E+00  9.711763233E+02  9.711763233E+02  0.000000000E+00  0.00000E+00  9.000E+00
      21    -1     0     0   501   502  0.000000000E+00  0.000000000E+00 -6.576023933E+01  6.576023933E+01  0.000000000E+00  0.00000E+00  9.000E+00
      25     1     1     2     0     0  6.313841205E+01  1.085093241E+02  8.055918194E+02  8.248417497E+02  1.250000000E+02  0.00000E+00  9.000E+00
      25     1     1     2     0     0 -6.842605647E+01 -1.052130231E+02  8.595195615E+01  1.968873896E+02  1.250000000E+02  0.00000E+00  9.000E+00
      21     1     1     2   511   502  5.287644416E+00 -3.296300980E+00  1.387230835E+01  1.520742327E+01  1.685873940E-07  0.00000E+00  9.000E+00
#rwgt            1           1   2.7170441279982496E-002           1      333540           0
</event>
<event>
      5   9999  3.19816E-02  3.58888E+01 -1.00000E+00  1.47823E-01
      21    -1     0     0   502   501  0.000000000E+00  0.000000000E+00  2.529755040E+02  2.529755040E+02  0.000000000E+00  0.00000E+00  9.000E+00
      21    -1     0     0   512   502  0.000000000E+00  0.000000000E+00 -5.694658739E+02  5.694658739E+02  0.000000000E+00  0.00000E+00  9.000E+00
      25     1     1     2     0     0 -1.758710944E+02 -1.836394395E+02  7.846130271E+01  2.939987442E+02  1.250000000E+02  0.00000E+00  9.000E+00
      25     1     1     2     0     0  1.928815858E+02  2.152408297E+02 -3.610066924E+02  4.790435814E+02  1.250000000E+02  0.00000E+00  9.000E+00
      21     1     1     2   512   501 -1.701049146E+01 -3.160139020E+01 -3.394498020E+01  4.939905225E+01  8.259061849E-07  0.00000E+00  9.000E+00
#rwgt            2          11   3.3936421470929078E-003           1      333921           0
</event>
<event>
      5   9999  3.19816E-02  4.03669E+02 -1.00000E+00  1.01566E-01
      21    -1     0     0   502   501  0.000000000E+00  0.000000000E+00  1.335310479E+03  1.335310479E+03  0.000000000E+00  0.00000E+00  9.000E+00
      21    -1     0     0   511   502  0.000000000E+00  0.000000000E+00 -1.746388552E+02  1.746388552E+02  0.000000000E+00  0.00000E+00  9.000E+00
      25     1     1     2     0     0 -1.104318208E+02  1.548331025E+02  5.093529467E+02  5.578834117E+02  1.250000000E+02  0.00000E+00  9.000E+00
      25     1     1     2     0     0  4.314933397E+01  2.431895229E+02  1.740929743E+02  3.270112732E+02  1.250000000E+02  0.00000E+00  9.000E+00
      21     1     1     2   511   501  6.728248685E+01 -3.980226254E+02  4.772257031E+02  6.250546496E+02  1.078959322E-05  0.00000E+00  9.000E+00
#rwgt            2          11   3.4458251643993900E-003           1      334061           0
</event>
<event>
      5   9999  3.19816E-02  4.32882E+01 -1.00000E+00  1.42744E-01
      21    -1     0     0   502   501  0.000000000E+00  0.000000000E+00  1.276331174E+03  1.276331174E+03  0.000000000E+00  0.00000E+00  9.000E+00
      21    -1     0     0   501   512  0.000000000E+00  0.000000000E+00 -1.644202684E+02  1.644202684E+02  0.000000000E+00  0.00000E+00  9.000E+00
      25     1     1     2     0     0 -1.172928065E+00  3.207494279E+02  1.101975482E+02  3.614554895E+02  1.250000000E+02  0.00000E+00  9.000E+00
      25     1     1     2     0     0 -4.059588087E+01 -3.093814465E+02  9.671595585E+02  1.023907963E+03  1.250000000E+02  0.00000E+00  9.000E+00
      21     1     1     2   502   512  4.176880893E+01 -1.136798143E+01  3.455379885E+01  5.538798982E+01  4.768371582E-07  0.00000E+00  9.000E+00
#rwgt            1           1   2.7118468466166033E-002           1      334096           0
</event>
<event>
      5   9999  3.19816E-02  6.68562E+01 -1.00000E+00  1.32239E-01
      21    -1     0     0   502   501  0.000000000E+00  0.000000000E+00  3.097591592E+02  3.097591592E+02  0.000000000E+00  0.00000E+00  9.000E+00
      21    -1     0     0   511   502  0.000000000E+00  0.000000000E+00 -5.027805757E+02  5.027805757E+02  0.000000000E+00  0.00000E+00  9.000E+00
      25     1     1     2     0     0 -3.082005033E+02 -6.479296002E+01 -2.788159702E+02  4.388040829E+02  1.250000000E+02  0.00000E+00  9.000E+00
      25     1     1     2     0     0  2.415020818E+02  6.020305631E+01  1.142949732E+02  3.010581412E+02  1.250000000E+02  0.00000E+00  9.000E+00
      21     1     1     2   511   501  6.669842155E+01  4.589903716E+00 -2.850041950E+01  7.267751072E+01  1.651812370E-06  0.00000E+00  9.000E+00
#rwgt            1           1   2.8423475149236290E-002           1      334240           0
</event>
<event>
      5   9999  3.19816E-02  5.07907E+01 -1.00000E+00  1.38688E-01
      21    -1     0     0   512   501  0.000000000E+00  0.000000000E+00  1.465260493E+03  1.465260493E+03  0.000000000E+00  0.00000E+00  9.000E+00
      21    -1     0     0   501   502  0.000000000E+00  0.000000000E+00 -1.909793885E+02  1.909793885E+02  0.000000000E+00  0.00000E+00  9.000E+00
      25     1     1     2     0     0 -2.375890133E+02  3.445992649E+02  2.084367804E+02  4.840124833E+02  1.250000000E+02  0.00000E+00  9.000E+00
      25     1     1     2     0     0  2.144744338E+02 -2.993730629E+02  6.824619781E+02  7.854952992E+02  1.250000000E+02  0.00000E+00  9.000E+00
      21     1     1     2   512   502  2.311457947E+01 -4.522620201E+01  3.833823462E+02  3.867320992E+02  0.000000000E+00  0.00000E+00  9.000E+00
#rwgt            1           1   2.8008231805763704E-002           1      334288           0
</event>
<event>
      5   9999  3.19816E-02  8.18337E+01 -1.00000E+00  1.27875E-01
      21    -1     0     0   502   501  0.000000000E+00  0.000000000E+00  6.383559609E+02  6.383559609E+02  0.000000000E+00  0.00000E+00  9.000E+00
      21    -1     0     0   501   511  0.000000000E+00  0.000000000E+00 -1.509706162E+02  1.509706162E+02  0.000000000E+00  0.00000E+00  9.000E+00
      25     1     1     2     0     0 -7.140327484E+01  2.388373256E+02  1.497579983E+02  3.165346013E+02  1.250000000E+02  0.00000E+00  9.000E+00
      25     1     1     2     0     0  4.752955081E+01 -1.605634971E+02  3.300110710E+02  3.906046617E+02  1.250000000E+02  0.00000E+00  9.000E+00
      21     1     1     2   502   511  2.387372403E+01 -7.827382857E+01  7.616275455E+00  8.218731405E+01  1.004475328E-06  0.00000E+00  9.000E+00
#rwgt            1           1   2.6203382651710891E-002           1      334351           0
</event>
<event>
      5   9999  3.19816E-02  2.80116E+01 -1.00000E+00  1.55138E-01
       2    -1     0     0   502     0  0.000000000E+00  0.000000000E+00  7.238485659E+02  7.238485659E+02  0.000000000E+00  0.00000E+00  9.000E+00
      21    -1     0     0   501   502  0.000000000E+00  0.000000000E+00 -1.956842743E+02  1.956842743E+02  0.000000000E+00  0.00000E+00  9.000E+00
      25     1     1     2     0     0  1.291937117E+02 -6.072918634E+01  5.089630302E+01  1.964547859E+02  1.250000000E+02  0.00000E+00  9.000E+00
      25     1     1     2     0     0 -1.454653191E+02  8.353019256E+01 -3.322528555E+01  2.118168353E+02  1.250000000E+02  0.00000E+00  9.000E+00
       2     1     1     2   501     0  1.627160731E+01 -2.280100622E+01  5.104932742E+02  5.112612190E+02  5.394796609E-06  0.00000E+00  9.000E+00
#rwgt            1           1   2.5822737836754300E-002           1      334423           0
</event>
<event>
      5   9999  3.19816E-02  1.82784E+01 -1.00000E+00  1.69660E-01
      21    -1     0     0   502   511  0.000000000E+00  0.000000000E+00  4.536247585E+02  4.536247585E+02  0.000000000E+00  0.00000E+00  9.000E+00
      21    -1     0     0   501   502  0.000000000E+00  0.000000000E+00 -1.365531103E+03  1.365531103E+03  0.000000000E+00  0.00000E+00  9.000E+00
      25     1     1     2     0     0  1.185400272E+02 -9.215027983E+01 -1.325050500E+03  1.339375690E+03  1.250000000E+02  0.00000E+00  9.000E+00
      25     1     1     2     0     0 -1.011965522E+02  8.637931260E+01  4.217589026E+02  4.595733888E+02  1.250000000E+02  0.00000E+00  9.000E+00
      21     1     1     2   501   511 -1.734347500E+01  5.770967231E+00 -8.614747195E+00  2.020678246E+01  0.000000000E+00  0.00000E+00  9.000E+00
#rwgt            1           1   2.0392166322014984E-002           1      334522           0
</event>
<event>
      5   9999  3.19816E-02  8.25027E+01 -1.00000E+00  1.27705E-01
      21    -1     0     0   502   501  0.000000000E+00  0.000000000E+00  7.520132792E+02  7.520132792E+02  0.000000000E+00  0.00000E+00  9.000E+00
      21    -1     0     0   512   502  0.000000000E+00  0.000000000E+00 -1.572647230E+02  1.572647230E+02  0.000000000E+00  0.00000E+00  9.000E+00
      25     1     1     2     0     0  1.204794643E+01  7.781451538E+01 -4.977283543E+01  1.558928701E+02  1.250000000E+02  0.00000E+00  9.000E+00
      25     1     1     2     0     0  3.280304427E+01 -1.470610656E+02  6.416285610E+02  6.708317278E+02  1.250000000E+02  0.00000E+00  9.000E+00
      21     1     1     2   512   501 -4.485099070E+01  6.924655026E+01  2.892830700E+00  8.255340428E+01  1.687979967E-06  0.00000E+00  9.000E+00
#rwgt            1           1   2.8757279906620779E-002           1      334718           0
</event>
<event>
      5   9999  3.19816E-02  4.03175E+01 -1.00000E+00  1.44628E-01
      21    -1     0     0   511   501  0.000000000E+00  0.000000000E+00  1.437058343E+03  1.437058343E+03  0.000000000E+00  0.00000E+00  9.000E+00
      21    -1     0     0   501   502  0.000000000E+00  0.000000000E+00 -2.646010591E+02  2.646010591E+02  0.000000000E+00  0.00000E+00  9.000E+00
      25     1     1     2     0     0  9.354872083E+01 -2.772423689E+02 -1.289898636E+02  3.433337723E+02  1.250000000E+02  0.00000E+00  9.000E+00
      25     1     1     2     0     0 -5.583816324E+01  2.629799931E+02  7.661944944E+02  8.215566812E+02  1.250000000E+02  0.00000E+00  9.000E+00
      21     1     1     2   511   502 -3.771055759E+01  1.426237582E+01  5.352526527E+02  5.367689481E+02  7.629394531E-06  0.00000E+00  9.000E+00
#rwgt            1           1   2.5130257212988338E-002           1      334862           0
</event>
<event>
      5   9999  3.19816E-02  2.54731E+02 -1.00000E+00  1.07953E-01
       2    -1     0     0   502     0  0.000000000E+00  0.000000000E+00  2.083347411E+03  2.083347411E+03  0.000000000E+00  0.00000E+00  9.000E+00
      21    -1     0     0   501   502  0.000000000E+00  0.000000000E+00 -3.984418920E+02  3.984418920E+02  0.000000000E+00  0.00000E+00  9.000E+00
      25     1     1     2     0     0 -4.866712813E+02  2.685729134E+02 -5.623116195E+01  5.725096414E+02  1.250000000E+02  0.00000E+00  9.000E+00
      25     1     1     2     0     0  2.521938805E+02 -1.690330337E+02  2.966139941E+02  4.424689608E+02  1.250000000E+02  0.00000E+00  9.000E+00
       2     1     1     2   501     0  2.344774009E+02 -9.953987973E+01  1.444522687E+03  1.466810701E+03  2.157918644E-05  0.00000E+00  9.000E+00
#rwgt            1           1   2.9914388948424273E-002           1      334960           0
</event>
<event>
      5   9999  3.19816E-02  2.86750E+01 -1.00000E+00  1.54415E-01
      21    -1     0     0   511   501  0.000000000E+00  0.000000000E+00  3.052785314E+02  3.052785314E+02  0.000000000E+00  0.00000E+00  9.000E+00
      21    -1     0     0   501   502  0.000000000E+00  0.000000000E+00 -2.176825680E+02  2.176825680E+02  0.000000000E+00  0.00000E+00  9.000E+00
      25     1     1     2     0     0  1.096285062E+02  5.292568612E+01 -7.250786011E+00  1.746342221E+02  1.250000000E+02  0.00000E+00  9.000E+00
      25     1     1     2     0     0 -1.379534403E+02 -5.739274723E+01 -4.963129607E+01  2.010307058E+02  1.250000000E+02  0.00000E+00  9.000E+00
      21     1     1     2   511   502  2.832493414E+01  4.467061112E+00  1.444780455E+02  1.472961716E+02  1.907348633E-06  0.00000E+00  9.000E+00
#rwgt            1           1   2.6464024868576012E-002           1      335024           0
</event>
<event>
      5   9999  3.19816E-02  1.68362E+02 -1.00000E+00  1.14440E-01
       1    -1     0     0   502     0  0.000000000E+00  0.000000000E+00  1.291925174E+03  1.291925174E+03  0.000000000E+00  0.00000E+00  9.000E+00
      21    -1     0     0   501   502  0.000000000E+00  0.000000000E+00 -7.829047343E+02  7.829047343E+02  0.000000000E+00  0.00000E+00  9.000E+00
      25     1     1     2     0     0 -5.096385850E+02 -2.741285557E+02 -2.252988857E+01  5.924614319E+02  1.250000000E+02  0.00000E+00  9.000E+00
      25     1     1     2     0     0  6.540543368E+02  3.606734410E+02 -1.571140298E+02  7.734224104E+02  1.250000000E+02  0.00000E+00  9.000E+00
       1     1     1     2   501     0 -1.444157518E+02 -8.654488530E+01  6.886643581E+02  7.089460661E+02  7.629394531E-06  0.00000E+00  9.000E+00
#rwgt            1           1   3.0263574225020514E-002           1      335114           0
</event>
<event>
      5   9999  3.19816E-02  4.61285E+01 -1.00000E+00  1.41102E-01
      21    -1     0     0   502   501  0.000000000E+00  0.000000000E+00  1.279759961E+03  1.279759961E+03  0.000000000E+00  0.00000E+00  9.000E+00
      21    -1     0     0   501   511  0.000000000E+00  0.000000000E+00 -1.399561793E+02  1.399561793E+02  0.000000000E+00  0.00000E+00  9.000E+00
      25     1     1     2     0     0 -2.944702223E+01  2.358046524E+02  3.894938351E+02  4.730765359E+02  1.250000000E+02  0.00000E+00  9.000E+00
      25     1     1     2     0     0 -1.859612399E+00 -2.019264872E+02  8.251931812E+02  8.586888555E+02  1.250000000E+02  0.00000E+00  9.000E+00
      21     1     1     2   502   511  3.130663463E+01 -3.387816518E+01 -7.488323448E+01  8.795074902E+01  2.336015456E-06  0.00000E+00  9.000E+00
#rwgt            1           1   3.0304107731247427E-002           1      335226           0
</event>
<event>
      5   9999  3.19816E-02  1.08131E+02 -1.00000E+00  1.22320E-01
      21    -1     0     0   502   501  0.000000000E+00  0.000000000E+00  5.612391078E+02  5.612391078E+02  0.000000000E+00  0.00000E+00  9.000E+00
      21    -1     0     0   501   512  0.000000000E+00  0.000000000E+00 -9.821118809E+02  9.821118809E+02  0.000000000E+00  0.00000E+00  9.000E+00
      25     1     1     2     0     0 -6.562716398E+01 -3.126755762E+02  1.614597484E+02  3.791664423E+02  1.250000000E+02  0.00000E+00  9.000E+00
      25     1     1     2     0     0  1.367551058E+02  2.312312960E+02  2.108499528E+02  3.636654696E+02  1.250000000E+02  0.00000E+00  9.000E+00
      21     1     1     2   502   512 -7.112794178E+01  8.144428019E+01 -7.931824743E+02  8.005190768E+02  0.000000000E+00  0.00000E+00  9.000E+00
#rwgt            1           1   2.6456173486816809E-002           1      335348           0
</event>
<event>
      5   9999  3.19816E-02  1.66756E+01 -1.00000E+00  1.73158E-01
      21    -1     0     0   502   501  0.000000000E+00  0.000000000E+00  2.298950555E+02  2.298950555E+02  0.000000000E+00  0.00000E+00  9.000E+00
      21    -1     0     0   501   511  0.000000000E+00  0.000000000E+00 -4.184251714E+02  4.184251714E+02  0.000000000E+00  0.00000E+00  9.000E+00
      25     1     1     2     0     0 -5.123509303E+01  1.756305545E+02 -2.180901938E+02  3.109010439E+02  1.250000000E+02  0.00000E+00  9.000E+00
      25     1     1     2     0     0  4.842045065E+01 -1.920668981E+02  1.075023625E+02  2.577130018E+02  1.250000000E+02  0.00000E+00  9.000E+00
      21     1     1     2   502   511  2.814642378E+00  1.643634353E+01 -7.794228462E+01  7.970618127E+01  9.536743164E-07  0.00000E+00  9.000E+00
#rwgt            1           1   2.7737442619805191E-002           1      335465           0
</event>
<event>
      5   9999  3.19816E-02  4.86972E+01 -1.00000E+00  1.39733E-01
      21    -1     0     0   502   512  0.000000000E+00  0.000000000E+00  2.177620473E+03  2.177620473E+03  0.000000000E+00  0.00000E+00  9.000E+00
      21    -1     0     0   501   502  0.000000000E+00  0.000000000E+00 -3.416295048E+01  3.416295048E+01  0.000000000E+00  0.00000E+00  9.000E+00
      25     1     1     2     0     0  2.185018603E+02 -4.889672316E+01  9.322025941E+02  9.668301965E+02  1.250000000E+02  0.00000E+00  9.000E+00
      25     1     1     2     0     0 -1.770194730E+02  2.338922610E+01  7.469542500E+02  7.781057778E+02  1.250000000E+02  0.00000E+00  9.000E+00
      21     1     1     2   501   512 -4.148238732E+01  2.550749706E+01  4.643006785E+02  4.668474493E+02  5.394796609E-06  0.00000E+00  9.000E+00
#rwgt            1           1   3.3351283259960542E-002           1      335705           0
</event>
<event>
      5   9999  3.19816E-02  8.25147E+01 -1.00000E+00  1.27702E-01
      21    -1     0     0   502   501  0.000000000E+00  0.000000000E+00  1.496539695E+02  1.496539695E+02  0.000000000E+00  0.00000E+00  9.000E+00
      21    -1     0     0   511   502  0.000000000E+00  0.000000000E+00 -1.222186056E+03  1.222186056E+03  0.000000000E+00  0.00000E+00  9.000E+00
      25     1     1     2     0     0 -2.309167941E+02  1.513582670E+02 -5.920675675E+02  6.651322389E+02  1.250000000E+02  0.00000E+00  9.000E+00
      25     1     1     2     0     0  1.485466865E+02 -1.464762255E+02 -2.574155751E+01  2.445588487E+02  1.250000000E+02  0.00000E+00  9.000E+00
      21     1     1     2   511   501  8.237010763E+01 -4.882041467E+00 -4.547229616E+02  4.621489378E+02  5.394796609E-06  0.00000E+00  9.000E+00
#rwgt            1           1   2.6699797649518103E-002           1      335790           0
</event>
<event>
      5   9999  3.19816E-02  7.90717E+01 -1.00000E+00  1.28595E-01
      21    -1     0     0   502   501  0.000000000E+00  0.000000000E+00  1.219775010E+03  1.219775010E+03  0.000000000E+00  0.00000E+00  9.000E+00
      21    -1     0     0   501   512  0.000000000E+00  0.000000000E+00 -3.053675480E+02  3.053675480E+02  0.000000000E+00  0.00000E+00  9.000E+00
      25     1     1     2     0     0 -1.903094941E+02  4.686550755E+02  5.414296219E+02  7.514162088E+02  1.250000000E+02  0.00000E+00  9.000E+00
      25     1     1     2     0     0  2.192339989E+02 -5.422466038E+02  3.176129564E+02  6.771985792E+02  1.250000000E+02  0.00000E+00  9.000E+00
      21     1     1     2   502   512 -2.892450481E+01  7.359152833E+01  5.536488339E+01  9.652776975E+01  6.743495762E-07  0.00000E+00  9.000E+00
#rwgt            1           1   3.0998671795856081E-002           1      335856           0
</event>
<event>
      5   9999  3.19816E-02  4.99873E+01 -1.00000E+00  1.39082E-01
      21    -1     0     0   511   501  0.000000000E+00  0.000000000E+00  1.569902450E+02  1.569902450E+02  0.000000000E+00  0.00000E+00  9.000E+00
      21    -1     0     0   501   502  0.000000000E+00  0.000000000E+00 -6.553593974E+02  6.553593974E+02  0.000000000E+00  0.00000E+00  9.000E+00
      25     1     1     2     0     0  1.539350600E+02 -7.051829386E+01  4.001924468E+01  2.142320528E+02  1.250000000E+02  0.00000E+00  9.000E+00
      25     1     1     2     0     0 -1.410718619E+02  2.221434939E+01 -5.008553019E+02  5.356078612E+02  1.250000000E+02  0.00000E+00  9.000E+00
      21     1     1     2   511   502 -1.286319817E+01  4.830394447E+01 -3.753309509E+01  6.250972841E+01  1.261592536E-06  0.00000E+00  9.000E+00
#rwgt            1           1   2.7861486576381479E-002           1      335974           0
</event>
<event>
      5   9999  3.19816E-02  8.40277E+01 -1.00000E+00  1.27325E-01
      21    -1     0     0   502   501  0.000000000E+00  0.000000000E+00  5.669062963E+02  5.669062963E+02  0.000000000E+00  0.00000E+00  9.000E+00
       1    -1     0     0   501     0  0.000000000E+00  0.000000000E+00 -9.855662750E+02  9.855662750E+02  0.000000000E+00  0.00000E+00  9.000E+00
      25     1     1     2     0     0  8.466853570E+01 -4.661052836E+02 -4.324427950E+02  6.534941984E+02  1.250000000E+02  0.00000E+00  9.000E+00
      25     1     1     2     0     0 -1.610609423E+02  5.011031885E+02  2.875105477E+02  6.126437364E+02  1.250000000E+02  0.00000E+00  9.000E+00
       1     1     1     2   502     0  7.639240658E+01 -3.499790493E+01 -2.737277314E+02  2.863346365E+02  5.394796609E-06  0.00000E+00  9.000E+00
#rwgt            1           1   3.2502164977582425E-002           1      336101           0
</event>
<event>
      5   9999  3.19816E-02  2.90226E+01 -1.00000E+00  1.54046E-01
      21    -1     0     0   502   501  0.000000000E+00  0.000000000E+00  3.984934759E+03  3.984934759E+03  0.000000000E+00  0.00000E+00  9.000E+00
      21    -1     0     0   511   502  0.000000000E+00  0.000000000E+00 -3.002389240E+02  3.002389240E+02  0.000000000E+00  0.00000E+00  9.000E+00
      25     1     1     2     0     0 -7.659276879E+02 -5.767527636E+02  9.028699525E+02  1.322908963E+03  1.250000000E+02  0.00000E+00  9.000E+00
      25     1     1     2     0     0  7.608325827E+02  6.053246465E+02  2.748488487E+03  2.918064103E+03  1.250000000E+02  0.00000E+00  9.000E+00
      21     1     1     2   511   501  5.095105220E+00 -2.857188289E+01  3.333739539E+01  4.420061674E+01  0.000000000E+00  0.00000E+00  9.000E+00
#rwgt            1           1   2.7586608356196547E-002           1      336202           0
</event>
<event>
      5   9999  3.19816E-02  1.54213E+02 -1.00000E+00  1.15919E-01
      21    -1     0     0   502   501  0.000000000E+00  0.000000000E+00  3.598639509E+02  3.598639509E+02  0.000000000E+00  0.00000E+00  9.000E+00
       2    -1     0     0   501     0  0.000000000E+00  0.000000000E+00 -2.016123287E+03  2.016123287E+03  0.000000000E+00  0.00000E+00  9.000E+00
      25     1     1     2     0     0  1.708548860E+02  1.089510811E+02 -2.485995868E+00  2.381027306E+02  1.250000000E+02  0.00000E+00  9.000E+00
      25     1     1     2     0     0 -6.860741575E+01  6.492536652E+00  2.175616313E+02  2.602060605E+02  1.250000000E+02  0.00000E+00  9.000E+00
       2     1     1     2   502     0 -1.022474702E+02 -1.154436177E+02 -1.871334971E+03  1.877678447E+03  2.157918644E-05  0.00000E+00  9.000E+00
#rwgt            1           1   2.5948190254896732E-002           1      336458           0
</event>
<event>
      5   9999  3.19816E-02  1.10779E+02 -1.00000E+00  1.21861E-01
      21    -1     0     0   502   501  0.000000000E+00  0.000000000E+00  1.322115663E+02  1.322115663E+02  0.000000000E+00  0.00000E+00  9.000E+00
      21    -1     0     0   501   511  0.000000000E+00  0.000000000E+00 -1.257441373E+03  1.257441373E+03  0.000000000E+00  0.00000E+00  9.000E+00
      25     1     1     2     0     0 -2.711198879E+02  6.272375737E+01 -5.528974893E+02  6.314751753E+02  1.250000000E+02  0.00000E+00  9.000E+00
      25     1     1     2     0     0  3.319906341E+02  2.983264641E+01 -3.049325904E+02  4.687394293E+02  1.250000000E+02  0.00000E+00  9.000E+00
      21     1     1     2   502   511 -6.087074618E+01 -9.255640378E+01 -2.673997269E+02  2.894383346E+02  3.814697266E-06  0.00000E+00  9.000E+00
#rwgt            1           1   2.5561427624783400E-002           1      336487           0
</event>
<event>
      5   9999  3.19816E-02  6.43284E+01 -1.00000E+00  1.33106E-01
      21    -1     0     0   502   501  0.000000000E+00  0.000000000E+00  6.302071991E+02  6.302071991E+02  0.000000000E+00  0.00000E+00  9.000E+00
      21    -1     0     0   512   502  0.000000000E+00  0.000000000E+00 -3.937998953E+02  3.937998953E+02  0.000000000E+00  0.00000E+00  9.000E+00
      25     1     1     2     0     0 -2.289302180E+02 -2.576088512E+02 -7.028296555E+01  3.732774574E+02  1.250000000E+02  0.00000E+00  9.000E+00
      25     1     1     2     0     0  1.652566785E+02  2.484535461E+02  4.141224672E+02  5.255105634E+02  1.250000000E+02  0.00000E+00  9.000E+00
      21     1     1     2   512   501  6.367353952E+01  9.155305069E+00 -1.074321979E+02  1.252190736E+02  1.348699152E-06  0.00000E+00  9.000E+00
#rwgt            1           1   2.8221686848334149E-002           1      336591           0
</event>
<event>
      5   9999  3.19816E-02  5.40103E+01 -1.00000E+00  1.37190E-01
      21    -1     0     0   502   501  0.000000000E+00  0.000000000E+00  2.558442476E+02  2.558442476E+02  0.000000000E+00  0.00000E+00  9.000E+00
      21    -1     0     0   501   511  0.000000000E+00  0.000000000E+00 -3.469033497E+02  3.469033497E+02  0.000000000E+00  0.00000E+00  9.000E+00
      25     1     1     2     0     0 -5.177374865E+01 -1.791560065E+01 -5.895632692E+01  1.486685518E+02  1.250000000E+02  0.00000E+00  9.000E+00
      25     1     1     2     0     0  1.996191597E+01 -2.573207421E+01  1.876359002E+02  2.278000193E+02  1.250000000E+02  0.00000E+00  9.000E+00
      21     1     1     2   502   511  3.181183267E+01  4.364767487E+01 -2.197386755E+02  2.262790262E+02  2.697398305E-06  0.00000E+00  9.000E+00
#rwgt            1           1   3.0008189623915566E-002           1      336715           0
</event>
<event>
      5   9999  3.19816E-02  1.47450E+02 -1.00000E+00  1.16690E-01
      21    -1     0     0   502   501  0.000000000E+00  0.000000000E+00  1.517848409E+03  1.517848409E+03  0.000000000E+00  0.00000E+00  9.000E+00
       1    -1     0     0   501     0  0.000000000E+00  0.000000000E+00 -4.587634592E+02  4.587634592E+02  0.000000000E+00  0.00000E+00  9.000E+00
      25     1     1     2     0     0  5.904073755E+01  4.936762480E+02  2.979439638E+02  5.929567034E+02  1.250000000E+02  0.00000E+00  9.000E+00
      25     1     1     2     0     0  8.717518450E+01 -4.746424896E+02  9.917191229E+02  1.109962533E+03  1.250000000E+02  0.00000E+00  9.000E+00
       1     1     1     2   502     0 -1.462159221E+02 -1.903375839E+01 -2.305781367E+02  2.736926322E+02  4.672030912E-06  0.00000E+00  9.000E+00
#rwgt            1           1   2.9399484507204629E-002           1      336789           0
</event>
<event>
      5   9999  3.19816E-02  8.20144E+01 -1.00000E+00  1.27829E-01
      21    -1     0     0   511   501  0.000000000E+00  0.000000000E+00  2.769336492E+02  2.769336492E+02  0.000000000E+00  0.00000E+00  9.000E+00
      21    -1     0     0   501   502  0.000000000E+00  0.000000000E+00 -6.640474509E+02  6.640474509E+02  0.000000000E+00  0.00000E+00  9.000E+00
      25     1     1     2     0     0  5.960183310E+01  2.935555005E+02 -4.640675645E+02  5.663134422E+02  1.250000000E+02  0.00000E+00  9.000E+00
      25     1     1     2     0     0  6.073286660E-01 -2.378669364E+02  1.042564135E+02  2.882281180E+02  1.250000000E+02  0.00000E+00  9.000E+00
      21     1     1     2   511   502 -6.020916177E+01 -5.568856409E+01 -2.730265061E+01  8.643953992E+01  1.118282261E-06  0.00000E+00  9.000E+00
#rwgt            1           1   2.7581242851696320E-002           1      336866           0
</event>
<event>
      5   9999  3.31983E-02  2.11046E+02 -1.00000E+00  1.10805E-01
      21    -1     0     0   502   501  0.000000000E+00  0.000000000E+00  1.208922443E+03  1.208922443E+03  0.000000000E+00  0.00000E+00  9.000E+00
       2    -1     0     0   501     0  0.000000000E+00  0.000000000E+00 -1.981411678E+03  1.981411678E+03  0.000000000E+00  0.00000E+00  9.000E+00
      25     1     1     2     0     0  8.244700998E+02 -5.937648596E+02 -4.119579426E+02  1.103468169E+03  1.250000000E+02  0.00000E+00  9.000E+00
      25     1     1     2     0     0 -8.822830872E+02  7.967380502E+02  4.287099787E+02  1.269894567E+03  1.250000000E+02  0.00000E+00  9.000E+00
       2     1     1     2   502     0  5.781298749E+01 -2.029731906E+02 -7.892412715E+02  8.169713840E+02  1.525878906E-05  0.00000E+00  9.000E+00
#rwgt            1           1   7.7964597940644947E-002           1      336938           0
</event>
<event>
      5   9999  3.19816E-02  4.37242E+01 -1.00000E+00  1.42482E-01
      21    -1     0     0   502   501  0.000000000E+00  0.000000000E+00  7.563013423E+02  7.563013423E+02  0.000000000E+00  0.00000E+00  9.000E+00
       2    -1     0     0   501     0  0.000000000E+00  0.000000000E+00 -8.359001898E+01  8.359001898E+01  0.000000000E+00  0.00000E+00  9.000E+00
      25     1     1     2     0     0  1.446338717E+01 -7.046456990E+01  3.947660578E+02  4.202852431E+02  1.250000000E+02  0.00000E+00  9.000E+00
      25     1     1     2     0     0  2.921806416E+01  6.853095043E+01  3.245633715E+02  3.556916763E+02  1.250000000E+02  0.00000E+00  9.000E+00
       2     1     1     2   502     0 -4.368145134E+01  1.933619472E+00 -4.661810600E+01  6.391444189E+01  1.651812370E-06  0.00000E+00  9.000E+00
#rwgt            1           1   3.4097859598313136E-002           1      336985           0
</event>
<event>
      5   9999  3.19816E-02  2.00853E+02 -1.00000E+00  1.11581E-01
      21    -1     0     0   502   511  0.000000000E+00  0.000000000E+00  1.148533075E+03  1.148533075E+03  0.000000000E+00  0.00000E+00  9.000E+00
      21    -1     0     0   501   502  0.000000000E+00  0.000000000E+00 -2.323556334E+02  2.323556334E+02  0.000000000E+00  0.00000E+00  9.000E+00
      25     1     1     2     0     0  1.740383954E+02  2.234374633E+02  2.093777880E+02  3.737348273E+02  1.250000000E+02  0.00000E+00  9.000E+00
      25     1     1     2     0     0 -1.271724839E+02 -4.187465487E+02  2.771581281E+02  5.328819200E+02  1.250000000E+02  0.00000E+00  9.000E+00
      21     1     1     2   501   511 -4.686591150E+01  1.953090855E+02  4.296415261E+02  4.742719615E+02  5.394796609E-06  0.00000E+00  9.000E+00
#rwgt            2          11   2.6488421623934448E-003           1      337103           0
</event>
<event>
      5   9999  3.19816E-02  2.03487E+01 -1.00000E+00  1.65752E-01
      21    -1     0     0   502   512  0.000000000E+00  0.000000000E+00  2.443290532E+02  2.443290532E+02  0.000000000E+00  0.00000E+00  9.000E+00
      21    -1     0     0   501   502  0.000000000E+00  0.000000000E+00 -3.626854820E+02  3.626854820E+02  0.000000000E+00  0.00000E+00  9.000E+00
      25     1     1     2     0     0  6.963602967E+01 -1.188150739E+02  1.655955306E+02  2.490242522E+02  1.250000000E+02  0.00000E+00  9.000E+00
      25     1     1     2     0     0 -5.162171775E+01  1.282784703E+02 -2.813226550E+02  3.374723750E+02  1.250000000E+02  0.00000E+00  9.000E+00
      21     1     1     2   501   512 -1.801431192E+01 -9.463396394E+00 -2.629304379E+00  2.051790795E+01  4.182955279E-07  0.00000E+00  9.000E+00
#rwgt            1           1   3.0383350012280680E-002           1      337123           0
</event>
<event>
      5   9999  3.19816E-02  2.35163E+02 -1.00000E+00  1.09146E-01
      -2    -1     0     0     0   501  0.000000000E+00  0.000000000E+00  2.469530569E+02  2.469530569E+02  0.000000000E+00  0.00000E+00  9.000E+00
      21    -1     0     0   501   502  0.000000000E+00  0.000000000E+00 -5.831537865E+02  5.831537865E+02  0.000000000E+00  0.00000E+00  9.000E+00
      25     1     1     2     0     0  3.427272509E+01  1.091272861E+01 -9.326227140E+01  1.600517373E+02  1.250000000E+02  0.00000E+00  9.000E+00
      25     1     1     2     0     0  1.996994735E+02 -3.454688451E+01 -3.404664965E+02  4.154705793E+02  1.250000000E+02  0.00000E+00  9.000E+00
      -2     1     1     2     0   502 -2.339721986E+02  2.363415590E+01  9.752803839E+01  2.545845269E+02  3.015782986E-06  0.00000E+00  9.000E+00
#rwgt            1           1   3.8903584291586392E-002           1      337271           0
</event>
<event>
      5   9999  3.19816E-02  7.61453E+01 -1.00000E+00  1.29396E-01
      21    -1     0     0   502   511  0.000000000E+00  0.000000000E+00  1.773711085E+03  1.773711085E+03  0.000000000E+00  0.00000E+00  9.000E+00
      21    -1     0     0   501   502  0.000000000E+00  0.000000000E+00 -7.315598125E+02  7.315598125E+02  0.000000000E+00  0.00000E+00  9.000E+00
      25     1     1     2     0     0 -1.722502674E+02  5.644787743E+02  7.535169496E+02  9.652560462E+02  1.250000000E+02  0.00000E+00  9.000E+00
      25     1     1     2     0     0  1.471075623E+02 -4.926041708E+02 -5.117129870E+02  7.360534526E+02  1.250000000E+02  0.00000E+00  9.000E+00
      21     1     1     2   501   511  2.514270505E+01 -7.187460346E+01  8.003473095E+02  8.039613984E+02  1.078959322E-05  0.00000E+00  9.000E+00
#rwgt            1           1   3.1056510338833408E-002           1      337315           0
</event>
<event>
      5   9999  3.19816E-02  7.37332E+01 -1.00000E+00  1.30088E-01
      21    -1     0     0   502   501  0.000000000E+00  0.000000000E+00  6.413470232E+01  6.413470232E+01  0.000000000E+00  0.00000E+00  9.000E+00
      21    -1     0     0   512   502  0.000000000E+00  0.000000000E+00 -1.432947337E+03  1.432947337E+03  0.000000000E+00  0.00000E+00  9.000E+00
      25     1     1     2     0     0  1.230690262E+02 -1.553532853E+02 -3.113585077E+02  3.896790330E+02  1.250000000E+02  0.00000E+00  9.000E+00
      25     1     1     2     0     0 -1.874012448E+02  1.193262542E+02 -8.044395285E+02  8.438636955E+02  1.250000000E+02  0.00000E+00  9.000E+00
      21     1     1     2   512   501  6.433221856E+01  3.602703114E+01 -2.530145987E+02  2.635393111E+02  2.697398305E-06  0.00000E+00  9.000E+00
#rwgt            1           1   2.7952203443148301E-002           1      337469           0
</event>
<event>
      5   9999  3.19816E-02  2.81399E+01 -1.00000E+00  1.54996E-01
      21    -1     0     0   502   501  0.000000000E+00  0.000000000E+00  2.827730818E+02  2.827730818E+02  0.000000000E+00  0.00000E+00  9.000E+00
      21    -1     0     0   501   511  0.000000000E+00  0.000000000E+00 -2.094837898E+02  2.094837898E+02  0.000000000E+00  0.00000E+00  9.000E+00
      25     1     1     2     0     0  8.475511904E+01  2.617103945E+01 -1.079085774E+02  1.874502990E+02  1.250000000E+02  0.00000E+00  9.000E+00
      25     1     1     2     0     0 -5.669351905E+01 -2.407373769E+01  2.178448118E+02  2.586021307E+02  1.250000000E+02  0.00000E+00  9.000E+00
      21     1     1     2   502   511 -2.806159999E+01 -2.097301763E+00 -3.664694246E+01  4.620444200E+01  8.259061849E-07  0.00000E+00  9.000E+00
#rwgt            1           1   2.5858543689441123E-002           1      337574           0
</event>
<event>
      5   9999  3.19816E-02  5.70360E+01 -1.00000E+00  1.35890E-01
      21    -1     0     0   502   512  0.000000000E+00  0.000000000E+00  8.129729447E+02  8.129729447E+02  0.000000000E+00  0.00000E+00  9.000E+00
      21    -1     0     0   501   502  0.000000000E+00  0.000000000E+00 -4.498156985E+02  4.498156985E+02  0.000000000E+00  0.00000E+00  9.000E+00
      25     1     1     2     0     0  1.369548220E+02 -1.586391971E+02 -3.731519782E+02  4.458591896E+02  1.250000000E+02  0.00000E+00  9.000E+00
      25     1     1     2     0     0 -1.654243019E+02  2.080618360E+02  5.721677378E+02  6.431608255E+02  1.250000000E+02  0.00000E+00  9.000E+00
      21     1     1     2   501   512  2.846947987E+01 -4.942263888E+01  1.641414866E+02  1.737686281E+02  0.000000000E+00  0.00000E+00  9.000E+00
#rwgt            1           1   2.9338495765054949E-002           1      337702           0
</event>
<event>
      5   9999  3.19816E-02  1.30849E+02 -1.00000E+00  1.18794E-01
      21    -1     0     0   502   511  0.000000000E+00  0.000000000E+00  4.926098050E+02  4.926098050E+02  0.000000000E+00  0.00000E+00  9.000E+00
      21    -1     0     0   501   502  0.000000000E+00  0.000000000E+00 -6.718033948E+02  6.718033948E+02  0.000000000E+00  0.00000E+00  9.000E+00
      25     1     1     2     0     0  2.673504409E+02  2.293347817E+02  1.339473453E+02  3.970360080E+02  1.250000000E+02  0.00000E+00  9.000E+00
      25     1     1     2     0     0 -3.907776064E+02 -2.727773828E+02 -3.783314516E+02  6.211878343E+02  1.250000000E+02  0.00000E+00  9.000E+00
      21     1     1     2   501   511  1.234271655E+02  4.344260108E+01  6.519051653E+01  1.461893574E+02  2.132480600E-06  0.00000E+00  9.000E+00
#rwgt            1           1   3.0768432933357133E-002           1      337821           0
</event>
<event>
      5   9999  3.19816E-02  6.52186E+01 -1.00000E+00  1.32796E-01
      21    -1     0     0   502   512  0.000000000E+00  0.000000000E+00  1.669024302E+03  1.669024302E+03  0.000000000E+00  0.00000E+00  9.000E+00
      21    -1     0     0   501   502  0.000000000E+00  0.000000000E+00 -3.714218639E+02  3.714218639E+02  0.000000000E+00  0.00000E+00  9.000E+00
      25     1     1     2     0     0  4.365400952E+02  3.480937330E+02  8.702258509E+02  1.041467490E+03  1.250000000E+02  0.00000E+00  9.000E+00
      25     1     1     2     0     0 -4.652738179E+02 -4.066415105E+02  6.842262781E+01  6.341480108E+02  1.250000000E+02  0.00000E+00  9.000E+00
      21     1     1     2   501   512  2.873372269E+01  5.854777749E+01  3.589539595E+02  3.648306649E+02  8.529922400E-06  0.00000E+00  9.000E+00
#rwgt            1           1   1.5334941032569683E-002           1      337896           0
</event>
<event>
      5   9999  3.19816E-02  5.00428E+01 -1.00000E+00  1.39054E-01
      21    -1     0     0   511   501  0.000000000E+00  0.000000000E+00  1.544724829E+03  1.544724829E+03  0.000000000E+00  0.00000E+00  9.000E+00
      21    -1     0     0   501   502  0.000000000E+00  0.000000000E+00 -2.297779969E+02  2.297779969E+02  0.000000000E+00  0.00000E+00  9.000E+00
      25     1     1     2     0     0  1.086265734E+02 -5.673901839E+02  6.744957072E+02  8.968281955E+02  1.250000000E+02  0.00000E+00  9.000E+00
      25     1     1     2     0     0 -1.153167091E+02  5.177966308E+02  5.499650629E+02  7.742724744E+02  1.250000000E+02  0.00000E+00  9.000E+00
      21     1     1     2   511   502  6.690135702E+00  4.959355319E+01  9.048606177E+01  1.034021557E+02  2.132480600E-06  0.00000E+00  9.000E+00
#rwgt            1           1   2.3665132379382718E-002           1      337974           0
</event>
<event>
      5   9999  3.19816E-02  3.97339E+02 -1.00000E+00  1.01773E-01
       2    -1     0     0   502     0  0.000000000E+00  0.000000000E+00  1.904479703E+03  1.904479703E+03  0.000000000E+00  0.00000E+00  9.000E+00
      21    -1     0     0   501   502  0.000000000E+00  0.000000000E+00 -4.941085759E+02  4.941085759E+02  0.000000000E+00  0.00000E+00  9.000E+00
      25     1     1     2     0     0  1.506909032E+02  7.237089049E+01  6.611264233E+01  2.189547341E+02  1.250000000E+02  0.00000E+00  9.000E+00
      25     1     1     2     0     0 -6.338706949E+00  2.978191959E+02 -3.282626570E+02  4.605625090E+02  1.250000000E+02  0.00000E+00  9.000E+00
       2     1     1     2   501     0 -1.443521963E+02 -3.701900864E+02  1.672521142E+03  1.719071036E+03  2.157918644E-05  0.00000E+00  9.000E+00
#rwgt            2          18   6.1378730837740184E-003           1      338116           0
</event>
<event>
      5   9999  3.36514E-02  1.75435E+01 -1.00000E+00  1.71206E-01
      21    -1     0     0   511   501  0.000000000E+00  0.000000000E+00  2.231948845E+03  2.231948845E+03  0.000000000E+00  0.00000E+00  9.000E+00
      21    -1     0     0   501   502  0.000000000E+00  0.000000000E+00 -6.068008334E+01  6.068008334E+01  0.000000000E+00  0.00000E+00  9.000E+00
      25     1     1     2     0     0 -7.431912692E+01 -2.397470943E+02  3.724523706E+02  4.662057166E+02  1.250000000E+02  0.00000E+00  9.000E+00
      25     1     1     2     0     0  8.028198968E+01  2.562461723E+02  1.740564365E+03  1.765586760E+03  1.250000000E+02  0.00000E+00  9.000E+00
      21     1     1     2   511   502 -5.962862765E+00 -1.649907805E+01  5.825202632E+01  6.083645189E+01  9.536743164E-07  0.00000E+00  9.000E+00
#rwgt            1           1   9.3591624034097237E-002           1      338165           0
</event>
<event>
      5   9999  3.19816E-02  2.57689E+02 -1.00000E+00  1.07783E-01
      21    -1     0     0   502   501  0.000000000E+00  0.000000000E+00  5.725221908E+02  5.725221908E+02  0.000000000E+00  0.00000E+00  9.000E+00
      21    -1     0     0   501   512  0.000000000E+00  0.000000000E+00 -2.665230794E+03  2.665230794E+03  0.000000000E+00  0.00000E+00  9.000E+00
      25     1     1     2     0     0 -2.966094568E+02  8.275885823E+02 -4.833690001E+02  1.011014650E+03  1.250000000E+02  0.00000E+00  9.000E+00
      25     1     1     2     0     0  4.905662700E+02 -9.972483095E+02 -7.938120270E+02  1.371467094E+03  1.250000000E+02  0.00000E+00  9.000E+00
      21     1     1     2   502   512 -1.939568131E+02  1.696597273E+02 -8.155275757E+02  8.552712407E+02  1.078959322E-05  0.00000E+00  9.000E+00
#rwgt            2          11   1.8841746892795507E-003           1      338355           0
</event>
<event>
      5   9999  3.19816E-02  1.63414E+01 -1.00000E+00  1.73949E-01
      21    -1     0     0   511   501  0.000000000E+00  0.000000000E+00  4.331625494E+02  4.331625494E+02  0.000000000E+00  0.00000E+00  9.000E+00
      21    -1     0     0   501   502  0.000000000E+00  0.000000000E+00 -6.643370634E+02  6.643370634E+02  0.000000000E+00  0.00000E+00  9.000E+00
      25     1     1     2     0     0 -3.152193457E+02  6.831248468E+01 -5.185131208E+02  6.233062553E+02  1.250000000E+02  0.00000E+00  9.000E+00
      25     1     1     2     0     0  3.283039883E+02 -7.810197124E+01  2.670062372E+02  4.481079751E+02  1.250000000E+02  0.00000E+00  9.000E+00
      21     1     1     2   511   502 -1.308464257E+01  9.789486559E+00  2.033236964E+01  2.608538237E+01  3.371747881E-07  0.00000E+00  9.000E+00
#rwgt            1           1   2.4474529140116885E-002           1      338375           0
</event>
<event>
      5   9999  3.19816E-02  4.96067E+00 -1.00000E+00  2.43226E-01
      21    -1     0     0   502   512  0.000000000E+00  0.000000000E+00  1.027151080E+03  1.027151080E+03  0.000000000E+00  0.00000E+00  9.000E+00
      21    -1     0     0   501   502  0.000000000E+00  0.000000000E+00 -1.700064231E+02  1.700064231E+02  0.000000000E+00  0.00000E+00  9.000E+00
      25     1     1     2     0     0 -6.821513552E+01  2.948941876E+02  7.675641111E+01  3.363516512E+02  1.250000000E+02  0.00000E+00  9.000E+00
      25     1     1     2     0     0  6.796496454E+01 -2.998485504E+02  6.454977962E+02  7.258242174E+02  1.250000000E+02  0.00000E+00  9.000E+00
      21     1     1     2   501   512  2.501709728E-01  4.954362783E+00  1.348904499E+02  1.349816350E+02  1.907348633E-06  0.00000E+00  9.000E+00
#rwgt            1           1   3.3615913809546288E-002           1      338534           0
</event>
<event>
      5   9999  3.19816E-02  3.73446E+01 -1.00000E+00  1.46715E-01
      21    -1     0     0   502   511  0.000000000E+00  0.000000000E+00  1.918427983E+02  1.918427983E+02  0.000000000E+00  0.00000E+00  9.000E+00
      21    -1     0     0   501   502  0.000000000E+00  0.000000000E+00 -7.953645538E+02  7.953645538E+02  0.000000000E+00  0.00000E+00  9.000E+00
      25     1     1     2     0     0 -9.426333536E+01  3.699678207E+01 -7.222243958E+02  7.399239259E+02  1.250000000E+02  0.00000E+00  9.000E+00
      25     1     1     2     0     0  9.878121299E+01 -7.406707137E+01  1.144806978E+02  2.097009520E+02  1.250000000E+02  0.00000E+00  9.000E+00
      21     1     1     2   501   511 -4.517877624E+00  3.707028930E+01  4.221942425E+00  3.758247417E+01  6.795975119E-07  0.00000E+00  9.000E+00
#rwgt            1           1   1.6393782559169116E-002           1      338877           0
</event>
<event>
      5   9999  3.19816E-02  1.22728E+02 -1.00000E+00  1.19955E-01
      21    -1     0     0   502   501  0.000000000E+00  0.000000000E+00  3.364876032E+02  3.364876032E+02  0.000000000E+00  0.00000E+00  9.000E+00
       1    -1     0     0   501     0  0.000000000E+00  0.000000000E+00 -8.973923559E+02  8.973923559E+02  0.000000000E+00  0.00000E+00  9.000E+00
      25     1     1     2     0     0 -1.118997717E+02  4.384813822E+02 -9.577869878E+01  4.791513754E+02  1.250000000E+02  0.00000E+00  9.000E+00
      25     1     1     2     0     0  2.201761052E+02 -3.807016760E+02 -2.919285833E+02  5.424560638E+02  1.250000000E+02  0.00000E+00  9.000E+00
       1     1     1     2   502     0 -1.082763335E+02 -5.777970617E+01 -1.731974706E+02  2.122725198E+02  0.000000000E+00  0.00000E+00  9.000E+00
#rwgt            1           1   2.3982855551641834E-002           1      338964           0
</event>
<event>
      5   9999  3.19816E-02  2.24187E+01 -1.00000E+00  1.62380E-01
      21    -1     0     0   502   501  0.000000000E+00  0.000000000E+00  1.933596008E+03  1.933596008E+03  0.000000000E+00  0.00000E+00  9.000E+00
      21    -1     0     0   511   502  0.000000000E+00  0.000000000E+00 -7.100978066E+02  7.100978066E+02  0.000000000E+00  0.00000E+00  9.000E+00
      25     1     1     2     0     0  7.726415523E+02 -4.652569997E+01 -3.008174443E+02  8.397950606E+02  1.250000000E+02  0.00000E+00  9.000E+00
      25     1     1     2     0     0 -7.504864922E+02  4.309772602E+01  1.574343785E+03  1.749077112E+03  1.250000000E+02  0.00000E+00  9.000E+00
      21     1     1     2   511   501 -2.215506013E+01  3.427973949E+00 -5.002813958E+01  5.482164212E+01  1.168007728E-06  0.00000E+00  9.000E+00
#rwgt            1           1   2.7469499558153088E-002           1      339090           0
</event>
<event>
      5   9999  3.19816E-02  8.38050E+01 -1.00000E+00  1.27380E-01
      21    -1     0     0   502   501  0.000000000E+00  0.000000000E+00  5.740058089E+02  5.740058089E+02  0.000000000E+00  0.00000E+00  9.000E+00
      21    -1     0     0   512   502  0.000000000E+00  0.000000000E+00 -8.535449640E+02  8.535449640E+02  0.000000000E+00  0.00000E+00  9.000E+00
      25     1     1     2     0     0  4.151120293E+02  3.767610925E+02 -3.944110403E+02  6.967438457E+02  1.250000000E+02  0.00000E+00  9.000E+00
      25     1     1     2     0     0 -4.798338843E+02 -3.235224295E+02  1.863159772E+02  6.206818527E+02  1.250000000E+02  0.00000E+00  9.000E+00
      21     1     1     2   512   501  6.472185500E+01 -5.323866306E+01 -7.144409199E+01  1.101250745E+02  1.651812370E-06  0.00000E+00  9.000E+00
#rwgt            1           1   3.4120158653748386E-002           1      339332           0
</event>
<event>
      5   9999  3.19816E-02  6.08347E+01 -1.00000E+00  1.34384E-01
      21    -1     0     0   502   501  0.000000000E+00  0.000000000E+00  3.441491852E+02  3.441491852E+02  0.000000000E+00  0.00000E+00  9.000E+00
      21    -1     0     0   501   511  0.000000000E+00  0.000000000E+00 -8.023520830E+02  8.023520830E+02  0.000000000E+00  0.00000E+00  9.000E+00
      25     1     1     2     0     0  2.021473293E+02  1.850678110E+02  2.002791620E+02  3.617324704E+02  1.250000000E+02  0.00000E+00  9.000E+00
      25     1     1     2     0     0 -2.444686706E+02 -2.287686538E+02 -6.099799628E+02  7.069657580E+02  1.250000000E+02  0.00000E+00  9.000E+00
      21     1     1     2   502   511  4.232134130E+01  4.370084283E+01 -4.850209700E+01  7.780303983E+01  9.536743164E-07  0.00000E+00  9.000E+00
#rwgt            1           1   2.7935924332654249E-002           1      339430           0
</event>
<event>
      5   9999  3.19816E-02  1.93081E+02 -1.00000E+00  1.12208E-01
       1    -1     0     0   502     0  0.000000000E+00  0.000000000E+00  1.051482288E+03  1.051482288E+03  0.000000000E+00  0.00000E+00  9.000E+00
      21    -1     0     0   501   502  0.000000000E+00  0.000000000E+00 -1.092544827E+03  1.092544827E+03  0.000000000E+00  0.00000E+00  9.000E+00
      25     1     1     2     0     0  3.512861402E+02 -3.949264118E+02 -9.137011017E+02  1.062940980E+03  1.250000000E+02  0.00000E+00  9.000E+00
      25     1     1     2     0     0 -3.754840653E+02  2.033681528E+02  6.188799611E+02  7.622232581E+02  1.250000000E+02  0.00000E+00  9.000E+00
       1     1     1     2   501     0  2.419792508E+01  1.915582590E+02  2.537586020E+02  3.188628769E+02  2.697398305E-06  0.00000E+00  9.000E+00
#rwgt            2          17   3.9685720616351126E-004           1      339865           0
</event>
<event>
      5   9999  3.19816E-02  6.53424E+01 -1.00000E+00  1.32753E-01
      21    -1     0     0   502   501  0.000000000E+00  0.000000000E+00  2.348524559E+02  2.348524559E+02  0.000000000E+00  0.00000E+00  9.000E+00
      21    -1     0     0   501   511  0.000000000E+00  0.000000000E+00 -7.100774372E+02  7.100774372E+02  0.000000000E+00  0.00000E+00  9.000E+00
      25     1     1     2     0     0  1.523852214E+02  1.031288370E+02  1.003414223E+02  2.440291248E+02  1.250000000E+02  0.00000E+00  9.000E+00
      25     1     1     2     0     0 -1.239662396E+02 -1.619675746E+02 -1.784561436E+02  2.984505302E+02  1.250000000E+02  0.00000E+00  9.000E+00
      21     1     1     2   502   511 -2.841898171E+01  5.883873760E+01 -3.971102600E+02  4.024502381E+02  0.000000000E+00  0.00000E+00  9.000E+00
#rwgt            1           1   2.7134936486240272E-002           1      339884           0
</event>
<event>
      5   9999  3.19816E-02  2.41879E+01 -1.00000E+00  1.59833E-01
      21    -1     0     0   502   501  0.000000000E+00  0.000000000E+00  2.729868396E+02  2.729868396E+02  0.000000000E+00  0.00000E+00  9.000E+00
      21    -1     0     0   501   512  0.000000000E+00  0.000000000E+00 -1.291243394E+03  1.291243394E+03  0.000000000E+00  0.00000E+00  9.000E+00
      25     1     1     2     0     0 -5.233986796E+02 -1.731246657E+01 -6.267841748E+02  8.262743498E+02  1.250000000E+02  0.00000E+00  9.000E+00
      25     1     1     2     0     0  5.104572865E+02  3.774716592E+01 -2.303800761E+02  5.750577965E+02  1.250000000E+02  0.00000E+00  9.000E+00
      21     1     1     2   502   512  1.294139307E+01 -2.043469935E+01 -1.610923038E+02  1.628980875E+02  3.303624740E-06  0.00000E+00  9.000E+00
#rwgt            1           1   2.9566902963585540E-002           1      339920           0
</event>
<event>
      5   9999  3.19816E-02  8.33905E+01 -1.00000E+00  1.27483E-01
      21    -1     0     0   502   501  0.000000000E+00  0.000000000E+00  3.152002871E+02  3.152002871E+02  0.000000000E+00  0.00000E+00  9.000E+00
      21    -1     0     0   511   502  0.000000000E+00  0.000000000E+00 -2.357858764E+02  2.357858764E+02  0.000000000E+00  0.00000E+00  9.000E+00
      25     1     1     2     0     0 -8.097081442E+01 -8.549010588E+01 -2.967566222E+01  1.742712711E+02  1.250000000E+02  0.00000E+00  9.000E+00
      25     1     1     2     0     0  7.532705240E+00  1.249972208E+02  1.906272165E+02  2.600861060E+02  1.250000000E+02  0.00000E+00  9.000E+00
      21     1     1     2   511   501  7.343810918E+01 -3.950711497E+01 -8.153714363E+01  1.166287863E+02  2.861022949E-06  0.00000E+00  9.000E+00
#rwgt            1           1   2.9383108081369989E-002           1      340113           0
</event>
<event>
      5   9999  3.19816E-02  8.99854E+00 -1.00000E+00  2.01208E-01
      21    -1     0     0   502   501  0.000000000E+00  0.000000000E+00  1.470336368E+03  1.470336368E+03  0.000000000E+00  0.00000E+00  9.000E+00
      21    -1     0     0   512   502  0.000000000E+00  0.000000000E+00 -1.597633679E+02  1.597633679E+02  0.000000000E+00  0.00000E+00  9.000E+00
      25     1     1     2     0     0  1.544592665E+02 -3.890474042E+02  7.157888255E+02  8.385667477E+02  1.250000000E+02  0.00000E+00  9.000E+00
      25     1     1     2     0     0 -1.493417780E+02  3.964491012E+02  6.219940224E+02  7.628737906E+02  1.250000000E+02  0.00000E+00  9.000E+00
      21     1     1     2   512   501 -5.117488482E+00 -7.401696972E+00 -2.720984761E+01  2.865919771E+01  8.259061849E-07  0.00000E+00  9.000E+00
#rwgt            1           1   3.3847296378207589E-002           1      340147           0
</event>
<event>
      5   9999  3.19816E-02  9.51603E+01 -1.00000E+00  1.24805E-01
      21    -1     0     0   502   511  0.000000000E+00  0.000000000E+00  1.769855197E+02  1.769855197E+02  0.000000000E+00  0.00000E+00  9.000E+00
      21    -1     0     0   501   502  0.000000000E+00  0.000000000E+00 -6.639956142E+02  6.639956142E+02  0.000000000E+00  0.00000E+00  9.000E+00
      25     1     1     2     0     0 -1.661103686E+01 -8.342933290E+01 -3.969378287E+02  4.247599557E+02  1.250000000E+02  0.00000E+00  9.000E+00
      25     1     1     2     0     0 -6.309241787E+00  1.757880973E+02 -1.832028967E+02  2.830716571E+02  1.250000000E+02  0.00000E+00  9.000E+00
      21     1     1     2   501   511  2.292027865E+01 -9.235876444E+01  9.313063097E+01  1.331495211E+02  1.907348633E-06  0.00000E+00  9.000E+00
#rwgt            1           1   2.7279715995776759E-002           1      340350           0
</event>
<event>
      5   9999  3.19816E-02  6.51305E+00 -1.00000E+00  2.20077E-01
      21    -1     0     0   502   501  0.000000000E+00  0.000000000E+00  4.163285427E+01  4.163285427E+01  0.000000000E+00  0.00000E+00  9.000E+00
       2    -1     0     0   501     0  0.000000000E+00  0.000000000E+00 -3.140121363E+03  3.140121363E+03  0.000000000E+00  0.00000E+00  9.000E+00
      25     1     1     2     0     0 -8.647200928E+01 -2.072959316E+02 -5.389764365E+02  5.971344997E+02  1.250000000E+02  0.00000E+00  9.000E+00
      25     1     1     2     0     0  8.448749266E+01  2.134992784E+02 -1.349446932E+03  1.374537050E+03  1.250000000E+02  0.00000E+00  9.000E+00
       2     1     1     2   502     0  1.984516618E+00 -6.203346820E+00 -1.210065139E+03  1.210082667E+03  0.000000000E+00  0.00000E+00  9.000E+00
#rwgt            1           1   2.4188245497609975E-002           1      340400           0
</event>
<event>
      5   9999  3.19816E-02  2.54049E+02 -1.00000E+00  1.07992E-01
       1    -1     0     0   502     0  0.000000000E+00  0.000000000E+00  8.579336612E+02  8.579336612E+02  0.000000000E+00  0.00000E+00  9.000E+00
      21    -1     0     0   501   502  0.000000000E+00  0.000000000E+00 -1.457142685E+03  1.457142685E+03  0.000000000E+00  0.00000E+00  9.000E+00
      25     1     1     2     0     0  1.199503761E+02 -1.982947216E+02 -1.364896478E+03  1.390063411E+03  1.250000000E+02  0.00000E+00  9.000E+00
      25     1     1     2     0     0  4.627186334E+01  6.172605988E+00  1.713897658E+01  1.345285506E+02  1.250000000E+02  0.00000E+00  9.000E+00
       1     1     1     2   501     0 -1.662222395E+02  1.921221156E+02  7.485484775E+02  7.904843853E+02  1.078959322E-05  0.00000E+00  9.000E+00
#rwgt            2          17   3.1165632889331536E-003           1      340749           0
</event>
<event>
      5   9999  3.19816E-02  3.69004E+01 -1.00000E+00  1.47047E-01
      21    -1     0     0   502   511  0.000000000E+00  0.000000000E+00  2.600609394E+02  2.600609394E+02  0.000000000E+00  0.00000E+00  9.000E+00
      21    -1     0     0   501   502  0.000000000E+00  0.000000000E+00 -1.818581286E+03  1.818581286E+03  0.000000000E+00  0.00000E+00  9.000E+00
      25     1     1     2     0     0 -5.968131033E+02 -8.739898950E+01 -1.125885924E+03  1.283381696E+03  1.250000000E+02  0.00000E+00  9.000E+00
      25     1     1     2     0     0  6.028405787E+02  1.238037455E+02 -4.228640476E+02  7.570885903E+02  1.250000000E+02  0.00000E+00  9.000E+00
      21     1     1     2   501   511 -6.027475460E+00 -3.640475601E+01 -9.770374894E+00  3.817193925E+01  9.830249847E-07  0.00000E+00  9.000E+00
#rwgt            1           1   2.8556639157385030E-002           1      340768           0
</event>
<event>
      5   9999  3.19816E-02  1.48783E+01 -1.00000E+00  1.77718E-01
      21    -1     0     0   502   501  0.000000000E+00  0.000000000E+00  1.897235169E+02  1.897235169E+02  0.000000000E+00  0.00000E+00  9.000E+00
      21    -1     0     0   512   502  0.000000000E+00  0.000000000E+00 -3.357943955E+02  3.357943955E+02  0.000000000E+00  0.00000E+00  9.000E+00
      25     1     1     2     0     0 -1.109663297E+02  1.071076864E+01  1.119671175E+02  2.014693086E+02  1.250000000E+02  0.00000E+00  9.000E+00
      25     1     1     2     0     0  9.719117150E+01 -5.088725291E+00 -1.609820436E+02  2.258588880E+02  1.250000000E+02  0.00000E+00  9.000E+00
      21     1     1     2   512   501  1.377515815E+01 -5.622043353E+00 -9.705595260E+01  9.818971580E+01  1.348699152E-06  0.00000E+00  9.000E+00
#rwgt            1           1   2.9814998968391102E-002           1      340930           0
</event>
<event>
      5   9999  3.19816E-02  5.73833E+01 -1.00000E+00  1.35746E-01
      21    -1     0     0   502   501  0.000000000E+00  0.000000000E+00  6.667136623E+02  6.667136623E+02  0.000000000E+00  0.00000E+00  9.000E+00
      21    -1     0     0   511   502  0.000000000E+00  0.000000000E+00 -6.068999331E+02  6.068999331E+02  0.000000000E+00  0.00000E+00  9.000E+00
      25     1     1     2     0     0 -1.289491482E+02  1.609245670E+02 -6.459320105E+01  2.496435072E+02  1.250000000E+02  0.00000E+00  9.000E+00
      25     1     1     2     0     0  8.398264052E+01 -1.252754437E+02  5.555248455E+02  5.890499763E+02  1.250000000E+02  0.00000E+00  9.000E+00
      21     1     1     2   511   501  4.496650766E+01 -3.564912330E+01 -4.311179153E+02  4.349201118E+02  0.000000000E+00  0.00000E+00  9.000E+00
#rwgt            1           1   2.5964329854055446E-002           1      341040           0
</event>
<event>
      5   9999  3.42870E-02  1.96766E+02 -1.00000E+00  1.11906E-01
       2    -1     0     0   502     0  0.000000000E+00  0.000000000E+00  1.811934304E+03  1.811934304E+03  0.000000000E+00  0.00000E+00  9.000E+00
      21    -1     0     0   501   502  0.000000000E+00  0.000000000E+00 -5.709427071E+02  5.709427071E+02  0.000000000E+00  0.00000E+00  9.000E+00
      25     1     1     2     0     0 -2.484477156E+02 -3.552352562E+01 -2.497094736E+02  3.754570674E+02  1.250000000E+02  0.00000E+00  9.000E+00
      25     1     1     2     0     0  4.391073199E+02 -1.311395509E+01 -4.519478512E+01  4.589714400E+02  1.250000000E+02  0.00000E+00  9.000E+00
       2     1     1     2   501     0 -1.906596043E+02  4.863748071E+01  1.535895855E+03  1.548448503E+03  0.000000000E+00  0.00000E+00  9.000E+00
#rwgt            1           1   3.3678372692108098E-002           1      341123           0
</event>
<event>
      5   9999  3.19816E-02  3.66869E+01 -1.00000E+00  1.47208E-01
      21    -1     0     0   502   511  0.000000000E+00  0.000000000E+00  5.728939323E+02  5.728939323E+02  0.000000000E+00  0.00000E+00  9.000E+00
      21    -1     0     0   501   502  0.000000000E+00  0.000000000E+00 -1.279959461E+02  1.279959461E+02  0.000000000E+00  0.00000E+00  9.000E+00
      25     1     1     2     0     0  7.333042446E+01 -1.484456840E+02  2.621059559E+02  3.342723505E+02  1.250000000E+02  0.00000E+00  9.000E+00
      25     1     1     2     0     0 -4.518445170E+01  1.719772510E+02  4.232254368E+01  2.214362374E+02  1.250000000E+02  0.00000E+00  9.000E+00
      21     1     1     2   501   511 -2.814597275E+01 -2.353156705E+01  1.404694866E+02  1.451812904E+02  1.907348633E-06  0.00000E+00  9.000E+00
#rwgt            1           1   2.5454053244132732E-002           1      341206           0
</event>
<event>
      5   9999  3.19816E-02  1.23750E+01 -1.00000E+00  1.85634E-01
      21    -1     0     0   502   512  0.000000000E+00  0.000000000E+00  4.267284477E+02  4.267284477E+02  0.000000000E+00  0.00000E+00  9.000E+00
      21    -1     0     0   501   502  0.000000000E+00  0.000000000E+00 -2.613348958E+02  2.613348958E+02  0.000000000E+00  0.00000E+00  9.000E+00
      25     1     1     2     0     0  1.669106271E+02 -1.560549178E+02  6.206127750E+01  2.677478235E+02  1.250000000E+02  0.00000E+00  9.000E+00
      25     1     1     2     0     0 -1.545686921E+02  1.551512295E+02 -5.780156764E+01  2.587071816E+02  1.250000000E+02  0.00000E+00  9.000E+00
      21     1     1     2   501   512 -1.234193508E+01  9.036883351E-01  1.611338420E+02  1.616083384E+02  1.907348633E-06  0.00000E+00  9.000E+00
#rwgt            1           1   2.8917473135821423E-002           1      341275           0
</event>
<event>
      5   9999  3.19816E-02  5.48936E+01 -1.00000E+00  1.36801E-01
      21    -1     0     0   511   501  0.000000000E+00  0.000000000E+00  1.410301175E+03  1.410301175E+03  0.000000000E+00  0.00000E+00  9.000E+00
      21    -1     0     0   501   502  0.000000000E+00  0.000000000E+00 -7.421273578E+01  7.421273578E+01  0.000000000E+00  0.00000E+00  9.000E+00
      25     1     1     2     0     0 -4.044583848E+01 -1.119227483E+02  1.193586192E+03  1.205999820E+03  1.250000000E+02  0.00000E+00  9.000E+00
      25     1     1     2     0     0 -1.520164631E+00  7.653685121E+01  2.482827590E+01  1.486662160E+02  1.250000000E+02  0.00000E+00  9.000E+00
      21     1     1     2   511   502  4.196600311E+01  3.538589714E+01  1.176739713E+02  1.298478750E+02  1.907348633E-06  0.00000E+00  9.000E+00
#rwgt            1           1   2.4532353162066273E-002           1      341429           0
</event>
<event>
      5   9999  3.19816E-02  2.75671E+01 -1.00000E+00  1.55636E-01
      21    -1     0     0   502   501  0.000000000E+00  0.000000000E+00  2.373795613E+02  2.373795613E+02  0.000000000E+00  0.00000E+00  9.000E+00
      21    -1     0     0   512   502  0.000000000E+00  0.000000000E+00 -4.681070462E+02  4.681070462E+02  0.000000000E+00  0.00000E+00  9.000E+00
      25     1     1     2     0     0  2.350191303E+02 -2.317305460E+01 -1.687893838E+02  3.160472087E+02  1.250000000E+02  0.00000E+00  9.000E+00
      25     1     1     2     0     0 -2.367160211E+02 -4.341778216E+00  5.155461707E+01  2.726466655E+02  1.250000000E+02  0.00000E+00  9.000E+00
      21     1     1     2   512   501  1.696890795E+00  2.751483282E+01 -1.134927182E+02  1.167927333E+02  0.000000000E+00  0.00000E+00  9.000E+00
#rwgt            1           1   2.7444246044018426E-002           1      341596           0
</event>
<event>
      5   9999  3.19816E-02  5.34740E+01 -1.00000E+00  1.37431E-01
      21    -1     0     0   511   501  0.000000000E+00  0.000000000E+00  8.487184603E+01  8.487184603E+01  0.000000000E+00  0.00000E+00  9.000E+00
      21    -1     0     0   501   502  0.000000000E+00  0.000000000E+00 -1.095175201E+03  1.095175201E+03  0.000000000E+00  0.00000E+00  9.000E+00
      25     1     1     2     0     0  1.882308657E+01 -1.292552250E+02 -1.615917169E+02  2.424832051E+02  1.250000000E+02  0.00000E+00  9.000E+00
      25     1     1     2     0     0  6.560796939E+00  8.219014181E+01 -8.679211514E+02  8.807442243E+02  1.250000000E+02  0.00000E+00  9.000E+00
      21     1     1     2   511   502 -2.538388351E+01  4.706508323E+01  1.920951302E+01  5.681961802E+01  1.261592536E-06  0.00000E+00  9.000E+00
#rwgt            1           1   2.9576434764852826E-002           1      341690           0
</event>
<event>
      5   9999  3.19816E-02  1.42008E+02 -1.00000E+00  1.17344E-01
      21    -1     0     0   502   501  0.000000000E+00  0.000000000E+00  5.116880006E+02  5.116880006E+02  0.000000000E+00  0.00000E+00  9.000E+00
      21    -1     0     0   512   502  0.000000000E+00  0.000000000E+00 -4.240122277E+02  4.240122277E+02  0.000000000E+00  0.00000E+00  9.000E+00
      25     1     1     2     0     0  3.221370535E+02  2.615983755E+02  2.250507747E+01  4.339786513E+02  1.250000000E+02  0.00000E+00  9.000E+00
      25     1     1     2     0     0 -1.817528638E+02 -2.401816747E+02  1.228035065E+02  3.484638311E+02  1.250000000E+02  0.00000E+00  9.000E+00
      21     1     1     2   512   501 -1.403841897E+02 -2.141670085E+01 -5.763281108E+01  1.532577460E+02  2.697398305E-06  0.00000E+00  9.000E+00
#rwgt            1           1   2.8076284298145952E-002           1      341817           0
</event>
<event>
      5   9999  3.19816E-02  2.21198E+02 -1.00000E+00  1.10078E-01
      21    -1     0     0   502   511  0.000000000E+00  0.000000000E+00  2.524328515E+03  2.524328515E+03  0.000000000E+00  0.00000E+00  9.000E+00
      21    -1     0     0   501   502  0.000000000E+00  0.000000000E+00 -8.166895663E+01  8.166895663E+01  0.000000000E+00  0.00000E+00  9.000E+00
      25     1     1     2     0     0  1.628374187E+02  1.920490273E+01  5.261699216E+02  5.651235614E+02  1.250000000E+02  0.00000E+00  9.000E+00
      25     1     1     2     0     0 -8.721708622E+01 -2.270755421E+02  2.869999321E+02  3.964392551E+02  1.250000000E+02  0.00000E+00  9.000E+00
      21     1     1     2   501   511 -7.562033248E+01  2.078706394E+02  1.629489705E+03  1.644434655E+03  2.157918644E-05  0.00000E+00  9.000E+00
#rwgt            1           1   3.3979575781951349E-002           1      341859           0
</event>
<event>
      5   9999  3.19816E-02  3.27767E+01 -1.00000E+00  1.50417E-01
      21    -1     0     0   502   501  0.000000000E+00  0.000000000E+00  3.936074194E+02  3.936074194E+02  0.000000000E+00  0.00000E+00  9.000E+00
      21    -1     0     0   501   512  0.000000000E+00  0.000000000E+00 -4.105749972E+02  4.105749972E+02  0.000000000E+00  0.00000E+00  9.000E+00
      25     1     1     2     0     0 -1.221189854E+02 -3.443304012E+02  5.014291255E+01  3.893787147E+02  1.250000000E+02  0.00000E+00  9.000E+00
      25     1     1     2     0     0  1.405282810E+02  3.172119677E+02 -3.758164009E+01  3.706872130E+02  1.250000000E+02  0.00000E+00  9.000E+00
      21     1     1     2   502   512 -1.840929560E+01  2.711843345E+01 -2.952885022E+01  4.411648890E+01  0.000000000E+00  0.00000E+00  9.000E+00
#rwgt            1           1   2.9594714019435836E-002           1      341936           0
</event>
<event>
      5   9999  3.19816E-02  2.31166E+01 -1.00000E+00  1.61342E-01
      21    -1     0     0   502   501  0.000000000E+00  0.000000000E+00  3.420282024E+02  3.420282024E+02  0.000000000E+00  0.00000E+00  9.000E+00
      21    -1     0     0   501   511  0.000000000E+00  0.000000000E+00 -3.281760887E+02  3.281760887E+02  0.000000000E+00  0.00000E+00  9.000E+00
      25     1     1     2     0     0  2.773241824E+02  1.027360953E+02  3.442753244E+01  3.229143268E+02  1.250000000E+02  0.00000E+00  9.000E+00
      25     1     1     2     0     0 -2.563432271E+02 -9.303155494E+01  1.993517228E+01  3.006478528E+02  1.250000000E+02  0.00000E+00  9.000E+00
      21     1     1     2   502   511 -2.098095531E+01 -9.704540328E+00 -4.051059094E+01  4.664211152E+01  6.743495762E-07  0.00000E+00  9.000E+00
#rwgt            1           1   2.7346892509927893E-002           1      342144           0
</event>
<event>
      5   9999  3.19816E-02  3.87400E+02 -1.00000E+00  1.02105E-01
      21    -1     0     0   502   501  0.000000000E+00  0.000000000E+00  1.699886848E+03  1.699886848E+03  0.000000000E+00  0.00000E+00  9.000E+00
      21    -1     0     0   512   502  0.000000000E+00  0.000000000E+00 -1.132307203E+03  1.132307203E+03  0.000000000E+00  0.00000E+00  9.000E+00
      25     1     1     2     0     0  1.161157276E+02 -4.633823854E+02 -6.914537477E+02  8.496701610E+02  1.250000000E+02  0.00000E+00  9.000E+00
      25     1     1     2     0     0 -2.138632226E+02  8.851648843E+01  1.502247460E+03  1.525104940E+03  1.250000000E+02  0.00000E+00  9.000E+00
      21     1     1     2   512   501  9.774749500E+01  3.748658970E+02 -2.432140666E+02  4.574189498E+02  7.136645101E-06  0.00000E+00  9.000E+00
#rwgt            2          11   3.9483109679092901E-003           1      342302           0
</event>
<event>
      5   9999  3.19816E-02  3.51750E+01 -1.00000E+00  1.48390E-01
      21    -1     0     0   502   501  0.000000000E+00  0.000000000E+00  3.899399351E+02  3.899399351E+02  0.000000000E+00  0.00000E+00  9.000E+00
      21    -1     0     0   511   502  0.000000000E+00  0.000000000E+00 -7.024276977E+01  7.024276977E+01  0.000000000E+00  0.00000E+00  9.000E+00
      25     1     1     2     0     0  7.023467396E+01 -2.696003267E+01  1.600973425E+02  2.166008123E+02  1.250000000E+02  0.00000E+00  9.000E+00
      25     1     1     2     0     0 -4.531088047E+01  2.139026061E+00  1.604569898E+02  2.083964896E+02  1.250000000E+02  0.00000E+00  9.000E+00
      21     1     1     2   511   501 -2.492379349E+01  2.482100661E+01 -8.571669323E-01  3.518540303E+01  9.639220141E-07  0.00000E+00  9.000E+00
#rwgt            1           1   1.4071970746679230E-002           1      342322           0
</event>
<event>
      5   9999  3.19816E-02  1.87484E+01 -1.00000E+00  1.68718E-01
      21    -1     0     0   512   501  0.000000000E+00  0.000000000E+00  3.097501754E+02  3.097501754E+02  0.000000000E+00  0.00000E+00  9.000E+00
      21    -1     0     0   501   502  0.000000000E+00  0.000000000E+00 -1.909531024E+02  1.909531024E+02  0.000000000E+00  0.00000E+00  9.000E+00
      25     1     1     2     0     0 -1.248693162E+02  8.570302668E+01 -6.431214331E+01  2.066359278E+02  1.250000000E+02  0.00000E+00  9.000E+00
      25     1     1     2     0     0  1.411880411E+02 -9.493358120E+01  1.716517672E+02  2.720951616E+02  1.250000000E+02  0.00000E+00  9.000E+00
      21     1     1     2   512   502 -1.631872491E+01  9.230554524E+00  1.145744911E+01  2.197218832E+01  2.384185791E-07  0.00000E+00  9.000E+00
#rwgt            1           1   2.7587266058139309E-002           1      342410           0
</event>
<event>
      5   9999  3.19816E-02  4.57159E+01 -1.00000E+00  1.41332E-01
      21    -1     0     0   502   511  0.000000000E+00  0.000000000E+00  1.990627376E+03  1.990627376E+03  0.000000000E+00  0.00000E+00  9.000E+00
      21    -1     0     0   501   502  0.000000000E+00  0.000000000E+00 -1.708121924E+03  1.708121924E+03  0.000000000E+00  0.00000E+00  9.000E+00
      25     1     1     2     0     0 -7.232684263E+02  6.964330920E+02 -4.690925123E+01  1.012897698E+03  1.250000000E+02  0.00000E+00  9.000E+00
      25     1     1     2     0     0  6.885653474E+02 -7.261927468E+02 -9.619260688E+02  1.393701871E+03  1.250000000E+02  0.00000E+00  9.000E+00
      21     1     1     2   501   511  3.470307895E+01  2.975965482E+01  1.291340771E+03  1.292149731E+03  2.157918644E-05  0.00000E+00  9.000E+00
#rwgt            1           1   1.4715605207652971E-002           1      342562           0
</event>
<event>
      5   9999  3.19816E-02  1.32597E+02 -1.00000E+00  1.18556E-01
       1    -1     0     0   502     0  0.000000000E+00  0.000000000E+00  4.061949007E+02  4.061949007E+02  0.000000000E+00  0.00000E+00  9.000E+00
      21    -1     0     0   501   502  0.000000000E+00  0.000000000E+00 -3.391427207E+02  3.391427207E+02  0.000000000E+00  0.00000E+00  9.000E+00
      25     1     1     2     0     0 -9.878645138E+01  2.361708056E+02 -6.666389660E+01  2.925824457E+02  1.250000000E+02  0.00000E+00  9.000E+00
      25     1     1     2     0     0 -2.780489800E+01 -1.967177790E+02 -3.590668911E+01  2.374558638E+02  1.250000000E+02  0.00000E+00  9.000E+00
       1     1     1     2   501     0  1.265913494E+02 -3.945302662E+01  1.696227657E+02  2.152993119E+02  3.303624740E-06  0.00000E+00  9.000E+00
#rwgt            1           1   3.2967885752062165E-002           1      342791           0
</event>
<event>
      5   9999  3.19816E-02  1.21263E+02 -1.00000E+00  1.20176E-01
      21    -1     0     0   502   511  0.000000000E+00  0.000000000E+00  5.181984451E+02  5.181984451E+02  0.000000000E+00  0.00000E+00  9.000E+00
      21    -1     0     0   501   502  0.000000000E+00  0.000000000E+00 -1.009716586E+03  1.009716586E+03  0.000000000E+00  0.00000E+00  9.000E+00
      25     1     1     2     0     0  4.273752866E+02 -3.522205750E+00  1.462239446E+02  4.686880449E+02  1.250000000E+02  0.00000E+00  9.000E+00
      25     1     1     2     0     0 -5.102436876E+02 -8.500719770E+01 -7.324495296E+02  9.053629978E+02  1.250000000E+02  0.00000E+00  9.000E+00
      21     1     1     2   501   511  8.286840102E+01  8.852940345E+01  9.470744371E+01  1.538639888E+02  2.697398305E-06  0.00000E+00  9.000E+00
#rwgt            1           1   2.8299018184891476E-002           1      342872           0
</event>
<event>
      5   9999  3.19816E-02  3.38966E+01 -1.00000E+00  1.49445E-01
      21    -1     0     0   502   501  0.000000000E+00  0.000000000E+00  3.403875061E+02  3.403875061E+02  0.000000000E+00  0.00000E+00  9.000E+00
      21    -1     0     0   501   512  0.000000000E+00  0.000000000E+00 -2.192493666E+02  2.192493666E+02  0.000000000E+00  0.00000E+00  9.000E+00
      25     1     1     2     0     0  6.804168109E+01  1.128725670E+02  2.627377269E+02  3.194150902E+02  1.250000000E+02  0.00000E+00  9.000E+00
      25     1     1     2     0     0 -5.916047709E+01 -8.016007673E+01 -1.218376248E+02  2.009850909E+02  1.250000000E+02  0.00000E+00  9.000E+00
      21     1     1     2   502   512 -8.881204009E+00 -3.271249024E+01 -1.976196259E+01  3.923669160E+01  3.371747881E-07  0.00000E+00  9.000E+00
#rwgt            1           1   2.7976126812820679E-002           1      342948           0
</event>
<event>
      5   9999  3.19816E-02  2.61907E+01 -1.00000E+00  1.57252E-01
      21    -1     0     0   502   501  0.000000000E+00  0.000000000E+00  5.463266369E+02  5.463266369E+02  0.000000000E+00  0.00000E+00  9.000E+00
      -1    -1     0     0     0   502  0.000000000E+00  0.000000000E+00 -5.350688137E+02  5.350688137E+02  0.000000000E+00  0.00000E+00  9.000E+00
      25     1     1     2     0     0 -1.332337312E+02 -2.224743746E+02  4.536691906E+02  5.372958300E+02  1.250000000E+02  0.00000E+00  9.000E+00
      25     1     1     2     0     0  1.501683309E+02  2.024950820E+02 -3.558442282E+02  4.536572501E+02  1.250000000E+02  0.00000E+00  9.000E+00
      -1     1     1     2     0   501 -1.693459973E+01  1.997929253E+01 -8.656713918E+01  9.044237051E+01  0.000000000E+00  0.00000E+00  9.000E+00
#rwgt            1           1   2.8947668154844734E-002           1      343064           0
</event>
<event>
      5   9999  3.19816E-02  1.56170E+01 -1.00000E+00  1.75750E-01
      21    -1     0     0   502   501  0.000000000E+00  0.000000000E+00  2.860121757E+02  2.860121757E+02  0.000000000E+00  0.00000E+00  9.000E+00
       1    -1     0     0   501     0  0.000000000E+00  0.000000000E+00 -5.955729973E+02  5.955729973E+02  0.000000000E+00  0.00000E+00  9.000E+00
      25     1     1     2     0     0  1.102506041E+02 -5.873324017E+01  1.893626499E+01  1.777311772E+02  1.250000000E+02  0.00000E+00  9.000E+00
      25     1     1     2     0     0 -1.246798017E+02  5.275915254E+01  1.422893584E+02  2.328085965E+02  1.250000000E+02  0.00000E+00  9.000E+00
       1     1     1     2   502     0  1.442919757E+01  5.974087622E+00 -4.707864449E+02  4.710453993E+02  5.394796609E-06  0.00000E+00  9.000E+00
#rwgt            1           1   2.4602207038037713E-002           1      343245           0
</event>
<event>
      5   9999  3.19816E-02  2.64140E+01 -1.00000E+00  1.56982E-01
      21    -1     0     0   511   501  0.000000000E+00  0.000000000E+00  1.256039197E+02  1.256039197E+02  0.000000000E+00  0.00000E+00  9.000E+00
      21    -1     0     0   501   502  0.000000000E+00  0.000000000E+00 -3.398358656E+02  3.398358656E+02  0.000000000E+00  0.00000E+00  9.000E+00
      25     1     1     2     0     0 -5.040185381E+01 -1.135033138E+02 -8.774248550E+01  1.968428126E+02  1.250000000E+02  0.00000E+00  9.000E+00
      25     1     1     2     0     0  3.271603400E+01  1.331224633E+02 -1.457357405E+02  2.359148897E+02  1.250000000E+02  0.00000E+00  9.000E+00
      21     1     1     2   511   502  1.768581980E+01 -1.961914952E+01  1.924628012E+01  3.268208299E+01  2.384185791E-07  0.00000E+00  9.000E+00
#rwgt            1           1   2.2198592509931930E-002           1      343378           0
</event>
<event>
      5   9999  3.19816E-02  6.00848E+02 -1.00000E+00  9.66368E-02
      21    -1     0     0   502   501  0.000000000E+00  0.000000000E+00  7.994888245E+02  7.994888245E+02  0.000000000E+00  0.00000E+00  9.000E+00
       2    -1     0     0   501     0  0.000000000E+00  0.000000000E+00 -3.303022252E+03  3.303022252E+03  0.000000000E+00  0.00000E+00  9.000E+00
      25     1     1     2     0     0  1.901583498E+02 -8.495110784E+02 -6.488762912E+02  1.092929417E+03  1.250000000E+02  0.00000E+00  9.000E+00
      25     1     1     2     0     0  3.259711647E+02  1.157129457E+03 -1.694559152E+02  1.220469617E+03  1.250000000E+02  0.00000E+00  9.000E+00
       2     1     1     2   502     0 -5.161295144E+02 -3.076183782E+02 -1.685201221E+03  1.789112041E+03  3.051757812E-05  0.00000E+00  9.000E+00
#rwgt            2          13   1.3070136137419820E-003           1      343602           0
</event>
<event>
      5   9999  3.19816E-02  4.28384E+01 -1.00000E+00  1.43018E-01
      21    -1     0     0   502   511  0.000000000E+00  0.000000000E+00  9.220082768E+02  9.220082768E+02  0.000000000E+00  0.00000E+00  9.000E+00
      21    -1     0     0   501   502  0.000000000E+00  0.000000000E+00 -1.003819692E+03  1.003819692E+03  0.000000000E+00  0.00000E+00  9.000E+00
      25     1     1     2     0     0  4.372749317E+02 -6.349361842E+02 -1.924581965E+02  8.043745902E+02  1.250000000E+02  0.00000E+00  9.000E+00
      25     1     1     2     0     0 -4.281074522E+02  6.767821731E+02 -1.778457061E+02  8.297976835E+02  1.250000000E+02  0.00000E+00  9.000E+00
      21     1     1     2   501   511 -9.167479499E+00 -4.184598882E+01  2.884924871E+02  2.916556953E+02  0.000000000E+00  0.00000E+00  9.000E+00
#rwgt            1           1   2.3468454895112900E-002           1      343621           0
</event>
<event>
      5   9999  3.19816E-02  7.53035E+00 -1.00000E+00  2.11166E-01
      21    -1     0     0   512   501  0.000000000E+00  0.000000000E+00  3.919510466E+02  3.919510466E+02  0.000000000E+00  0.00000E+00  9.000E+00
      21    -1     0     0   501   502  0.000000000E+00  0.000000000E+00 -1.605310169E+02  1.605310169E+02  0.000000000E+00  0.00000E+00  9.000E+00
      25     1     1     2     0     0  2.572599313E+00 -1.549054421E+02 -4.841518393E+01  2.048690906E+02  1.250000000E+02  0.00000E+00  9.000E+00
      25     1     1     2     0     0 -7.310303945E+00  1.490522154E+02  2.500531703E+02  3.168936595E+02  1.250000000E+02  0.00000E+00  9.000E+00
      21     1     1     2   512   502  4.737704632E+00  5.853226670E+00  2.978204332E+01  3.071931334E+01  3.371747881E-07  0.00000E+00  9.000E+00
#rwgt            1           1   2.8581411853411131E-002           1      343770           0
</event>
<event>
      5   9999  3.19816E-02  2.45313E+02 -1.00000E+00  1.08512E-01
      21    -1     0     0   502   511  0.000000000E+00  0.000000000E+00  2.514760948E+02  2.514760948E+02  0.000000000E+00  0.00000E+00  9.000E+00
      21    -1     0     0   501   502  0.000000000E+00  0.000000000E+00 -1.763825246E+03  1.763825246E+03  0.000000000E+00  0.00000E+00  9.000E+00
      25     1     1     2     0     0  2.483610118E+02  4.406339174E+02 -6.209763098E+02  8.106034904E+02  1.250000000E+02  0.00000E+00  9.000E+00
      25     1     1     2     0     0 -3.434094802E+02 -2.144831068E+02 -8.582514088E+02  9.571591064E+02  1.250000000E+02  0.00000E+00  9.000E+00
      21     1     1     2   501   511  9.504846839E+01 -2.261508106E+02 -3.312143255E+01  2.475387440E+02  3.873843386E-06  0.00000E+00  9.000E+00
#rwgt            2          11   4.6683635775793177E-003           1      344070           0
</event>
<event>
      5   9999  3.19816E-02  1.45614E+01 -1.00000E+00  1.78606E-01
      21    -1     0     0   502   501  0.000000000E+00  0.000000000E+00  1.014997582E+03  1.014997582E+03  0.000000000E+00  0.00000E+00  9.000E+00
      21    -1     0     0   512   502  0.000000000E+00  0.000000000E+00 -1.479444985E+02  1.479444985E+02  0.000000000E+00  0.00000E+00  9.000E+00
      25     1     1     2     0     0  3.135532573E+02  1.715163364E+01  2.131454090E+02  3.995820179E+02  1.250000000E+02  0.00000E+00  9.000E+00
      25     1     1     2     0     0 -3.209741752E+02 -2.968022635E+01  6.618964608E+02  7.467511377E+02  1.250000000E+02  0.00000E+00  9.000E+00
      21     1     1     2   512   501  7.420917879E+00  1.252859270E+01 -7.988786711E+00  1.660892442E+01  1.192092896E-07  0.00000E+00  9.000E+00
#rwgt            1           1   2.9338217844838824E-002           1      344105           0
</event>
<event>
      5   9999  3.19816E-02  5.25994E+01 -1.00000E+00  1.37831E-01
      -4    -1     0     0     0   501  0.000000000E+00  0.000000000E+00  7.603981320E+02  7.603981320E+02  0.000000000E+00  0.00000E+00  9.000E+00
      21    -1     0     0   501   502  0.000000000E+00  0.000000000E+00 -7.503591556E+02  7.503591556E+02  0.000000000E+00  0.00000E+00  9.000E+00
      25     1     1     2     0     0  2.003176026E+02 -8.838606844E+01 -5.416489160E+02  5.974510751E+02  1.250000000E+02  0.00000E+00  9.000E+00
      25     1     1     2     0     0 -2.525068164E+02  8.183029780E+01 -5.991081319E+01  2.994498214E+02  1.250000000E+02  0.00000E+00  9.000E+00
      -4     1     1     2     0   502  5.218921386E+01  6.555770640E+00  6.115987056E+02  6.138563911E+02  1.525878906E-05  0.00000E+00  9.000E+00
#rwgt            1           1   3.0953716919568868E-002           1      344323           0
</event>
<event>
      5   9999  3.19816E-02  9.25891E+01 -1.00000E+00  1.25351E-01
       1    -1     0     0   502     0  0.000000000E+00  0.000000000E+00  1.645612565E+03  1.645612565E+03  0.000000000E+00  0.00000E+00  9.000E+00
      21    -1     0     0   501   502  0.000000000E+00  0.000000000E+00 -9.661610339E+01  9.661610339E+01  0.000000000E+00  0.00000E+00  9.000E+00
      25     1     1     2     0     0 -4.053363680E+01 -1.521311350E+02  2.934913959E+02  3.557373433E+02  1.250000000E+02  0.00000E+00  9.000E+00
      25     1     1     2     0     0  9.936901464E+01  8.063891236E+01  6.189508585E+01  1.892956336E+02  1.250000000E+02  0.00000E+00  9.000E+00
       1     1     1     2   501     0 -5.883537784E+01  7.149222269E+01  1.193609980E+03  1.197195691E+03  1.525878906E-05  0.00000E+00  9.000E+00
#rwgt            1           1   2.9946743054406488E-002           1      344422           0
</event>
<event>
      5   9999  3.19816E-02  1.91995E+01 -1.00000E+00  1.67846E-01
      21    -1     0     0   502   501  0.000000000E+00  0.000000000E+00  1.602623358E+02  1.602623358E+02  0.000000000E+00  0.00000E+00  9.000E+00
      21    -1     0     0   501   511  0.000000000E+00  0.000000000E+00 -1.047863238E+03  1.047863238E+03  0.000000000E+00  0.00000E+00  9.000E+00
      25     1     1     2     0     0 -2.308479297E+02 -1.670950288E+02 -2.749124867E+02  4.152269146E+02  1.250000000E+02  0.00000E+00  9.000E+00
      25     1     1     2     0     0  2.148114064E+02  1.565380022E+02 -1.499918847E+02  3.298039598E+02  1.250000000E+02  0.00000E+00  9.000E+00
      21     1     1     2   502   511  1.603652331E+01  1.055702666E+01 -4.626965307E+02  4.630946991E+02  0.000000000E+00  0.00000E+00  9.000E+00
#rwgt            1           1   2.6058932148904590E-002           1      344515           0
</event>
<event>
      5   9999  3.19816E-02  7.04295E+01 -1.00000E+00  1.31086E-01
       2    -1     0     0   502     0  0.000000000E+00  0.000000000E+00  1.241351535E+03  1.241351535E+03  0.000000000E+00  0.00000E+00  9.000E+00
      21    -1     0     0   501   502  0.000000000E+00  0.000000000E+00 -1.039640952E+02  1.039640952E+02  0.000000000E+00  0.00000E+00  9.000E+00
      25     1     1     2     0     0 -1.181439003E+01 -1.464954038E+02  1.279500467E+02  2.315096058E+02  1.250000000E+02  0.00000E+00  9.000E+00
      25     1     1     2     0     0  3.948156957E+01  2.112629712E+02  2.552106183E+02  3.562980452E+02  1.250000000E+02  0.00000E+00  9.000E+00
       2     1     1     2   501     0 -2.766717954E+01 -6.476756741E+01  7.542267743E+02  7.575079787E+02  0.000000000E+00  0.00000E+00  9.000E+00
#rwgt            1           1   2.9825903674074554E-002           1      344701           0
</event>
<event>
      5   9999  3.19816E-02  3.42541E+01 -1.00000E+00  1.49145E-01
      21    -1     0     0   502   501  0.000000000E+00  0.000000000E+00  2.049674915E+02  2.049674915E+02  0.000000000E+00  0.00000E+00  9.000E+00
       1    -1     0     0   501     0  0.000000000E+00  0.000000000E+00 -1.432674692E+03  1.432674692E+03  0.000000000E+00  0.00000E+00  9.000E+00
      25     1     1     2     0     0 -8.061214427E+01 -1.980358573E+02 -1.049274012E+02  2.689819290E+02  1.250000000E+02  0.00000E+00  9.000E+00
      25     1     1     2     0     0  9.068556575E+01  1.652964479E+02  1.840700283E+01  2.269594794E+02  1.250000000E+02  0.00000E+00  9.000E+00
       1     1     1     2   502     0 -1.007342148E+01  3.273940946E+01 -1.141186802E+03  1.141700775E+03  2.157918644E-05  0.00000E+00  9.000E+00
#rwgt            1           1   2.7964508254434337E-002           1      344774           0
</event>
<event>
      5   9999  3.19816E-02  1.11392E+02 -1.00000E+00  1.21757E-01
      21    -1     0     0   502   511  0.000000000E+00  0.000000000E+00  1.193091277E+02  1.193091277E+02  0.000000000E+00  0.00000E+00  9.000E+00
      21    -1     0     0   501   502  0.000000000E+00  0.000000000E+00 -1.127871271E+03  1.127871271E+03  0.000000000E+00  0.00000E+00  9.000E+00
      25     1     1     2     0     0 -1.075895854E+02  3.006651239E+02 -4.102170456E+02  5.346756588E+02  1.250000000E+02  0.00000E+00  9.000E+00
      25     1     1     2     0     0  1.433852849E+01 -2.397361531E+02 -4.713775537E+02  5.435998663E+02  1.250000000E+02  0.00000E+00  9.000E+00
      21     1     1     2   501   511  9.325105694E+01 -6.092897083E+01 -1.269675445E+02  1.689048740E+02  1.348699152E-06  0.00000E+00  9.000E+00
#rwgt            1           1   2.7565485359390032E-002           1      344902           0
</event>
<event>
      5   9999  3.19816E-02  1.05337E+02 -1.00000E+00  1.22821E-01
      21    -1     0     0   512   501  0.000000000E+00  0.000000000E+00  6.790200525E+02  6.790200525E+02  0.000000000E+00  0.00000E+00  9.000E+00
      21    -1     0     0   501   502  0.000000000E+00  0.000000000E+00 -2.674781833E+02  2.674781833E+02  0.000000000E+00  0.00000E+00  9.000E+00
      25     1     1     2     0     0 -8.310776590E+01  1.772903351E+02  2.843578419E+01  2.340349493E+02  1.250000000E+02  0.00000E+00  9.000E+00
      25     1     1     2     0     0 -2.221332982E+01 -1.791490088E+02 -8.289828290E+01  2.347017782E+02  1.250000000E+02  0.00000E+00  9.000E+00
      21     1     1     2   512   502  1.053210957E+02  1.858673713E+00  4.660043680E+02  4.777615083E+02  7.629394531E-06  0.00000E+00  9.000E+00
#rwgt            1           1   2.5730989494862196E-002           1      344964           0
</event>
<event>
      5   9999  3.19816E-02  4.41351E+02 -1.00000E+00  1.00416E-01
      21    -1     0     0   502   501  0.000000000E+00  0.000000000E+00  2.488025044E+02  2.488025044E+02  0.000000000E+00  0.00000E+00  9.000E+00
       2    -1     0     0   501     0  0.000000000E+00  0.000000000E+00 -1.814197102E+03  1.814197102E+03  0.000000000E+00  0.00000E+00  9.000E+00
      25     1     1     2     0     0 -1.150415504E+02  8.125448003E+01 -2.124619615E+02  2.839047973E+02  1.250000000E+02  0.00000E+00  9.000E+00
      25     1     1     2     0     0 -3.180418609E+02  3.772134956E+00  1.464943705E+01  3.420591474E+02  1.250000000E+02  0.00000E+00  9.000E+00
       2     1     1     2   502     0  4.330834113E+02 -8.502661499E+01 -1.367582073E+03  1.437035662E+03  1.525878906E-05  0.00000E+00  9.000E+00
#rwgt            2          13   3.2402823371291459E-003           1      345258           0
</event>
<event>
      5   9999  3.19816E-02  4.55799E+01 -1.00000E+00  1.41408E-01
      21    -1     0     0   502   501  0.000000000E+00  0.000000000E+00  4.874196858E+02  4.874196858E+02  0.000000000E+00  0.00000E+00  9.000E+00
      21    -1     0     0   511   502  0.000000000E+00  0.000000000E+00 -1.027414256E+02  1.027414256E+02  0.000000000E+00  0.00000E+00  9.000E+00
      25     1     1     2     0     0 -1.071017917E+01 -1.142573725E+02  2.099304842E+02  2.699356651E+02  1.250000000E+02  0.00000E+00  9.000E+00
      25     1     1     2     0     0 -2.019309048E+00  1.580236301E+02  1.849600155E+02  2.735155436E+02  1.250000000E+02  0.00000E+00  9.000E+00
      21     1     1     2   511   501  1.272948822E+01 -4.376625760E+01 -1.021223941E+01  4.670990268E+01  9.233911863E-07  0.00000E+00  9.000E+00
#rwgt            1           1   2.9206150456337364E-002           1      345292           0
</event>
<event>
      5   9999  3.19816E-02  2.04140E+02 -1.00000E+00  1.11325E-01
      21    -1     0     0   502   501  0.000000000E+00  0.000000000E+00  9.263138063E+02  9.263138063E+02  0.000000000E+00  0.00000E+00  9.000E+00
      21    -1     0     0   512   502  0.000000000E+00  0.000000000E+00 -4.191082104E+02  4.191082104E+02  0.000000000E+00  0.00000E+00  9.000E+00
      25     1     1     2     0     0  2.191212844E+02  3.129604635E+02 -1.703190485E+02  4.365683993E+02  1.250000000E+02  0.00000E+00  9.000E+00
      25     1     1     2     0     0 -6.068646625E+01 -1.842301366E+02  6.654872026E+02  7.043591465E+02  1.250000000E+02  0.00000E+00  9.000E+00
      21     1     1     2   512   501 -1.584348181E+02 -1.287303269E+02  1.203744181E+01  2.044944710E+02  2.071636581E-06  0.00000E+00  9.000E+00
#rwgt            1           1   2.9513067895303509E-002           1      345389           0
</event>
<event>
      5   9999  3.19816E-02  9.25509E+01 -1.00000E+00  1.25359E-01
      21    -1     0     0   502   511  0.000000000E+00  0.000000000E+00  2.263086937E+03  2.263086937E+03  0.000000000E+00  0.00000E+00  9.000E+00
      21    -1     0     0   501   502  0.000000000E+00  0.000000000E+00 -1.020324845E+02  1.020324845E+02  0.000000000E+00  0.00000E+00  9.000E+00
      25     1     1     2     0     0 -9.595583868E+01  4.837120770E+01  2.410831597E+00  1.648578443E+02  1.250000000E+02  0.00000E+00  9.000E+00
      25     1     1     2     0     0  5.175267415E+00 -6.638689308E+01  2.349050759E+02  2.742980088E+02  1.250000000E+02  0.00000E+00  9.000E+00
      21     1     1     2   501   511  9.078057127E+01  1.801568537E+01  1.923738545E+03  1.925963569E+03  2.157918644E-05  0.00000E+00  9.000E+00
#rwgt            1           1   3.2595140745852381E-002           1      345445           0
</event>
<event>
      5   9999  3.19816E-02  1.79032E+02 -1.00000E+00  1.13428E-01
      21    -1     0     0   502   501  0.000000000E+00  0.000000000E+00  1.984654844E+03  1.984654844E+03  0.000000000E+00  0.00000E+00  9.000E+00
      21    -1     0     0   512   502  0.000000000E+00  0.000000000E+00 -5.930287268E+02  5.930287268E+02  0.000000000E+00  0.00000E+00  9.000E+00
      25     1     1     2     0     0 -4.770530980E+02 -1.631159972E+02  1.408688154E+03  1.501403944E+03  1.250000000E+02  0.00000E+00  9.000E+00
      25     1     1     2     0     0  3.075833828E+02  1.053882689E+02  4.540614349E+02  5.722857776E+02  1.250000000E+02  0.00000E+00  9.000E+00
      21     1     1     2   512   501  1.694697152E+02  5.772772835E+01 -4.711234716E+02  5.039938496E+02  7.629394531E-06  0.00000E+00  9.000E+00
#rwgt            2          11   1.2739653587159429E-002           1      345515           0
</event>
<event>
      5   9999  3.19816E-02  1.17224E+01 -1.00000E+00  1.88103E-01
      21    -1     0     0   511   501  0.000000000E+00  0.000000000E+00  4.162084545E+02  4.162084545E+02  0.000000000E+00  0.00000E+00  9.000E+00
      21    -1     0     0   501   502  0.000000000E+00  0.000000000E+00 -2.957856440E+02  2.957856440E+02  0.000000000E+00  0.00000E+00  9.000E+00
      25     1     1     2     0     0 -2.553777782E+02  1.671310743E+02  7.134596476E+01  3.374401462E+02  1.250000000E+02  0.00000E+00  9.000E+00
      25     1     1     2     0     0  2.604831297E+02 -1.565788244E+02  4.702247826E+00  3.286571165E+02  1.250000000E+02  0.00000E+00  9.000E+00
      21     1     1     2   511   502 -5.105351523E+00 -1.055224994E+01  4.437459784E+01  4.589683569E+01  9.536743164E-07  0.00000E+00  9.000E+00
#rwgt            1           1   2.6851349426140737E-002           1      345535           0
</event>
<event>
      5   9999  3.19816E-02  9.36472E+01 -1.00000E+00  1.25124E-01
      21    -1     0     0   502   501  0.000000000E+00  0.000000000E+00  5.646332584E+02  5.646332584E+02  0.000000000E+00  0.00000E+00  9.000E+00
      21    -1     0     0   501   512  0.000000000E+00  0.000000000E+00 -2.354738629E+02  2.354738629E+02  0.000000000E+00  0.00000E+00  9.000E+00
      25     1     1     2     0     0 -6.675169358E+01  1.860148590E+02  4.470188560E+02  5.044880316E+02  1.250000000E+02  0.00000E+00  9.000E+00
      25     1     1     2     0     0  1.846624126E+01 -1.057758055E+02 -1.167715055E+02  2.019656099E+02  1.250000000E+02  0.00000E+00  9.000E+00
      21     1     1     2   502   512  4.828545232E+01 -8.023905358E+01 -1.087955064E+00  9.365347976E+01  5.291486056E-07  0.00000E+00  9.000E+00
#rwgt            1           1   2.2501638822940345E-002           1      345737           0
</event>
<event>
      5   9999  3.19816E-02  1.42116E+02 -1.00000E+00  1.17331E-01
      21    -1     0     0   502   501  0.000000000E+00  0.000000000E+00  5.860078295E+02  5.860078295E+02  0.000000000E+00  0.00000E+00  9.000E+00
      21    -1     0     0   511   502  0.000000000E+00  0.000000000E+00 -1.012115069E+03  1.012115069E+03  0.000000000E+00  0.00000E+00  9.000E+00
      25     1     1     2     0     0  4.335797471E+01  4.273767991E+02  3.727324355E+02  5.823103218E+02  1.250000000E+02  0.00000E+00  9.000E+00
      25     1     1     2     0     0  9.715408338E+01 -4.486692141E+02 -6.834539323E+02  8.327528188E+02  1.250000000E+02  0.00000E+00  9.000E+00
      21     1     1     2   511   501 -1.405120581E+02  2.129241498E+01 -1.153857429E+02  1.830597582E+02  1.907348633E-06  0.00000E+00  9.000E+00
#rwgt            1           1   3.2250877025303111E-002           1      345842           0
</event>
<event>
      5   9999  3.19816E-02  2.84207E+01 -1.00000E+00  1.54689E-01
      21    -1     0     0   512   501  0.000000000E+00  0.000000000E+00  5.712092483E+02  5.712092483E+02  0.000000000E+00  0.00000E+00  9.000E+00
      21    -1     0     0   501   502  0.000000000E+00  0.000000000E+00 -3.891311303E+02  3.891311303E+02  0.000000000E+00  0.00000E+00  9.000E+00
      25     1     1     2     0     0 -1.094093388E+02 -3.907764760E+02  2.319183038E+02  4.838261643E+02  1.250000000E+02  0.00000E+00  9.000E+00
      25     1     1     2     0     0  1.348216479E+02  3.780505817E+02 -8.743850841E+01  4.293828266E+02  1.250000000E+02  0.00000E+00  9.000E+00
      21     1     1     2   512   502 -2.541230913E+01  1.272589437E+01  3.759832254E+01  4.713138763E+01  6.743495762E-07  0.00000E+00  9.000E+00
#rwgt            1           1   2.7626920999413152E-002           1      345882           0
</event>
<event>
      5   9999  3.19816E-02  2.20072E+01 -1.00000E+00  1.63013E-01
      21    -1     0     0   502   511  0.000000000E+00  0.000000000E+00  1.759996610E+02  1.759996610E+02  0.000000000E+00  0.00000E+00  9.000E+00
      21    -1     0     0   501   502  0.000000000E+00  0.000000000E+00 -1.677561504E+02  1.677561504E+02  0.000000000E+00  0.00000E+00  9.000E+00
      25     1     1     2     0     0 -3.961830522E+01  1.900478733E+00 -8.438627513E+01  1.559463541E+02  1.250000000E+02  0.00000E+00  9.000E+00
      25     1     1     2     0     0  5.904616885E+01  8.437629859E+00  6.647591079E+01  1.536284165E+02  1.250000000E+02  0.00000E+00  9.000E+00
      21     1     1     2   501   511 -1.942786362E+01 -1.033810859E+01  2.615387491E+01  3.418104076E+01  5.840038640E-07  0.00000E+00  9.000E+00
#rwgt            1           1   6.3956990720533125E-002           1      345966           0
</event>
<event>
      5   9999  3.19816E-02  3.19654E+01 -1.00000E+00  1.51150E-01
      21    -1     0     0   502   501  0.000000000E+00  0.000000000E+00  1.769042169E+02  1.769042169E+02  0.000000000E+00  0.00000E+00  9.000E+00
      21    -1     0     0   501   512  0.000000000E+00  0.000000000E+00 -9.640602551E+02  9.640602551E+02  0.000000000E+00  0.00000E+00  9.000E+00
      25     1     1     2     0     0 -2.858967163E+02 -2.682840493E+02 -3.611210850E+02  5.474912799E+02  1.250000000E+02  0.00000E+00  9.000E+00
      25     1     1     2     0     0  2.619852269E+02  2.470702423E+02 -3.941641716E+02  5.483341662E+02  1.250000000E+02  0.00000E+00  9.000E+00
      21     1     1     2   502   512  2.391148941E+01  2.121380707E+01 -3.187078161E+01  4.513902587E+01  5.840038640E-07  0.00000E+00  9.000E+00
#rwgt            1           1   2.9887488918653539E-002           1      346126           0
</event>
<event>
      5   9999  3.19816E-02  3.70175E+01 -1.00000E+00  1.46959E-01
      21    -1     0     0   511   501  0.000000000E+00  0.000000000E+00  1.754442377E+03  1.754442377E+03  0.000000000E+00  0.00000E+00  9.000E+00
      21    -1     0     0   501   502  0.000000000E+00  0.000000000E+00 -1.910504511E+02  1.910504511E+02  0.000000000E+00  0.00000E+00  9.000E+00
      25     1     1     2     0     0  3.223797779E+02 -3.028364154E+02  2.367358631E+02  5.170178765E+02  1.250000000E+02  0.00000E+00  9.000E+00
      25     1     1     2     0     0 -3.367680907E+02  3.369432166E+02  1.226051517E+03  1.321276202E+03  1.250000000E+02  0.00000E+00  9.000E+00
      21     1     1     2   511   502  1.438831274E+01 -3.410680115E+01  1.006045456E+02  1.071987501E+02  0.000000000E+00  0.00000E+00  9.000E+00
#rwgt            1           1   2.8022585940302554E-002           1      346224           0
</event>
<event>
      5   9999  3.19816E-02  2.41826E+02 -1.00000E+00  1.08726E-01
      21    -1     0     0   502   501  0.000000000E+00  0.000000000E+00  1.147073866E+03  1.147073866E+03  0.000000000E+00  0.00000E+00  9.000E+00
      21    -1     0     0   512   502  0.000000000E+00  0.000000000E+00 -1.861971401E+02  1.861971401E+02  0.000000000E+00  0.00000E+00  9.000E+00
      25     1     1     2     0     0  1.032443374E+02  7.359942926E+00  5.217345060E+02  5.463931338E+02  1.250000000E+02  0.00000E+00  9.000E+00
      25     1     1     2     0     0 -1.141289193E+02  2.342208685E+02  4.609776122E+02  5.440681799E+02  1.250000000E+02  0.00000E+00  9.000E+00
      21     1     1     2   512   501  1.088458185E+01 -2.415808114E+02 -2.183539186E+01  2.428096928E+02  4.094973573E-06  0.00000E+00  9.000E+00
#rwgt            1           1   2.7365186052470420E-002           1      346406           0
</event>
<event>
      5   9999  3.19816E-02  1.80748E+02 -1.00000E+00  1.13272E-01
       2    -1     0     0   502     0  0.000000000E+00  0.000000000E+00  3.030803995E+03  3.030803995E+03  0.000000000E+00  0.00000E+00  9.000E+00
      21    -1     0     0   501   502  0.000000000E+00  0.000000000E+00 -6.734559317E+01  6.734559317E+01  0.000000000E+00  0.00000E+00  9.000E+00
      25     1     1     2     0     0 -3.276091934E+02 -2.031267950E+02  8.670987545E+02  9.571173013E+02  1.250000000E+02  0.00000E+00  9.000E+00
      25     1     1     2     0     0  1.526565100E+02  1.577246566E+02  1.314772235E+03  1.338817428E+03  1.250000000E+02  0.00000E+00  9.000E+00
       2     1     1     2   501     0  1.749526834E+02  4.540213834E+01  7.815874123E+02  8.022148581E+02  1.868812365E-05  0.00000E+00  9.000E+00
#rwgt            1           1   8.1144885658532576E-002           1      346449           0
</event>
<event>
      5   9999  3.19816E-02  7.76244E+01 -1.00000E+00  1.28986E-01
      21    -1     0     0   502   511  0.000000000E+00  0.000000000E+00  3.800888823E+02  3.800888823E+02  0.000000000E+00  0.00000E+00  9.000E+00
      21    -1     0     0   501   502  0.000000000E+00  0.000000000E+00 -2.706964711E+02  2.706964711E+02  0.000000000E+00  0.00000E+00  9.000E+00
      25     1     1     2     0     0 -3.584555599E+01  5.040552522E+00  2.171286392E+02  2.531405874E+02  1.250000000E+02  0.00000E+00  9.000E+00
      25     1     1     2     0     0  1.056737062E+02 -3.894593047E+01 -2.101067089E+02  2.691719651E+02  1.250000000E+02  0.00000E+00  9.000E+00
      21     1     1     2   501   511 -6.982815018E+01  3.390537794E+01  1.023704809E+02  1.284728009E+02  1.348699152E-06  0.00000E+00  9.000E+00
#rwgt            1           1   2.8528206311912642E-002           1      346517           0
</event>
<event>
      5   9999  3.19816E-02  1.75182E+01 -1.00000E+00  1.71261E-01
      21    -1     0     0   512   501  0.000000000E+00  0.000000000E+00  1.327984614E+03  1.327984614E+03  0.000000000E+00  0.00000E+00  9.000E+00
      21    -1     0     0   501   502  0.000000000E+00  0.000000000E+00 -7.459454834E+02  7.459454834E+02  0.000000000E+00  0.00000E+00  9.000E+00
      25     1     1     2     0     0  5.538119651E+01  6.210740784E+02  9.353815768E+02  1.131089644E+03  1.250000000E+02  0.00000E+00  9.000E+00
      25     1     1     2     0     0 -6.299498823E+01 -6.368511922E+02 -4.833455674E+02  8.116623356E+02  1.250000000E+02  0.00000E+00  9.000E+00
      21     1     1     2   512   502  7.613791719E+00  1.577711384E+01  1.300031218E+02  1.311781186E+02  2.697398305E-06  0.00000E+00  9.000E+00
#rwgt            1           1   2.9358887567299010E-002           1      346603           0
</event>
<event>
      5   9999  3.19816E-02  3.54754E+01 -1.00000E+00  1.48149E-01
      21    -1     0     0   502   501  0.000000000E+00  0.000000000E+00  1.122709968E+03  1.122709968E+03  0.000000000E+00  0.00000E+00  9.000E+00
      21    -1     0     0   501   511  0.000000000E+00  0.000000000E+00 -1.119508017E+03  1.119508017E+03  0.000000000E+00  0.00000E+00  9.000E+00
      25     1     1     2     0     0 -3.752201495E+02 -6.782058424E+02 -7.589529326E+02  1.091965146E+03  1.250000000E+02  0.00000E+00  9.000E+00
      25     1     1     2     0     0  3.623370492E+02  7.112593062E+02  7.674876282E+02  1.114378839E+03  1.250000000E+02  0.00000E+00  9.000E+00
      21     1     1     2   502   511  1.288310028E+01 -3.305346381E+01 -5.332744396E+00  3.587400041E+01  7.633118912E-07  0.00000E+00  9.000E+00
#rwgt            1           1   2.7323739381237076E-002           1      346815           0
</event>
<event>
      5   9999  3.19816E-02  5.19653E+01 -1.00000E+00  1.38127E-01
      21    -1     0     0   512   501  0.000000000E+00  0.000000000E+00  1.240665348E+02  1.240665348E+02  0.000000000E+00  0.00000E+00  9.000E+00
      21    -1     0     0   501   502  0.000000000E+00  0.000000000E+00 -6.455985894E+02  6.455985894E+02  0.000000000E+00  0.00000E+00  9.000E+00
      25     1     1     2     0     0 -1.463630828E+01 -1.959081504E+02 -4.145819257E+02  4.754970011E+02  1.250000000E+02  0.00000E+00  9.000E+00
      25     1     1     2     0     0 -2.823279448E+01  1.665375414E+02 -1.180591696E+02  2.410286516E+02  1.250000000E+02  0.00000E+00  9.000E+00
      21     1     1     2   512   502  4.286910275E+01  2.937060902E+01  1.110904073E+01  5.313947150E+01  8.840797528E-07  0.00000E+00  9.000E+00
#rwgt            2          11   1.8660006688095998E-003           1      347045           0
</event>
</LesHouchesEvents>
 #Random number generator exit values:            1        347064             0
