<LesHouchesEvents version="3.0">
<!--
file generated with POWHEG-BOX-V2
Input file powheg.input contained:
! ggHH production parameters:
mtdep 0              ! 0: Higgs effective field theory (HEFT)

hmass 125            ! Higgs boson mass
topmass 173          ! top quark mass (THIS VALUE IS HARD CODED IN THE VIRTUAL
hdecaymode -1        ! PDG code for Higgs boson decay products (it affects only the SMC)
!                      allowed values are:
!                      0 all decay channels open
!                      1-6 d dbar, u ubar,..., t tbar (as in HERWIG)
!                      7-9 e+ e-, mu+ mu-, tau+ tau-
!                      10  W+W-
!                      11  ZZ
!                      12  gamma gamma
!                      -1  all decay channels closed

! general parameters:
numevts  3000        ! number of events to be generated
ih1         1        ! hadron 1 (1 for protons, -1 for antiprotons)
ih2         1        ! hadron 2 (1 for protons, -1 for antiprotons)
ebeam1 7000d0        ! energy of beam 1
ebeam2 7000d0        ! energy of beam 2
! To be set only if using LHA pdfs
lhans1 90200         ! pdf set for hadron 1 (LHA numbering)
lhans2 90200 	     ! pdf set for hadron 2 (LHA numbering)
! To be set only if using internal mlm pdf
# ndns1 131          ! pdf set for hadron 1 (mlm numbering)
# ndns2 131          ! pdf set for hadron 2 (mlm numbering)
! To be set only if using different pdf sets for the two incoming hadrons
! QCDLambda5 0.25    ! for not equal pdf sets

! Parameters to allow or not the use of stored data
use-old-grid    1    ! if 1 use old grid if file pwggrids.dat is present (<> 1 regenerate)
use-old-ubound  1    ! if 1 use norm of upper bounding function stored in pwgubound.dat, if present;
!
ncall1  10000        ! number of calls for initializing the integration grid
itmx1       3        ! number of iterations for initializing the integration grid
ncall2  10000        ! number of calls for computing the integral and finding upper bound
itmx2       3        ! number of iterations for computing the integral and finding upper bound
foldcsi     1        ! number of folds on csi integration
foldy       1        ! number of folds on  y  integration
foldphi     1        ! number of folds on phi integration
nubound 10000        ! number of bbarra calls to setup norm of upper bounding function
# icsimax   1        ! <= 100, number of csi subdivision when computing the upper bounds
# iymax     1        ! <= 100, number of y subdivision when computing the upper bounds
# xupbound 2d0       ! increase upper bound for radiation generation

! OPTIONAL PARAMETERS

! scale settings:
#fixedscale   1      ! (dafault 0) Use muren = mufac = 2*m_H
facscfact   1d0      ! (default 1d0) fac scale factor: mufact = muref * facscfact
renscfact   1d0      ! (default 1d0) ren scale factor: muren  = muref * renscfact

! Born, plots and powheg strategy:
#bornonly         1  ! (default 0) if 1 do Born only
# testplots 1
fastbtlbound      1  ! fast evaluation of Btilde upper bounds
storemintupb      1  ! store function calls in binary file for more precise generation
ubexcess_correct  1  ! corrects for error in upper bound estimate
storeinfo_rwgt    1  ! store info to allow for reweighting
softtest          0  ! no check of the soft limit in the real
colltest          0  ! no check of the collinear limit in the real

! PARAMETERS needed for ggHH
hdamp           250

! PARAMETERS for parallel runnning
! -- non parallel (for testing purposes only)
#iseed    547        !  Start the random number generator with seed iseed
#rand1     0         !  skipping  rand2*100000000+rand1 numbers.
#rand2     0         !  (see RM48 short writeup in CERNLIB)

! -- parallel
manyseeds 1          ! Used to perform multiple runs with different random
                     ! seeds in the same directory.
                     ! If set to 1, the program asks for an integer j;
                     ! The file pwgseeds.dat at line j is read, and the
                     ! integer at line j is used to initialize the random
                     ! sequence for the generation of the event.
                     ! The event file is called pwgevents-'j'.lhe
parallelstage 4
xgriditeration 1
maxseeds    1000

! PARAMETERS for reweighting
#rwl_file 'reweight_setup.xml'


! PARAMETERS for Pythia8
#py8tune  xxx
#py8hepmc 1
#py8nohad 1
#py8nompi 1
End of powheg.input content
PDF package: lha
 Random number generator initialized with:            5             0             0
-->
<init>
     2212     2212  7.00000E+03  7.00000E+03     -1     -1     -1     -1     -4      1
  3.19670E-02  5.76697E-06  1.00000E+00   9999
</init>
<event>
      5   9999  3.19816E-02  8.31606E+01 -1.00000E+00  1.27540E-01
      21    -1     0     0   502   501  0.000000000E+00  0.000000000E+00  1.238263991E+02  1.238263991E+02  0.000000000E+00  0.00000E+00  9.000E+00
      21    -1     0     0   511   502  0.000000000E+00  0.000000000E+00 -2.350192281E+03  2.350192281E+03  0.000000000E+00  0.00000E+00  9.000E+00
      25     1     1     2     0     0 -3.904557175E+02  1.107369131E+02 -4.342392970E+02  6.073772290E+02  1.250000000E+02  0.00000E+00  9.000E+00
      25     1     1     2     0     0  3.732582779E+02 -1.920998950E+02 -1.462044348E+03  1.526244669E+03  1.250000000E+02  0.00000E+00  9.000E+00
      21     1     1     2   511   501  1.719743960E+01  8.136298190E+01 -3.300822360E+02  3.403967821E+02  3.814697266E-06  0.00000E+00  9.000E+00
#rwgt            1           1   3.3575979419797265E-002           5           1           0
</event>
<event>
      5   9999  3.19816E-02  9.36757E+01 -1.00000E+00  1.25118E-01
      21    -1     0     0   512   501  0.000000000E+00  0.000000000E+00  2.199721579E+02  2.199721579E+02  0.000000000E+00  0.00000E+00  9.000E+00
      21    -1     0     0   501   502  0.000000000E+00  0.000000000E+00 -5.079921531E+02  5.079921531E+02  0.000000000E+00  0.00000E+00  9.000E+00
      25     1     1     2     0     0  5.651404087E+01 -1.684236488E+02  5.343457482E+01  2.236975996E+02  1.250000000E+02  0.00000E+00  9.000E+00
      25     1     1     2     0     0  3.573740297E+01  1.846965128E+02 -3.428720125E+02  4.105802975E+02  1.250000000E+02  0.00000E+00  9.000E+00
      21     1     1     2   512   502 -9.225144383E+01 -1.627286403E+01  1.417442498E+00  9.368641383E+01  1.714993538E-06  0.00000E+00  9.000E+00
#rwgt            1           1   2.8276420177348539E-002           5          56           0
</event>
<event>
      5   9999  3.19816E-02  4.68282E+00 -1.00000E+00  2.48320E-01
      21    -1     0     0   511   501  0.000000000E+00  0.000000000E+00  4.356316403E+02  4.356316403E+02  0.000000000E+00  0.00000E+00  9.000E+00
      21    -1     0     0   501   502  0.000000000E+00  0.000000000E+00 -3.318858606E+02  3.318858606E+02  0.000000000E+00  0.00000E+00  9.000E+00
      25     1     1     2     0     0  5.960575627E+01 -3.394397331E+02 -2.466471233E+01  3.674309821E+02  1.250000000E+02  0.00000E+00  9.000E+00
      25     1     1     2     0     0 -5.989243341E+01  3.441137661E+02  1.190402577E+02  3.896113070E+02  1.250000000E+02  0.00000E+00  9.000E+00
      21     1     1     2   511   502  2.866771392E-01 -4.674032989E+00  9.370234378E+00  1.047521171E+01  1.685873940E-07  0.00000E+00  9.000E+00
#rwgt            1           1   3.0230994566091168E-002           5         140           0
</event>
<event>
      5   9999  3.19816E-02  2.00670E+01 -1.00000E+00  1.66249E-01
      21    -1     0     0   502   501  0.000000000E+00  0.000000000E+00  1.083484597E+03  1.083484597E+03  0.000000000E+00  0.00000E+00  9.000E+00
       2    -1     0     0   501     0  0.000000000E+00  0.000000000E+00 -3.397013364E+02  3.397013364E+02  0.000000000E+00  0.00000E+00  9.000E+00
      25     1     1     2     0     0 -4.315700104E+02 -1.163526981E+02  6.724777055E+02  8.170935617E+02  1.250000000E+02  0.00000E+00  9.000E+00
      25     1     1     2     0     0  4.268914160E+02  9.683873444E+01  1.844493427E+02  4.911828392E+02  1.250000000E+02  0.00000E+00  9.000E+00
       2     1     1     2   502     0  4.678594358E+00  1.951396364E+01 -1.131437875E+02  1.149095326E+02  1.907348633E-06  0.00000E+00  9.000E+00
#rwgt            1           1   2.7570260209517576E-002           5         465           0
</event>
<event>
      5   9999  3.19816E-02  3.82387E+01 -1.00000E+00  1.46064E-01
      21    -1     0     0   502   501  0.000000000E+00  0.000000000E+00  1.811934408E+02  1.811934408E+02  0.000000000E+00  0.00000E+00  9.000E+00
      -1    -1     0     0     0   502  0.000000000E+00  0.000000000E+00 -5.293751532E+02  5.293751532E+02  0.000000000E+00  0.00000E+00  9.000E+00
      25     1     1     2     0     0  2.377488856E+01 -2.093855062E+02 -2.309289669E+01  2.461012341E+02  1.250000000E+02  0.00000E+00  9.000E+00
      25     1     1     2     0     0 -6.137971533E+01  2.024518855E+02 -1.558865199E+02  2.909980112E+02  1.250000000E+02  0.00000E+00  9.000E+00
      -1     1     1     2     0   501  3.760482677E+01  6.933620689E+00 -1.692022958E+02  1.734693489E+02  1.907348633E-06  0.00000E+00  9.000E+00
#rwgt            1           1   3.2562328119536396E-002           5         688           0
</event>
<event>
      5   9999  3.19816E-02  1.26236E+02 -1.00000E+00  1.19442E-01
      21    -1     0     0   502   501  0.000000000E+00  0.000000000E+00  2.235649380E+02  2.235649380E+02  0.000000000E+00  0.00000E+00  9.000E+00
      21    -1     0     0   511   502  0.000000000E+00  0.000000000E+00 -7.942708554E+02  7.942708554E+02  0.000000000E+00  0.00000E+00  9.000E+00
      25     1     1     2     0     0 -2.052336279E+02  3.943124418E+01  1.079990900E+02  2.663915698E+02  1.250000000E+02  0.00000E+00  9.000E+00
      25     1     1     2     0     0  7.901500554E+01 -4.150750848E+01 -1.781673279E+02  2.352335884E+02  1.250000000E+02  0.00000E+00  9.000E+00
      21     1     1     2   511   501  1.262186223E+02  2.076264295E+00 -5.005376793E+02  5.162106352E+02  7.629394531E-06  0.00000E+00  9.000E+00
#rwgt            2          11   2.1577078475093314E-003           5         800           0
</event>
<event>
      5   9999  3.19816E-02  7.49286E+01 -1.00000E+00  1.29741E-01
      -1    -1     0     0     0   501  0.000000000E+00  0.000000000E+00  4.195523082E+02  4.195523082E+02  0.000000000E+00  0.00000E+00  9.000E+00
      21    -1     0     0   501   502  0.000000000E+00  0.000000000E+00 -1.153665216E+02  1.153665216E+02  0.000000000E+00  0.00000E+00  9.000E+00
      25     1     1     2     0     0  1.034389685E+02  6.375716403E+01  1.187450179E+01  1.747300775E+02  1.250000000E+02  0.00000E+00  9.000E+00
      25     1     1     2     0     0 -4.271673352E+01 -1.985831053E+01  1.630730279E+02  2.108005793E+02  1.250000000E+02  0.00000E+00  9.000E+00
      -1     1     1     2     0   502 -6.072223500E+01 -4.389885350E+01  1.292382569E+02  1.493881729E+02  1.907348633E-06  0.00000E+00  9.000E+00
#rwgt            1           1   3.4405205611328767E-002           5         835           0
</event>
<event>
      5   9999  3.19816E-02  2.19803E+01 -1.00000E+00  1.63055E-01
      21    -1     0     0   502   511  0.000000000E+00  0.000000000E+00  7.108845199E+02  7.108845199E+02  0.000000000E+00  0.00000E+00  9.000E+00
      21    -1     0     0   501   502  0.000000000E+00  0.000000000E+00 -2.129409211E+02  2.129409211E+02  0.000000000E+00  0.00000E+00  9.000E+00
      25     1     1     2     0     0  8.060233502E+01 -1.739446237E+02  4.821379789E+02  5.336998212E+02  1.250000000E+02  0.00000E+00  9.000E+00
      25     1     1     2     0     0 -9.731833693E+01  1.882172874E+02 -1.048944028E+02  2.674405386E+02  1.250000000E+02  0.00000E+00  9.000E+00
      21     1     1     2   501   511  1.671600191E+01 -1.427266364E+01  1.207000227E+02  1.226850811E+02  2.697398305E-06  0.00000E+00  9.000E+00
#rwgt            1           1   2.8294131144023786E-002           5         905           0
</event>
<event>
      5   9999  3.19816E-02  3.57401E+01 -1.00000E+00  1.47940E-01
      21    -1     0     0   502   501  0.000000000E+00  0.000000000E+00  1.069630895E+02  1.069630895E+02  0.000000000E+00  0.00000E+00  9.000E+00
       2    -1     0     0   501     0  0.000000000E+00  0.000000000E+00 -4.192225324E+03  4.192225324E+03  0.000000000E+00  0.00000E+00  9.000E+00
      25     1     1     2     0     0  4.320897053E+01 -4.795409590E+01 -9.129113208E+01  1.677071294E+02  1.250000000E+02  0.00000E+00  9.000E+00
      25     1     1     2     0     0 -7.469171274E+00  4.809380516E+01  3.171924488E+00  1.341784771E+02  1.250000000E+02  0.00000E+00  9.000E+00
       2     1     1     2   502     0 -3.573979926E+01 -1.397092627E-01 -3.997143027E+03  3.997302807E+03  0.000000000E+00  0.00000E+00  9.000E+00
#rwgt            1           1   2.6666013776447957E-002           5        1048           0
</event>
<event>
      5   9999  3.19816E-02  1.40600E+01 -1.00000E+00  1.80073E-01
      21    -1     0     0   502   511  0.000000000E+00  0.000000000E+00  1.020723141E+03  1.020723141E+03  0.000000000E+00  0.00000E+00  9.000E+00
      21    -1     0     0   501   502  0.000000000E+00  0.000000000E+00 -2.519087104E+01  2.519087104E+01  0.000000000E+00  0.00000E+00  9.000E+00
      25     1     1     2     0     0 -3.639355897E+01  5.347613784E+01  3.739697532E+02  3.995779833E+02  1.250000000E+02  0.00000E+00  9.000E+00
      25     1     1     2     0     0  4.959484153E+01 -4.863764618E+01  4.084557912E+02  4.327659903E+02  1.250000000E+02  0.00000E+00  9.000E+00
      21     1     1     2   501   511 -1.320128256E+01 -4.838491660E+00  2.131067258E+02  2.135700387E+02  0.000000000E+00  0.00000E+00  9.000E+00
#rwgt            1           1   2.1794851735205328E-002           5        1167           0
</event>
<event>
      5   9999  3.19816E-02  8.88510E+01 -1.00000E+00  1.26182E-01
      21    -1     0     0   502   512  0.000000000E+00  0.000000000E+00  3.279487839E+02  3.279487839E+02  0.000000000E+00  0.00000E+00  9.000E+00
      21    -1     0     0   501   502  0.000000000E+00  0.000000000E+00 -5.222189014E+02  5.222189014E+02  0.000000000E+00  0.00000E+00  9.000E+00
      25     1     1     2     0     0  5.271153665E+01 -1.544229096E+02 -9.454500760E+01  2.262491980E+02  1.250000000E+02  0.00000E+00  9.000E+00
      25     1     1     2     0     0 -4.320988749E+01  2.427643659E+02 -2.980972664E+02  4.065570218E+02  1.250000000E+02  0.00000E+00  9.000E+00
      21     1     1     2   501   512 -9.501649158E+00 -8.834145629E+01  1.983721564E+02  2.173614655E+02  4.672030912E-06  0.00000E+00  9.000E+00
#rwgt            1           1   2.6796316783515857E-002           5        1281           0
</event>
<event>
      5   9999  3.19816E-02  3.03995E+01 -1.00000E+00  1.52642E-01
      21    -1     0     0   502   511  0.000000000E+00  0.000000000E+00  1.155394803E+03  1.155394803E+03  0.000000000E+00  0.00000E+00  9.000E+00
      21    -1     0     0   501   502  0.000000000E+00  0.000000000E+00 -1.534268694E+03  1.534268694E+03  0.000000000E+00  0.00000E+00  9.000E+00
      25     1     1     2     0     0 -6.324103806E+02 -3.866823577E+02 -3.511738586E+02  8.297073064E+02  1.250000000E+02  0.00000E+00  9.000E+00
      25     1     1     2     0     0  6.380481648E+02  4.165544891E+02 -7.855389233E+02  1.101507832E+03  1.250000000E+02  0.00000E+00  9.000E+00
      21     1     1     2   501   511 -5.637784178E+00 -2.987213140E+01  7.578388906E+02  7.584483588E+02  1.078959322E-05  0.00000E+00  9.000E+00
#rwgt            1           1   3.1152980326972921E-002           5        1384           0
</event>
<event>
      5   9999  3.19816E-02  9.49702E+00 -1.00000E+00  1.98384E-01
      21    -1     0     0   502   501  0.000000000E+00  0.000000000E+00  2.881596783E+02  2.881596783E+02  0.000000000E+00  0.00000E+00  9.000E+00
      21    -1     0     0   501   512  0.000000000E+00  0.000000000E+00 -2.179584499E+03  2.179584499E+03  0.000000000E+00  0.00000E+00  9.000E+00
      25     1     1     2     0     0 -9.136934843E+01 -2.129451472E+02  2.037129329E+02  3.328933051E+02  1.250000000E+02  0.00000E+00  9.000E+00
      25     1     1     2     0     0  8.600556357E+01  2.051078508E+02 -8.003976910E+02  8.400759794E+02  1.250000000E+02  0.00000E+00  9.000E+00
      21     1     1     2   502   512  5.363784857E+00  7.837296423E+00 -1.294740063E+03  1.294774893E+03  0.000000000E+00  0.00000E+00  9.000E+00
#rwgt            1           1   2.8553249480121227E-002           5        1552           0
</event>
<event>
      5   9999  3.19816E-02  6.10318E+01 -1.00000E+00  1.34309E-01
      21    -1     0     0   502   501  0.000000000E+00  0.000000000E+00  1.256229542E+03  1.256229542E+03  0.000000000E+00  0.00000E+00  9.000E+00
       1    -1     0     0   501     0  0.000000000E+00  0.000000000E+00 -1.726033496E+03  1.726033496E+03  0.000000000E+00  0.00000E+00  9.000E+00
      25     1     1     2     0     0  2.515977566E+02  8.592321619E+02  6.620901478E+02  1.120522067E+03  1.250000000E+02  0.00000E+00  9.000E+00
      25     1     1     2     0     0 -3.038613524E+02 -8.277140454E+02 -1.808255915E+02  9.087162137E+02  1.250000000E+02  0.00000E+00  9.000E+00
       1     1     1     2   502     0  5.226359579E+01 -3.151811650E+01 -9.510685109E+02  9.530247570E+02  1.078959322E-05  0.00000E+00  9.000E+00
#rwgt            2          12   1.1671249100602297E-003           5        2244           0
</event>
<event>
      5   9999  3.19816E-02  1.22387E+02 -1.00000E+00  1.20006E-01
      21    -1     0     0   502   501  0.000000000E+00  0.000000000E+00  3.195534389E+02  3.195534389E+02  0.000000000E+00  0.00000E+00  9.000E+00
      21    -1     0     0   511   502  0.000000000E+00  0.000000000E+00 -1.540664334E+03  1.540664334E+03  0.000000000E+00  0.00000E+00  9.000E+00
      25     1     1     2     0     0  1.141252110E+02 -6.092232413E+02 -9.044488767E+02  1.103553484E+03  1.250000000E+02  0.00000E+00  9.000E+00
      25     1     1     2     0     0 -1.626927855E+02  4.968859948E+02 -1.661383914E+02  5.626647309E+02  1.250000000E+02  0.00000E+00  9.000E+00
      21     1     1     2   511   501  4.856757446E+01  1.123372465E+02 -1.505236274E+02  1.939995584E+02  1.907348633E-06  0.00000E+00  9.000E+00
#rwgt            1           1   2.7838840771107504E-002           5        2263           0
</event>
<event>
      5   9999  3.19816E-02  4.35800E+02 -1.00000E+00  1.00578E-01
      21    -1     0     0   502   501  0.000000000E+00  0.000000000E+00  1.500378203E+03  1.500378203E+03  0.000000000E+00  0.00000E+00  9.000E+00
       2    -1     0     0   501     0  0.000000000E+00  0.000000000E+00 -2.229365609E+03  2.229365609E+03  0.000000000E+00  0.00000E+00  9.000E+00
      25     1     1     2     0     0 -8.367963530E+02  1.440896767E+01  2.574915577E+02  8.845126664E+02  1.250000000E+02  0.00000E+00  9.000E+00
      25     1     1     2     0     0  6.213738327E+02  3.644239111E+02  7.544496521E+02  1.050585315E+03  1.250000000E+02  0.00000E+00  9.000E+00
       2     1     1     2   502     0  2.154225203E+02 -3.788328788E+02 -1.740928616E+03  1.794645831E+03  2.157918644E-05  0.00000E+00  9.000E+00
#rwgt            2          13   3.0880094764058280E-003           5        2346           0
</event>
<event>
      5   9999  3.19816E-02  3.49741E+02 -1.00000E+00  1.03471E-01
      21    -1     0     0   502   501  0.000000000E+00  0.000000000E+00  2.716028491E+02  2.716028491E+02  0.000000000E+00  0.00000E+00  9.000E+00
       2    -1     0     0   501     0  0.000000000E+00  0.000000000E+00 -2.232827870E+03  2.232827870E+03  0.000000000E+00  0.00000E+00  9.000E+00
      25     1     1     2     0     0 -2.394798731E+02 -3.963053698E+02 -1.102703033E+03  1.202492219E+03  1.250000000E+02  0.00000E+00  9.000E+00
      25     1     1     2     0     0 -1.073369378E+02  4.414403527E+02 -1.221957661E+02  4.867726456E+02  1.250000000E+02  0.00000E+00  9.000E+00
       2     1     1     2   502     0  3.468168109E+02 -4.513498286E+01 -7.363262217E+02  8.151658554E+02  1.078959322E-05  0.00000E+00  9.000E+00
#rwgt            2          13   1.4402326562198353E-003           5        2440           0
</event>
<event>
      5   9999  3.19816E-02  2.39779E+02 -1.00000E+00  1.08853E-01
      21    -1     0     0   502   501  0.000000000E+00  0.000000000E+00  3.218774908E+02  3.218774908E+02  0.000000000E+00  0.00000E+00  9.000E+00
      21    -1     0     0   511   502  0.000000000E+00  0.000000000E+00 -1.644004343E+03  1.644004343E+03  0.000000000E+00  0.00000E+00  9.000E+00
      25     1     1     2     0     0  5.805064889E+02  7.883893767E+01 -5.233216811E+02  7.954206081E+02  1.250000000E+02  0.00000E+00  9.000E+00
      25     1     1     2     0     0 -5.168571523E+02 -3.100156621E+02 -5.634853156E+02  8.345008853E+02  1.250000000E+02  0.00000E+00  9.000E+00
      21     1     1     2   511   501 -6.364933662E+01  2.311767244E+02 -2.353198555E+02  3.359603404E+02  2.697398305E-06  0.00000E+00  9.000E+00
#rwgt            1           1   3.5171609500607166E-002           5        2459           0
</event>
<event>
      5   9999  3.19816E-02  3.85326E+01 -1.00000E+00  1.45854E-01
      21    -1     0     0   512   501  0.000000000E+00  0.000000000E+00  8.625277658E+02  8.625277658E+02  0.000000000E+00  0.00000E+00  9.000E+00
      21    -1     0     0   501   502  0.000000000E+00  0.000000000E+00 -3.274459294E+02  3.274459294E+02  0.000000000E+00  0.00000E+00  9.000E+00
      25     1     1     2     0     0  2.177649531E+02  3.810727860E+02  2.847201139E+01  4.572457747E+02  1.250000000E+02  0.00000E+00  9.000E+00
      25     1     1     2     0     0 -2.204312635E+02 -4.195130260E+02  4.590267408E+02  6.714995679E+02  1.250000000E+02  0.00000E+00  9.000E+00
      21     1     1     2   512   502  2.666310424E+00  3.844023996E+01  4.758308418E+01  6.122835257E+01  6.743495762E-07  0.00000E+00  9.000E+00
#rwgt            2          11   1.4670536659220502E-002           5        2552           0
</event>
<event>
      5   9999  3.19816E-02  1.03007E+02 -1.00000E+00  1.23252E-01
      21    -1     0     0   502   501  0.000000000E+00  0.000000000E+00  3.893027321E+02  3.893027321E+02  0.000000000E+00  0.00000E+00  9.000E+00
      21    -1     0     0   511   502  0.000000000E+00  0.000000000E+00 -3.994578069E+02  3.994578069E+02  0.000000000E+00  0.00000E+00  9.000E+00
      25     1     1     2     0     0  8.776418551E+01  2.097125038E+02  2.580811025E+02  3.659408996E+02  1.250000000E+02  0.00000E+00  9.000E+00
      25     1     1     2     0     0  1.230100578E+01 -1.852721872E+02 -1.840521476E+02  2.897883558E+02  1.250000000E+02  0.00000E+00  9.000E+00
      21     1     1     2   511   501 -1.000651913E+02 -2.444031661E+01 -8.418402969E+01  1.330312837E+02  1.348699152E-06  0.00000E+00  9.000E+00
#rwgt            1           1   3.0694225202270012E-002           5        2572           0
</event>
<event>
      5   9999  3.19816E-02  4.85219E+01 -1.00000E+00  1.39823E-01
      21    -1     0     0   502   512  0.000000000E+00  0.000000000E+00  3.031295094E+02  3.031295094E+02  0.000000000E+00  0.00000E+00  9.000E+00
      21    -1     0     0   501   502  0.000000000E+00  0.000000000E+00 -5.282174754E+02  5.282174754E+02  0.000000000E+00  0.00000E+00  9.000E+00
      25     1     1     2     0     0  1.481021421E+02 -2.357704490E+02 -1.535172800E+02  3.416350456E+02  1.250000000E+02  0.00000E+00  9.000E+00
      25     1     1     2     0     0 -1.065938498E+02  2.106419873E+02 -2.120678890E+02  3.410719648E+02  1.250000000E+02  0.00000E+00  9.000E+00
      21     1     1     2   501   512 -4.150829232E+01  2.512846174E+01  1.404972030E+02  1.486399744E+02  0.000000000E+00  0.00000E+00  9.000E+00
#rwgt            1           1   2.8930777461348495E-002           5        2612           0
</event>
<event>
      5   9999  3.19816E-02  1.39770E+01 -1.00000E+00  1.80323E-01
      21    -1     0     0   502   501  0.000000000E+00  0.000000000E+00  3.236823074E+02  3.236823074E+02  0.000000000E+00  0.00000E+00  9.000E+00
      21    -1     0     0   511   502  0.000000000E+00  0.000000000E+00 -3.100425088E+02  3.100425088E+02  0.000000000E+00  0.00000E+00  9.000E+00
      25     1     1     2     0     0  1.449656024E+02 -3.246484526E+01 -2.029119245E+02  2.808331198E+02  1.250000000E+02  0.00000E+00  9.000E+00
      25     1     1     2     0     0 -1.588921082E+02  3.365206890E+01  2.460640534E+02  3.202369157E+02  1.250000000E+02  0.00000E+00  9.000E+00
      21     1     1     2   511   501  1.392650586E+01 -1.187223639E+00 -2.951233031E+01  3.265478075E+01  6.743495762E-07  0.00000E+00  9.000E+00
#rwgt            1           1   3.2743799956332295E-002           5        2687           0
</event>
<event>
      5   9999  3.19816E-02  1.42498E+02 -1.00000E+00  1.17284E-01
      21    -1     0     0   502   501  0.000000000E+00  0.000000000E+00  7.830257142E+02  7.830257142E+02  0.000000000E+00  0.00000E+00  9.000E+00
      21    -1     0     0   501   512  0.000000000E+00  0.000000000E+00 -4.559432125E+02  4.559432125E+02  0.000000000E+00  0.00000E+00  9.000E+00
      25     1     1     2     0     0  2.399142309E+02  3.238694814E+02  3.167588856E+02  5.276471082E+02  1.250000000E+02  0.00000E+00  9.000E+00
      25     1     1     2     0     0 -3.228463275E+02 -4.397485903E+02  5.402225551E+01  5.622739350E+02  1.250000000E+02  0.00000E+00  9.000E+00
      21     1     1     2   502   512  8.293209655E+01  1.158791089E+02 -4.369863941E+01  1.490478836E+02  3.754619538E-06  0.00000E+00  9.000E+00
#rwgt            1           1   2.7551243013166127E-002           5        2847           0
</event>
<event>
      5   9999  3.19816E-02  2.16998E+02 -1.00000E+00  1.10373E-01
      21    -1     0     0   502   511  0.000000000E+00  0.000000000E+00  6.007039308E+02  6.007039308E+02  0.000000000E+00  0.00000E+00  9.000E+00
      21    -1     0     0   501   502  0.000000000E+00  0.000000000E+00 -3.881760266E+02  3.881760266E+02  0.000000000E+00  0.00000E+00  9.000E+00
      25     1     1     2     0     0  1.637990596E+02  1.657105975E+02 -2.622064347E+02  3.723806500E+02  1.250000000E+02  0.00000E+00  9.000E+00
      25     1     1     2     0     0 -2.044477531E+01 -2.806538849E+00  4.386388861E+01  1.340705270E+02  1.250000000E+02  0.00000E+00  9.000E+00
      21     1     1     2   501   511 -1.433542842E+02 -1.629040587E+02  4.308704503E+02  4.824287804E+02  5.394796609E-06  0.00000E+00  9.000E+00
#rwgt            1           1   2.9455218676625129E-002           5        2899           0
</event>
<event>
      5   9999  3.19816E-02  1.39448E+01 -1.00000E+00  1.80421E-01
      21    -1     0     0   502   501  0.000000000E+00  0.000000000E+00  1.981644098E+02  1.981644098E+02  0.000000000E+00  0.00000E+00  9.000E+00
      21    -1     0     0   512   502  0.000000000E+00  0.000000000E+00 -3.428543655E+02  3.428543655E+02  0.000000000E+00  0.00000E+00  9.000E+00
      25     1     1     2     0     0  1.640958836E+02  1.577499914E+02 -6.923511287E+01  2.687582922E+02  1.250000000E+02  0.00000E+00  9.000E+00
      25     1     1     2     0     0 -1.540771023E+02 -1.480504643E+02 -6.975100703E+01  2.571942776E+02  1.250000000E+02  0.00000E+00  9.000E+00
      21     1     1     2   512   501 -1.001878123E+01 -9.699527117E+00 -5.703835799E+00  1.506620544E+01  1.192092896E-07  0.00000E+00  9.000E+00
#rwgt            1           1   3.0920868216846354E-002           5        2959           0
</event>
<event>
      5   9999  3.19816E-02  1.21433E+02 -1.00000E+00  1.20150E-01
      21    -1     0     0   502   501  0.000000000E+00  0.000000000E+00  6.713236798E+02  6.713236798E+02  0.000000000E+00  0.00000E+00  9.000E+00
       1    -1     0     0   501     0  0.000000000E+00  0.000000000E+00 -2.559117566E+03  2.559117566E+03  0.000000000E+00  0.00000E+00  9.000E+00
      25     1     1     2     0     0  2.162862218E+02  9.072152937E+02 -1.589410670E+02  9.543094790E+02  1.250000000E+02  0.00000E+00  9.000E+00
      25     1     1     2     0     0 -3.238954665E+02 -8.509460953E+02 -5.096520731E+02  1.050898552E+03  1.250000000E+02  0.00000E+00  9.000E+00
       1     1     1     2   502     0  1.076092447E+02 -5.626919836E+01 -1.219200746E+03  1.225233215E+03  1.525878906E-05  0.00000E+00  9.000E+00
#rwgt            1           1   3.1945787640768636E-002           5        3063           0
</event>
<event>
      5   9999  3.19816E-02  3.09592E+01 -1.00000E+00  1.52097E-01
      21    -1     0     0   502   501  0.000000000E+00  0.000000000E+00  4.092844396E+02  4.092844396E+02  0.000000000E+00  0.00000E+00  9.000E+00
       5    -1     0     0   501     0  0.000000000E+00  0.000000000E+00 -7.031115342E+02  7.031115342E+02  0.000000000E+00  0.00000E+00  9.000E+00
      25     1     1     2     0     0 -2.518000022E+02  1.169718587E+02 -2.625773655E+02  4.020665737E+02  1.250000000E+02  0.00000E+00  9.000E+00
      25     1     1     2     0     0  2.809396666E+02 -1.274289726E+02  2.569372661E+02  4.204842424E+02  1.250000000E+02  0.00000E+00  9.000E+00
       5     1     1     2   502     0 -2.913966444E+01  1.045711392E+01 -2.881869952E+02  2.898451577E+02  3.814697266E-06  0.00000E+00  9.000E+00
#rwgt            1           1   2.8984182166253692E-002           5        3148           0
</event>
<event>
      5   9999  3.19816E-02  1.05050E+02 -1.00000E+00  1.22873E-01
      21    -1     0     0   502   501  0.000000000E+00  0.000000000E+00  1.050912664E+03  1.050912664E+03  0.000000000E+00  0.00000E+00  9.000E+00
      21    -1     0     0   501   511  0.000000000E+00  0.000000000E+00 -1.327206837E+02  1.327206837E+02  0.000000000E+00  0.00000E+00  9.000E+00
      25     1     1     2     0     0  4.824002935E+01  9.873230446E+01  8.361236584E+02  8.525273841E+02  1.250000000E+02  0.00000E+00  9.000E+00
      25     1     1     2     0     0 -1.213027928E+02 -2.325163305E+01  1.270354417E+02  2.168363655E+02  1.250000000E+02  0.00000E+00  9.000E+00
      21     1     1     2   502   511  7.306276344E+01 -7.548067141E+01 -4.496711988E+01  1.142695980E+02  3.053247565E-06  0.00000E+00  9.000E+00
#rwgt            1           1   2.2086578640783897E-002           5        3343           0
</event>
<event>
      5   9999  3.19816E-02  9.37160E+01 -1.00000E+00  1.25109E-01
      21    -1     0     0   502   501  0.000000000E+00  0.000000000E+00  3.623226128E+01  3.623226128E+01  0.000000000E+00  0.00000E+00  9.000E+00
       2    -1     0     0   501     0  0.000000000E+00  0.000000000E+00 -2.478281198E+03  2.478281198E+03  0.000000000E+00  0.00000E+00  9.000E+00
      25     1     1     2     0     0  7.626559274E+01 -1.066154371E+02 -3.122242603E+02  3.609602205E+02  1.250000000E+02  0.00000E+00  9.000E+00
      25     1     1     2     0     0 -1.669069657E+02  8.280743484E+01 -1.434077577E+03  1.451522822E+03  1.250000000E+02  0.00000E+00  9.000E+00
       2     1     1     2   502     0  9.064137295E+01  2.380800229E+01 -6.957470993E+02  7.020304165E+02  0.000000000E+00  0.00000E+00  9.000E+00
#rwgt            1           1   2.3431888798350075E-002           5        3400           0
</event>
<event>
      5   9999  3.19816E-02  7.26386E+02 -1.00000E+00  9.44526E-02
      21    -1     0     0   502   501  0.000000000E+00  0.000000000E+00  6.306499290E+02  6.306499290E+02  0.000000000E+00  0.00000E+00  9.000E+00
      21    -1     0     0   511   502  0.000000000E+00  0.000000000E+00 -1.116443357E+03  1.116443357E+03  0.000000000E+00  0.00000E+00  9.000E+00
      25     1     1     2     0     0 -5.964959728E-01  1.604847300E+02 -2.226229729E+01  2.046370305E+02  1.250000000E+02  0.00000E+00  9.000E+00
      25     1     1     2     0     0 -6.183168043E+02  2.197565981E+02  2.263126351E+01  6.683904600E+02  1.250000000E+02  0.00000E+00  9.000E+00
      21     1     1     2   511   501  6.189133003E+02 -3.802413281E+02 -4.861623938E+02  8.740657950E+02  1.525878906E-05  0.00000E+00  9.000E+00
#rwgt            1           1   2.7180084547843000E-002           5        3460           0
</event>
<event>
      5   9999  3.19816E-02  2.52026E+01 -1.00000E+00  1.58489E-01
       1    -1     0     0   502     0  0.000000000E+00  0.000000000E+00  6.095164334E+02  6.095164334E+02  0.000000000E+00  0.00000E+00  9.000E+00
      21    -1     0     0   501   502  0.000000000E+00  0.000000000E+00 -1.050602418E+02  1.050602418E+02  0.000000000E+00  0.00000E+00  9.000E+00
      25     1     1     2     0     0 -3.320224259E+01  1.081040445E+02  1.924822538E+02  2.558579516E+02  1.250000000E+02  0.00000E+00  9.000E+00
      25     1     1     2     0     0  1.421334110E+01 -9.153322331E+01  1.022198438E+01  1.559161281E+02  1.250000000E+02  0.00000E+00  9.000E+00
       1     1     1     2   501     0  1.898890149E+01 -1.657082116E+01  3.017519534E+02  3.028025955E+02  5.394796609E-06  0.00000E+00  9.000E+00
#rwgt            1           1   3.0759079509986000E-002           5        3496           0
</event>
<event>
      5   9999  3.19816E-02  5.51109E+01 -1.00000E+00  1.36706E-01
      21    -1     0     0   502   511  0.000000000E+00  0.000000000E+00  4.520239373E+02  4.520239373E+02  0.000000000E+00  0.00000E+00  9.000E+00
      21    -1     0     0   501   502  0.000000000E+00  0.000000000E+00 -7.778981571E+02  7.778981571E+02  0.000000000E+00  0.00000E+00  9.000E+00
      25     1     1     2     0     0  4.627766050E+02  2.913006727E+02 -3.583902473E+02  6.656476826E+02  1.250000000E+02  0.00000E+00  9.000E+00
      25     1     1     2     0     0 -4.185832404E+02 -2.583740463E+02  2.099025279E+01  5.079711288E+02  1.250000000E+02  0.00000E+00  9.000E+00
      21     1     1     2   501   511 -4.419336453E+01 -3.292662643E+01  1.152577471E+01  5.630328302E+01  1.250277577E-06  0.00000E+00  9.000E+00
#rwgt            1           1   2.8395268773973220E-002           5        3636           0
</event>
<event>
      5   9999  3.19816E-02  4.37547E+01 -1.00000E+00  1.42464E-01
      21    -1     0     0   512   501  0.000000000E+00  0.000000000E+00  2.664284624E+02  2.664284624E+02  0.000000000E+00  0.00000E+00  9.000E+00
      21    -1     0     0   501   502  0.000000000E+00  0.000000000E+00 -2.423860671E+02  2.423860671E+02  0.000000000E+00  0.00000E+00  9.000E+00
      25     1     1     2     0     0  1.743797592E+02  1.022023112E+02 -2.586916519E+01  2.390561159E+02  1.250000000E+02  0.00000E+00  9.000E+00
      25     1     1     2     0     0 -1.310748998E+02 -1.084605220E+02  1.132210389E+01  2.114178427E+02  1.250000000E+02  0.00000E+00  9.000E+00
      21     1     1     2   512   502 -4.330485947E+01  6.258210772E+00  3.858945654E+01  5.834057089E+01  0.000000000E+00  0.00000E+00  9.000E+00
#rwgt            1           1   2.5684314967617548E-002           5        3692           0
</event>
<event>
      5   9999  3.19816E-02  2.56602E+01 -1.00000E+00  1.57908E-01
      21    -1     0     0   502   501  0.000000000E+00  0.000000000E+00  5.197546991E+02  5.197546991E+02  0.000000000E+00  0.00000E+00  9.000E+00
      21    -1     0     0   501   511  0.000000000E+00  0.000000000E+00 -1.086710174E+03  1.086710174E+03  0.000000000E+00  0.00000E+00  9.000E+00
      25     1     1     2     0     0 -2.175274666E+02  6.333548272E+02 -5.427440041E+02  8.710066532E+02  1.250000000E+02  0.00000E+00  9.000E+00
      25     1     1     2     0     0  2.346633835E+02 -6.524546667E+02 -7.042461928E+00  7.045839850E+02  1.250000000E+02  0.00000E+00  9.000E+00
      21     1     1     2   502   511 -1.713591692E+01  1.909983947E+01 -1.716900852E+01  3.087423473E+01  3.371747881E-07  0.00000E+00  9.000E+00
#rwgt            1           1   3.2327211729982687E-002           5        3837           0
</event>
<event>
      5   9999  3.19816E-02  9.70694E+01 -1.00000E+00  1.24412E-01
      21    -1     0     0   512   501  0.000000000E+00  0.000000000E+00  9.973739343E+02  9.973739343E+02  0.000000000E+00  0.00000E+00  9.000E+00
      21    -1     0     0   501   502  0.000000000E+00  0.000000000E+00 -3.372132929E+02  3.372132929E+02  0.000000000E+00  0.00000E+00  9.000E+00
      25     1     1     2     0     0 -5.164713552E+01  1.247602093E+02  7.748650491E+01  1.996539378E+02  1.250000000E+02  0.00000E+00  9.000E+00
      25     1     1     2     0     0  1.396176789E+02 -8.372777758E+01 -2.347150237E+02  3.118005442E+02  1.250000000E+02  0.00000E+00  9.000E+00
      21     1     1     2   512   502 -8.797054341E+01 -4.103243169E+01  8.173891603E+02  8.231327452E+02  1.078959322E-05  0.00000E+00  9.000E+00
#rwgt            1           1   2.8738792754896464E-002           5        4038           0
</event>
<event>
      5   9999  3.19816E-02  1.10578E+02 -1.00000E+00  1.21895E-01
      21    -1     0     0   502   501  0.000000000E+00  0.000000000E+00  2.931048385E+02  2.931048385E+02  0.000000000E+00  0.00000E+00  9.000E+00
      21    -1     0     0   511   502  0.000000000E+00  0.000000000E+00 -2.113824368E+03  2.113824368E+03  0.000000000E+00  0.00000E+00  9.000E+00
      25     1     1     2     0     0  3.363244332E+02 -6.381910163E+02 -1.172684796E+03  1.382467551E+03  1.250000000E+02  0.00000E+00  9.000E+00
      25     1     1     2     0     0 -3.567850410E+02  5.295227118E+02 -4.296822115E+02  7.797061438E+02  1.250000000E+02  0.00000E+00  9.000E+00
      21     1     1     2   511   501  2.046060782E+01  1.086683046E+02 -2.183525221E+02  2.447555123E+02  0.000000000E+00  0.00000E+00  9.000E+00
#rwgt            2          11   5.3857039146058576E-003           5        4068           0
</event>
<event>
      5   9999  3.19816E-02  2.40989E+02 -1.00000E+00  1.08778E-01
      21    -1     0     0   502   512  0.000000000E+00  0.000000000E+00  5.031716993E+02  5.031716993E+02  0.000000000E+00  0.00000E+00  9.000E+00
      21    -1     0     0   501   502  0.000000000E+00  0.000000000E+00 -5.233517743E+02  5.233517743E+02  0.000000000E+00  0.00000E+00  9.000E+00
      25     1     1     2     0     0 -1.342362767E+02  1.614689057E+02 -4.513009623E+01  2.485021349E+02  1.250000000E+02  0.00000E+00  9.000E+00
      25     1     1     2     0     0  3.751496618E+02 -1.675049498E+02 -1.761328069E+02  4.641583163E+02  1.250000000E+02  0.00000E+00  9.000E+00
      21     1     1     2   501   512 -2.409133851E+02  6.036044127E+00  2.010828282E+02  3.138630223E+02  2.697398305E-06  0.00000E+00  9.000E+00
#rwgt            1           1   2.8472604566813362E-002           5        4088           0
</event>
<event>
      5   9999  3.19816E-02  4.78995E+01 -1.00000E+00  1.40147E-01
      21    -1     0     0   502   511  0.000000000E+00  0.000000000E+00  1.410508361E+02  1.410508361E+02  0.000000000E+00  0.00000E+00  9.000E+00
      21    -1     0     0   501   502  0.000000000E+00  0.000000000E+00 -5.695707391E+02  5.695707391E+02  0.000000000E+00  0.00000E+00  9.000E+00
      25     1     1     2     0     0 -1.798760837E+02 -7.501085645E+01 -3.737851533E+02  4.396844038E+02  1.250000000E+02  0.00000E+00  9.000E+00
      25     1     1     2     0     0  1.413292264E+02  1.034449641E+02 -5.821979446E+01  2.229110929E+02  1.250000000E+02  0.00000E+00  9.000E+00
      21     1     1     2   501   511  3.854685729E+01 -2.843410767E+01  3.485044800E+00  4.802607858E+01  3.816559456E-07  0.00000E+00  9.000E+00
#rwgt            1           1   2.6457089604594811E-002           5        4150           0
</event>
<event>
      5   9999  3.19816E-02  1.04459E+02 -1.00000E+00  1.22982E-01
       2    -1     0     0   502     0  0.000000000E+00  0.000000000E+00  3.222388494E+03  3.222388494E+03  0.000000000E+00  0.00000E+00  9.000E+00
      21    -1     0     0   501   502  0.000000000E+00  0.000000000E+00 -7.336966724E+01  7.336966724E+01  0.000000000E+00  0.00000E+00  9.000E+00
      25     1     1     2     0     0  2.229484353E+02  1.495749790E+02  1.182964061E+03  1.219470233E+03  1.250000000E+02  0.00000E+00  9.000E+00
      25     1     1     2     0     0 -2.243762261E+02 -4.512568984E+01  2.641797049E+02  3.712100958E+02  1.250000000E+02  0.00000E+00  9.000E+00
       2     1     1     2   501     0  1.427790734E+00 -1.044492891E+02  1.701875061E+03  1.705077832E+03  0.000000000E+00  0.00000E+00  9.000E+00
#rwgt            1           1   2.8955276443824583E-002           5        4192           0
</event>
<event>
      5   9999  3.19816E-02  1.56035E+01 -1.00000E+00  1.75785E-01
      21    -1     0     0   502   501  0.000000000E+00  0.000000000E+00  1.563014946E+03  1.563014946E+03  0.000000000E+00  0.00000E+00  9.000E+00
      21    -1     0     0   511   502  0.000000000E+00  0.000000000E+00 -1.422552217E+02  1.422552217E+02  0.000000000E+00  0.00000E+00  9.000E+00
      25     1     1     2     0     0  5.654266608E+01  6.317851196E+01  3.188732748E+01  1.543709789E+02  1.250000000E+02  0.00000E+00  9.000E+00
      25     1     1     2     0     0 -6.744233251E+01 -5.201313458E+01  1.465203190E+03  1.472989892E+03  1.250000000E+02  0.00000E+00  9.000E+00
      21     1     1     2   511   501  1.089966643E+01 -1.116537739E+01 -7.633079368E+01  7.790929626E+01  9.536743164E-07  0.00000E+00  9.000E+00
#rwgt            1           1   2.9231582393131793E-002           5        4277           0
</event>
<event>
      5   9999  3.19816E-02  6.46298E+01 -1.00000E+00  1.33001E-01
      21    -1     0     0   502   501  0.000000000E+00  0.000000000E+00  5.318485003E+02  5.318485003E+02  0.000000000E+00  0.00000E+00  9.000E+00
      -1    -1     0     0     0   502  0.000000000E+00  0.000000000E+00 -1.590225993E+03  1.590225993E+03  0.000000000E+00  0.00000E+00  9.000E+00
      25     1     1     2     0     0  2.748165281E+02  2.331019347E+02 -1.435327130E+03  1.485142959E+03  1.250000000E+02  0.00000E+00  9.000E+00
      25     1     1     2     0     0 -3.236010465E+02 -1.907099589E+02  4.051254692E+02  5.664270222E+02  1.250000000E+02  0.00000E+00  9.000E+00
      -1     1     1     2     0   501  4.878451836E+01 -4.239197577E+01 -2.817583189E+01  7.050451293E+01  1.066240300E-06  0.00000E+00  9.000E+00
#rwgt            1           1   3.2032793590949522E-002           5        4510           0
</event>
<event>
      5   9999  3.19816E-02  2.47322E+02 -1.00000E+00  1.08390E-01
      21    -1     0     0   502   511  0.000000000E+00  0.000000000E+00  1.495286155E+03  1.495286155E+03  0.000000000E+00  0.00000E+00  9.000E+00
      21    -1     0     0   501   502  0.000000000E+00  0.000000000E+00 -1.101637570E+02  1.101637570E+02  0.000000000E+00  0.00000E+00  9.000E+00
      25     1     1     2     0     0  4.735027273E+01  1.172472943E+02  2.483503819E+01  1.795292607E+02  1.250000000E+02  0.00000E+00  9.000E+00
      25     1     1     2     0     0 -2.481406492E+00  1.259704526E+02  4.890481102E+02  5.202574040E+02  1.250000000E+02  0.00000E+00  9.000E+00
      21     1     1     2   501   511 -4.486886623E+01 -2.432177468E+02  8.712392499E+02  9.056632476E+02  1.078959322E-05  0.00000E+00  9.000E+00
#rwgt            2          11   2.0851445865367004E-003           5        4724           0
</event>
<event>
      5   9999  3.19816E-02  4.90307E+01 -1.00000E+00  1.39562E-01
      21    -1     0     0   502   501  0.000000000E+00  0.000000000E+00  2.281075220E+03  2.281075220E+03  0.000000000E+00  0.00000E+00  9.000E+00
      21    -1     0     0   501   512  0.000000000E+00  0.000000000E+00 -1.138279960E+03  1.138279960E+03  0.000000000E+00  0.00000E+00  9.000E+00
      25     1     1     2     0     0  1.458387704E+03  8.006642265E+01  1.113226562E+03  1.840707393E+03  1.250000000E+02  0.00000E+00  9.000E+00
      25     1     1     2     0     0 -1.444890114E+03 -1.272026855E+02  1.352728727E+02  1.462125752E+03  1.250000000E+02  0.00000E+00  9.000E+00
      21     1     1     2   502   512 -1.349758981E+01  4.713626286E+01 -1.057041743E+02  1.165220352E+02  1.907348633E-06  0.00000E+00  9.000E+00
#rwgt            2          11   1.5772592272370579E-002           5        4759           0
</event>
<event>
      5   9999  3.19816E-02  1.95129E+02 -1.00000E+00  1.12039E-01
      21    -1     0     0   502   501  0.000000000E+00  0.000000000E+00  2.044575259E+02  2.044575259E+02  0.000000000E+00  0.00000E+00  9.000E+00
      21    -1     0     0   501   511  0.000000000E+00  0.000000000E+00 -1.721540248E+03  1.721540248E+03  0.000000000E+00  0.00000E+00  9.000E+00
      25     1     1     2     0     0 -2.483788482E+02 -3.310950036E+02 -6.030987146E+02  7.420707602E+02  1.250000000E+02  0.00000E+00  9.000E+00
      25     1     1     2     0     0  1.777437041E+02  5.129909718E+02 -6.621921064E+02  8.653761883E+02  1.250000000E+02  0.00000E+00  9.000E+00
      21     1     1     2   502   511  7.063514408E+01 -1.818959682E+02 -2.517919008E+02  3.185508251E+02  3.814697266E-06  0.00000E+00  9.000E+00
#rwgt            1           1   2.7924007875847093E-002           5        4794           0
</event>
<event>
      5   9999  3.19816E-02  9.82351E+00 -1.00000E+00  1.96655E-01
      21    -1     0     0   512   501  0.000000000E+00  0.000000000E+00  2.306402060E+03  2.306402060E+03  0.000000000E+00  0.00000E+00  9.000E+00
      21    -1     0     0   501   502  0.000000000E+00  0.000000000E+00 -1.286318802E+02  1.286318802E+02  0.000000000E+00  0.00000E+00  9.000E+00
      25     1     1     2     0     0  3.096545813E+02  4.294897679E+02  1.083224948E+03  1.212166947E+03  1.250000000E+02  0.00000E+00  9.000E+00
      25     1     1     2     0     0 -3.070157212E+02 -4.200273245E+02  1.067544771E+03  1.194135019E+03  1.250000000E+02  0.00000E+00  9.000E+00
      21     1     1     2   512   502 -2.638860132E+00 -9.462443349E+00  2.700046129E+01  2.873197395E+01  4.768371582E-07  0.00000E+00  9.000E+00
#rwgt            1           1   2.7811079362482300E-002           5        4869           0
</event>
<event>
      5   9999  3.19816E-02  5.49608E+01 -1.00000E+00  1.36771E-01
      21    -1     0     0   511   501  0.000000000E+00  0.000000000E+00  7.726282899E+02  7.726282899E+02  0.000000000E+00  0.00000E+00  9.000E+00
      21    -1     0     0   501   502  0.000000000E+00  0.000000000E+00 -1.614327316E+02  1.614327316E+02  0.000000000E+00  0.00000E+00  9.000E+00
      25     1     1     2     0     0  2.523113701E+01 -1.906783947E+02 -3.560820544E+01  2.321374696E+02  1.250000000E+02  0.00000E+00  9.000E+00
      25     1     1     2     0     0 -4.516503045E+01  1.394599660E+02  5.985382072E+02  6.287781385E+02  1.250000000E+02  0.00000E+00  9.000E+00
      21     1     1     2   511   502  1.993389344E+01  5.121842870E+01  4.826555655E+01  7.314541335E+01  1.348699152E-06  0.00000E+00  9.000E+00
#rwgt            1           1   3.0153889894936291E-002           5        5226           0
</event>
<event>
      5   9999  3.19816E-02  1.85900E+01 -1.00000E+00  1.69032E-01
      21    -1     0     0   502   512  0.000000000E+00  0.000000000E+00  1.303525586E+03  1.303525586E+03  0.000000000E+00  0.00000E+00  9.000E+00
      21    -1     0     0   501   502  0.000000000E+00  0.000000000E+00 -2.648655075E+02  2.648655075E+02  0.000000000E+00  0.00000E+00  9.000E+00
      25     1     1     2     0     0 -4.361920039E+02  2.680403164E+02  3.884653638E+02  6.547055937E+02  1.250000000E+02  0.00000E+00  9.000E+00
      25     1     1     2     0     0  4.498807814E+02 -2.806183138E+02  4.334987568E+02  6.961935993E+02  1.250000000E+02  0.00000E+00  9.000E+00
      21     1     1     2   501   512 -1.368877750E+01  1.257799739E+01  2.166959576E+02  2.174919003E+02  4.672030912E-06  0.00000E+00  9.000E+00
#rwgt            1           1   3.3299468456552406E-002           5        5441           0
</event>
<event>
      5   9999  3.19816E-02  1.60593E+01 -1.00000E+00  1.74637E-01
      21    -1     0     0   502   501  0.000000000E+00  0.000000000E+00  5.816513327E+02  5.816513327E+02  0.000000000E+00  0.00000E+00  9.000E+00
      21    -1     0     0   501   511  0.000000000E+00  0.000000000E+00 -8.036128418E+02  8.036128418E+02  0.000000000E+00  0.00000E+00  9.000E+00
      25     1     1     2     0     0  4.290148482E+02 -3.461022948E+02 -4.266843059E+02  7.081843230E+02  1.250000000E+02  0.00000E+00  9.000E+00
      25     1     1     2     0     0 -4.133218070E+02  3.426922338E+02  2.671711615E+02  6.125996350E+02  1.250000000E+02  0.00000E+00  9.000E+00
      21     1     1     2   502   511 -1.569304118E+01  3.410060923E+00 -6.244836465E+01  6.448021638E+01  0.000000000E+00  0.00000E+00  9.000E+00
#rwgt            1           1   3.0717857061447792E-002           5        5682           0
</event>
<event>
      5   9999  3.19816E-02  9.93195E+01 -1.00000E+00  1.23961E-01
      21    -1     0     0   502   512  0.000000000E+00  0.000000000E+00  2.628210777E+03  2.628210777E+03  0.000000000E+00  0.00000E+00  9.000E+00
      21    -1     0     0   501   502  0.000000000E+00  0.000000000E+00 -1.752162546E+02  1.752162546E+02  0.000000000E+00  0.00000E+00  9.000E+00
      25     1     1     2     0     0 -3.862235325E+02  2.000617023E+02  2.079558025E+03  2.128233982E+03  1.250000000E+02  0.00000E+00  9.000E+00
      25     1     1     2     0     0  3.094160783E+02 -1.370936613E+02  8.572206548E+01  3.708183571E+02  1.250000000E+02  0.00000E+00  9.000E+00
      21     1     1     2   501   512  7.680745417E+01 -6.296804100E+01  2.877144324E+02  3.043746932E+02  5.394796609E-06  0.00000E+00  9.000E+00
#rwgt            1           1   4.0066510024845146E-002           5        5858           0
</event>
<event>
      5   9999  3.19816E-02  5.20646E+01 -1.00000E+00  1.38080E-01
      21    -1     0     0   502   501  0.000000000E+00  0.000000000E+00  1.506747057E+02  1.506747057E+02  0.000000000E+00  0.00000E+00  9.000E+00
      21    -1     0     0   511   502  0.000000000E+00  0.000000000E+00 -6.141465556E+02  6.141465556E+02  0.000000000E+00  0.00000E+00  9.000E+00
      25     1     1     2     0     0  1.545560903E+02  9.383179550E+01  2.377515054E+01  2.210933031E+02  1.250000000E+02  0.00000E+00  9.000E+00
      25     1     1     2     0     0 -1.246445041E+02 -5.121706910E+01 -3.255380744E+02  3.738441901E+02  1.250000000E+02  0.00000E+00  9.000E+00
      21     1     1     2   511   501 -2.991158615E+01 -4.261472640E+01 -1.617089260E+02  1.698837680E+02  1.907348633E-06  0.00000E+00  9.000E+00
#rwgt            1           1   2.6590110361156539E-002           5        5980           0
</event>
<event>
      5   9999  3.19816E-02  4.87479E+02 -1.00000E+00  9.91659E-02
      21    -1     0     0   502   501  0.000000000E+00  0.000000000E+00  1.945381318E+03  1.945381318E+03  0.000000000E+00  0.00000E+00  9.000E+00
      21    -1     0     0   512   502  0.000000000E+00  0.000000000E+00 -5.944088965E+02  5.944088965E+02  0.000000000E+00  0.00000E+00  9.000E+00
      25     1     1     2     0     0  1.786641704E+02 -2.218946455E+02  2.755686384E+02  4.155973940E+02  1.250000000E+02  0.00000E+00  9.000E+00
      25     1     1     2     0     0 -5.784121236E+02 -5.709950068E+01  1.411827173E+03  1.531894874E+03  1.250000000E+02  0.00000E+00  9.000E+00
      21     1     1     2   512   501  3.997479532E+02  2.789941462E+02 -3.364233903E+02  5.922979463E+02  0.000000000E+00  0.00000E+00  9.000E+00
#rwgt            2          11   4.4949296129210030E-003           5        6101           0
</event>
<event>
      5   9999  3.19816E-02  3.27487E+02 -1.00000E+00  1.04370E-01
      21    -1     0     0   502   501  0.000000000E+00  0.000000000E+00  1.529130179E+03  1.529130179E+03  0.000000000E+00  0.00000E+00  9.000E+00
      -1    -1     0     0     0   502  0.000000000E+00  0.000000000E+00 -5.586302134E+02  5.586302134E+02  0.000000000E+00  0.00000E+00  9.000E+00
      25     1     1     2     0     0 -2.003351559E+02 -3.204262590E+02  1.234746955E+01  3.982268476E+02  1.250000000E+02  0.00000E+00  9.000E+00
      25     1     1     2     0     0  2.223137604E+02 -6.322716929E+00  1.234772510E+03  1.260853495E+03  1.250000000E+02  0.00000E+00  9.000E+00
      -1     1     1     2     0   501 -2.197860455E+01  3.267489759E+02 -2.766200143E+02  4.286800493E+02  5.394796609E-06  0.00000E+00  9.000E+00
#rwgt            2          10   2.0936897765299857E-004           5        6271           0
</event>
<event>
      5   9999  3.19816E-02  1.22304E+02 -1.00000E+00  1.20019E-01
      21    -1     0     0   502   501  0.000000000E+00  0.000000000E+00  7.445992666E+01  7.445992666E+01  0.000000000E+00  0.00000E+00  9.000E+00
      21    -1     0     0   501   511  0.000000000E+00  0.000000000E+00 -1.393347752E+03  1.393347752E+03  0.000000000E+00  0.00000E+00  9.000E+00
      25     1     1     2     0     0 -1.446521787E+02 -1.759537224E+02 -3.188089824E+02  4.112762241E+02  1.250000000E+02  0.00000E+00  9.000E+00
      25     1     1     2     0     0  2.980393134E+01  1.339032808E+02 -3.616150509E+02  4.064588638E+02  1.250000000E+02  0.00000E+00  9.000E+00
      21     1     1     2   502   511  1.148482474E+02  4.205044157E+01 -6.384637919E+02  6.500725906E+02  1.078959322E-05  0.00000E+00  9.000E+00
#rwgt            2          11   1.6027685038094925E-003           5        6290           0
</event>
<event>
      5   9999  3.19816E-02  1.12618E+02 -1.00000E+00  1.21550E-01
      21    -1     0     0   502   512  0.000000000E+00  0.000000000E+00  7.686253788E+02  7.686253788E+02  0.000000000E+00  0.00000E+00  9.000E+00
      21    -1     0     0   501   502  0.000000000E+00  0.000000000E+00 -3.116032949E+02  3.116032949E+02  0.000000000E+00  0.00000E+00  9.000E+00
      25     1     1     2     0     0  1.311441406E+02  1.477755931E+01  2.595506808E+02  3.168733466E+02  1.250000000E+02  0.00000E+00  9.000E+00
      25     1     1     2     0     0 -5.979560298E+01  7.235555926E+01 -2.538912425E+02  2.981553356E+02  1.250000000E+02  0.00000E+00  9.000E+00
      21     1     1     2   501   512 -7.134853763E+01 -8.713311857E+01  4.513626457E+02  4.651999915E+02  5.394796609E-06  0.00000E+00  9.000E+00
#rwgt            1           1   2.9489441468195151E-002           5        6310           0
</event>
<event>
      5   9999  3.19816E-02  8.42655E+01 -1.00000E+00  1.27267E-01
      21    -1     0     0   511   501  0.000000000E+00  0.000000000E+00  5.808817080E+02  5.808817080E+02  0.000000000E+00  0.00000E+00  9.000E+00
      21    -1     0     0   501   502  0.000000000E+00  0.000000000E+00 -8.354661823E+02  8.354661823E+02  0.000000000E+00  0.00000E+00  9.000E+00
      25     1     1     2     0     0 -1.079535539E+01 -1.682988016E+02 -5.351701489E+02  5.748679105E+02  1.250000000E+02  0.00000E+00  9.000E+00
      25     1     1     2     0     0  6.810109762E+00  2.524700302E+02 -2.051005631E+02  3.485379960E+02  1.250000000E+02  0.00000E+00  9.000E+00
      21     1     1     2   511   502  3.985245625E+00 -8.417122853E+01  4.856862376E+02  4.929419837E+02  5.394796609E-06  0.00000E+00  9.000E+00
#rwgt            2          11   1.2191872889337863E-002           5        6857           0
</event>
<event>
      5   9999  3.19816E-02  3.16053E+02 -1.00000E+00  1.04862E-01
      21    -1     0     0   502   501  0.000000000E+00  0.000000000E+00  6.980504582E+02  6.980504582E+02  0.000000000E+00  0.00000E+00  9.000E+00
      21    -1     0     0   512   502  0.000000000E+00  0.000000000E+00 -9.788090878E+02  9.788090878E+02  0.000000000E+00  0.00000E+00  9.000E+00
      25     1     1     2     0     0 -1.535769680E+02  9.023843798E+01 -4.688612212E+02  5.168991251E+02  1.250000000E+02  0.00000E+00  9.000E+00
      25     1     1     2     0     0 -1.230402442E+02 -2.431195752E+02  5.821611875E+02  6.548149951E+02  1.250000000E+02  0.00000E+00  9.000E+00
      21     1     1     2   512   501  2.766172121E+02  1.528811372E+02 -3.940585959E+02  5.051454258E+02  0.000000000E+00  0.00000E+00  9.000E+00
#rwgt            1           1   2.9576173291675719E-002           5        6877           0
</event>
<event>
      5   9999  3.19816E-02  1.43318E+01 -1.00000E+00  1.79269E-01
      21    -1     0     0   511   501  0.000000000E+00  0.000000000E+00  8.512098350E+02  8.512098350E+02  0.000000000E+00  0.00000E+00  9.000E+00
      21    -1     0     0   501   502  0.000000000E+00  0.000000000E+00 -8.012884509E+01  8.012884509E+01  0.000000000E+00  0.00000E+00  9.000E+00
      25     1     1     2     0     0  3.884335499E+01  2.050279279E+02  3.978392574E+02  4.663114112E+02  1.250000000E+02  0.00000E+00  9.000E+00
      25     1     1     2     0     0 -3.890738604E+01 -2.193595601E+02  3.176928672E+02  4.076593666E+02  1.250000000E+02  0.00000E+00  9.000E+00
      21     1     1     2   511   502  6.403104682E-02  1.433163227E+01  5.554886525E+01  5.736790229E+01  0.000000000E+00  0.00000E+00  9.000E+00
#rwgt            1           1   2.7974481574253699E-002           5        6953           0
</event>
<event>
      5   9999  3.19816E-02  3.15083E+01 -1.00000E+00  1.51575E-01
      21    -1     0     0   512   501  0.000000000E+00  0.000000000E+00  3.464965721E+02  3.464965721E+02  0.000000000E+00  0.00000E+00  9.000E+00
      21    -1     0     0   501   502  0.000000000E+00  0.000000000E+00 -7.892189362E+02  7.892189362E+02  0.000000000E+00  0.00000E+00  9.000E+00
      25     1     1     2     0     0  2.063723481E+02  2.892342431E+00 -6.625041647E+02  7.050777829E+02  1.250000000E+02  0.00000E+00  9.000E+00
      25     1     1     2     0     0 -1.802025442E+02 -2.043987667E+01  1.211672185E+01  2.205959212E+02  1.250000000E+02  0.00000E+00  9.000E+00
      21     1     1     2   512   502 -2.616980384E+01  1.754753424E+01  2.076650788E+02  2.100418042E+02  2.697398305E-06  0.00000E+00  9.000E+00
#rwgt            1           1   2.9112039742445504E-002           5        7055           0
</event>
<event>
      5   9999  3.19816E-02  1.64997E+02 -1.00000E+00  1.14777E-01
      21    -1     0     0   502   501  0.000000000E+00  0.000000000E+00  5.719526902E+02  5.719526902E+02  0.000000000E+00  0.00000E+00  9.000E+00
       2    -1     0     0   501     0  0.000000000E+00  0.000000000E+00 -3.018377158E+03  3.018377158E+03  0.000000000E+00  0.00000E+00  9.000E+00
      25     1     1     2     0     0 -2.030335427E+02 -3.300991809E+01  5.141125717E+02  5.676698077E+02  1.250000000E+02  0.00000E+00  9.000E+00
      25     1     1     2     0     0  6.387887953E+01 -5.564633247E+01 -1.705255539E+02  2.277739891E+02  1.250000000E+02  0.00000E+00  9.000E+00
       2     1     1     2   502     0  1.391546631E+02  8.865625056E+01 -2.790011486E+03  2.794886052E+03  3.051757812E-05  0.00000E+00  9.000E+00
#rwgt            1           1   2.9038029298056694E-002           5        7214           0
</event>
<event>
      5   9999  3.19816E-02  7.09761E+01 -1.00000E+00  1.30917E-01
      21    -1     0     0   502   501  0.000000000E+00  0.000000000E+00  6.785245647E+02  6.785245647E+02  0.000000000E+00  0.00000E+00  9.000E+00
      21    -1     0     0   511   502  0.000000000E+00  0.000000000E+00 -5.325034961E+02  5.325034961E+02  0.000000000E+00  0.00000E+00  9.000E+00
      25     1     1     2     0     0 -1.508721027E+02 -4.186912272E+02 -1.539554493E+02  4.872289148E+02  1.250000000E+02  0.00000E+00  9.000E+00
      25     1     1     2     0     0  2.202927237E+02  4.334688574E+02  3.703372409E+02  6.238580018E+02  1.250000000E+02  0.00000E+00  9.000E+00
      21     1     1     2   511   501 -6.942062096E+01 -1.477763020E+01 -7.036072303E+01  9.994114425E+01  1.348699152E-06  0.00000E+00  9.000E+00
#rwgt            1           1   3.4821486137567040E-002           5        7275           0
</event>
<event>
      5   9999  3.19816E-02  9.44139E+01 -1.00000E+00  1.24961E-01
      21    -1     0     0   502   501  0.000000000E+00  0.000000000E+00  1.243698374E+02  1.243698374E+02  0.000000000E+00  0.00000E+00  9.000E+00
      21    -1     0     0   501   512  0.000000000E+00  0.000000000E+00 -2.086941776E+03  2.086941776E+03  0.000000000E+00  0.00000E+00  9.000E+00
      25     1     1     2     0     0  1.069880834E+02  1.581920913E+02 -2.517678570E+01  2.296302643E+02  1.250000000E+02  0.00000E+00  9.000E+00
      25     1     1     2     0     0 -1.432671020E+02 -2.453575770E+02 -1.656837703E+03  1.685663661E+03  1.250000000E+02  0.00000E+00  9.000E+00
      21     1     1     2   502   512  3.627901859E+01  8.716548566E+01 -2.805574498E+02  2.960176882E+02  3.814697266E-06  0.00000E+00  9.000E+00
#rwgt            1           1   3.1351949533000703E-002           5        7365           0
</event>
<event>
      5   9999  3.19816E-02  2.50168E+01 -1.00000E+00  1.58729E-01
      21    -1     0     0   502   501  0.000000000E+00  0.000000000E+00  4.338576896E+02  4.338576896E+02  0.000000000E+00  0.00000E+00  9.000E+00
       2    -1     0     0   501     0  0.000000000E+00  0.000000000E+00 -1.005638979E+03  1.005638979E+03  0.000000000E+00  0.00000E+00  9.000E+00
      25     1     1     2     0     0 -5.689479559E+02 -3.982625595E+01 -4.893101783E+01  5.859241859E+02  1.250000000E+02  0.00000E+00  9.000E+00
      25     1     1     2     0     0  5.549789623E+02  1.907275729E+01 -3.276355836E+02  6.567613678E+02  1.250000000E+02  0.00000E+00  9.000E+00
       2     1     1     2   502     0  1.396899354E+01  2.075349866E+01 -1.952146877E+02  1.968111145E+02  2.697398305E-06  0.00000E+00  9.000E+00
#rwgt            1           1   3.0289567616617902E-002           5        7509           0
</event>
<event>
      5   9999  3.19816E-02  6.35684E+01 -1.00000E+00  1.33376E-01
      21    -1     0     0   511   501  0.000000000E+00  0.000000000E+00  4.909840493E+02  4.909840493E+02  0.000000000E+00  0.00000E+00  9.000E+00
      21    -1     0     0   501   502  0.000000000E+00  0.000000000E+00 -7.684560766E+02  7.684560766E+02  0.000000000E+00  0.00000E+00  9.000E+00
      25     1     1     2     0     0 -3.484598787E+02 -2.925813351E+02  1.136824277E+02  4.853625646E+02  1.250000000E+02  0.00000E+00  9.000E+00
      25     1     1     2     0     0  3.358058058E+02  2.302851724E+02 -4.945599098E+02  6.526954146E+02  1.250000000E+02  0.00000E+00  9.000E+00
      21     1     1     2   511   502  1.265407298E+01  6.229616263E+01  1.034054549E+02  1.213821467E+02  1.348699152E-06  0.00000E+00  9.000E+00
#rwgt            1           1   3.3486989759689605E-002           5        7719           0
</event>
<event>
      5   9999  3.19816E-02  5.76293E+01 -1.00000E+00  1.35646E-01
      21    -1     0     0   502   501  0.000000000E+00  0.000000000E+00  8.521586627E+02  8.521586627E+02  0.000000000E+00  0.00000E+00  9.000E+00
      -4    -1     0     0     0   502  0.000000000E+00  0.000000000E+00 -4.263971837E+02  4.263971837E+02  0.000000000E+00  0.00000E+00  9.000E+00
      25     1     1     2     0     0  2.935488363E+02 -2.633958613E+02  6.222250723E+02  7.472197399E+02  1.250000000E+02  0.00000E+00  9.000E+00
      25     1     1     2     0     0 -3.280971416E+02  2.172704702E+02 -1.097667274E+02  4.272328709E+02  1.250000000E+02  0.00000E+00  9.000E+00
      -4     1     1     2     0   501  3.454830532E+01  4.612539109E+01 -8.669686595E+01  1.041032356E+02  1.907348633E-06  0.00000E+00  9.000E+00
#rwgt            1           1   2.6322935020004636E-002           5        7791           0
</event>
<event>
      5   9999  3.19816E-02  2.15743E+02 -1.00000E+00  1.10463E-01
      -1    -1     0     0     0   501  0.000000000E+00  0.000000000E+00  3.610643763E+02  3.610643763E+02  0.000000000E+00  0.00000E+00  9.000E+00
      21    -1     0     0   501   502  0.000000000E+00  0.000000000E+00 -5.581470290E+02  5.581470290E+02  0.000000000E+00  0.00000E+00  9.000E+00
      25     1     1     2     0     0  2.354169238E+02 -4.554802741E+01  1.994211483E+02  3.359903945E+02  1.250000000E+02  0.00000E+00  9.000E+00
      25     1     1     2     0     0 -4.210230968E+01 -5.023475964E+01 -3.276505599E+02  3.567576558E+02  1.250000000E+02  0.00000E+00  9.000E+00
      -1     1     1     2     0   502 -1.933146141E+02  9.578278705E+01 -6.885324115E+01  2.264633550E+02  2.861022949E-06  0.00000E+00  9.000E+00
#rwgt            1           1   2.5601689484521177E-002           5        7860           0
</event>
<event>
      5   9999  3.19816E-02  3.24866E+01 -1.00000E+00  1.50676E-01
      21    -1     0     0   502   511  0.000000000E+00  0.000000000E+00  5.065398553E+02  5.065398553E+02  0.000000000E+00  0.00000E+00  9.000E+00
      21    -1     0     0   501   502  0.000000000E+00  0.000000000E+00 -1.423182649E+02  1.423182649E+02  0.000000000E+00  0.00000E+00  9.000E+00
      25     1     1     2     0     0 -7.359091696E+01 -1.588452234E+02  1.569090885E+01  2.156817857E+02  1.250000000E+02  0.00000E+00  9.000E+00
      25     1     1     2     0     0  1.055959970E+02  1.532727404E+02  3.132244334E+02  3.851981220E+02  1.250000000E+02  0.00000E+00  9.000E+00
      21     1     1     2   501   511 -3.200508008E+01  5.572483058E+00  3.530624805E+01  4.797821245E+01  4.768371582E-07  0.00000E+00  9.000E+00
#rwgt            1           1   2.6877962972876947E-002           5        7893           0
</event>
<event>
      5   9999  3.19816E-02  1.58196E+01 -1.00000E+00  1.75234E-01
      21    -1     0     0   502   512  0.000000000E+00  0.000000000E+00  4.994430678E+02  4.994430678E+02  0.000000000E+00  0.00000E+00  9.000E+00
      21    -1     0     0   501   502  0.000000000E+00  0.000000000E+00 -4.720587321E+01  4.720587321E+01  0.000000000E+00  0.00000E+00  9.000E+00
      25     1     1     2     0     0 -2.018387425E+00  4.491510297E+00  2.362721479E+02  2.673457974E+02  1.250000000E+02  0.00000E+00  9.000E+00
      25     1     1     2     0     0 -7.166378269E+00 -1.737177444E+01  9.711125983E+01  1.594011678E+02  1.250000000E+02  0.00000E+00  9.000E+00
      21     1     1     2   501   512  9.184765694E+00  1.288026414E+01  1.188537869E+02  1.199019757E+02  0.000000000E+00  0.00000E+00  9.000E+00
#rwgt            1           1   3.3259122304305339E-003           5        7979           0
</event>
<event>
      5   9999  3.19816E-02  2.51916E+01 -1.00000E+00  1.58503E-01
      21    -1     0     0   511   501  0.000000000E+00  0.000000000E+00  7.449334722E+02  7.449334722E+02  0.000000000E+00  0.00000E+00  9.000E+00
      21    -1     0     0   501   502  0.000000000E+00  0.000000000E+00 -1.632289813E+03  1.632289813E+03  0.000000000E+00  0.00000E+00  9.000E+00
      25     1     1     2     0     0 -9.702520220E+01 -5.416485545E+02 -1.441053154E+03  1.547596924E+03  1.250000000E+02  0.00000E+00  9.000E+00
      25     1     1     2     0     0  8.430045162E+01  5.633901387E+02  5.540499261E+02  8.044323061E+02  1.250000000E+02  0.00000E+00  9.000E+00
      21     1     1     2   511   502  1.272475059E+01 -2.174158413E+01 -3.531136168E-01  2.519405579E+01  3.126581797E-07  0.00000E+00  9.000E+00
#rwgt            1           1   1.6661201519966237E-002           5        8157           0
</event>
<event>
      5   9999  3.19816E-02  6.21033E+01 -1.00000E+00  1.33909E-01
      21    -1     0     0   502   501  0.000000000E+00  0.000000000E+00  1.576996938E+03  1.576996938E+03  0.000000000E+00  0.00000E+00  9.000E+00
      21    -1     0     0   501   512  0.000000000E+00  0.000000000E+00 -4.135587739E+02  4.135587739E+02  0.000000000E+00  0.00000E+00  9.000E+00
      25     1     1     2     0     0  3.802091843E+02  5.428803197E+02  8.379803146E+02  1.075692369E+03  1.250000000E+02  0.00000E+00  9.000E+00
      25     1     1     2     0     0 -4.020857788E+02 -4.847577752E+02  4.442628640E+02  7.808057162E+02  1.250000000E+02  0.00000E+00  9.000E+00
      21     1     1     2   502   512  2.187659441E+01 -5.812254449E+01 -1.188050149E+02  1.340576261E+02  2.336015456E-06  0.00000E+00  9.000E+00
#rwgt            1           1   3.0989198840473568E-002           5        8427           0
</event>
<event>
      5   9999  3.19816E-02  2.52103E+01 -1.00000E+00  1.58479E-01
      21    -1     0     0   502   501  0.000000000E+00  0.000000000E+00  7.242674471E+02  7.242674471E+02  0.000000000E+00  0.00000E+00  9.000E+00
      21    -1     0     0   511   502  0.000000000E+00  0.000000000E+00 -3.474199180E+02  3.474199180E+02  0.000000000E+00  0.00000E+00  9.000E+00
      25     1     1     2     0     0 -3.667818751E+02  2.717729186E+02  2.383135980E+02  5.299130440E+02  1.250000000E+02  0.00000E+00  9.000E+00
      25     1     1     2     0     0  3.763232527E+02 -2.951078737E+02  1.461236080E+02  5.154463662E+02  1.250000000E+02  0.00000E+00  9.000E+00
      21     1     1     2   511   501 -9.541377647E+00  2.333495506E+01 -7.589676890E+00  2.632795492E+01  4.380028980E-07  0.00000E+00  9.000E+00
#rwgt            1           1   3.0351829357710122E-002           5        8571           0
</event>
<event>
      5   9999  3.19816E-02  1.00434E+01 -1.00000E+00  1.95540E-01
      21    -1     0     0   502   501  0.000000000E+00  0.000000000E+00  3.200440289E+02  3.200440289E+02  0.000000000E+00  0.00000E+00  9.000E+00
      21    -1     0     0   512   502  0.000000000E+00  0.000000000E+00 -1.554463073E+02  1.554463073E+02  0.000000000E+00  0.00000E+00  9.000E+00
      25     1     1     2     0     0  4.038642829E+01 -5.381455447E+01  2.586038333E+02  2.950051058E+02  1.250000000E+02  0.00000E+00  9.000E+00
      25     1     1     2     0     0 -4.595401096E+01  4.545559061E+01 -9.586189776E+01  1.702717983E+02  1.250000000E+02  0.00000E+00  9.000E+00
      21     1     1     2   512   501  5.567582671E+00  8.358963862E+00  1.855786031E+00  1.021343211E+01  1.316034923E-07  0.00000E+00  9.000E+00
#rwgt            1           1   2.6319450011313229E-002           5        8752           0
</event>
<event>
      5   9999  3.19816E-02  2.30638E+02 -1.00000E+00  1.09440E-01
      21    -1     0     0   502   501  0.000000000E+00  0.000000000E+00  2.572622441E+02  2.572622441E+02  0.000000000E+00  0.00000E+00  9.000E+00
      21    -1     0     0   501   511  0.000000000E+00  0.000000000E+00 -2.044665560E+03  2.044665560E+03  0.000000000E+00  0.00000E+00  9.000E+00
      25     1     1     2     0     0  4.246227802E+00 -1.607008552E+02 -1.908880256E+01  2.045291610E+02  1.250000000E+02  0.00000E+00  9.000E+00
      25     1     1     2     0     0 -2.348758987E+02  1.587678916E+02  4.276122472E+00  3.098664493E+02  1.250000000E+02  0.00000E+00  9.000E+00
      21     1     1     2   502   511  2.306296709E+02  1.932963525E+00 -1.772590636E+03  1.787532194E+03  2.157918644E-05  0.00000E+00  9.000E+00
#rwgt            1           1   2.6169835415860931E-002           5        8950           0
</event>
<event>
      5   9999  3.19816E-02  3.94717E+01 -1.00000E+00  1.45199E-01
      21    -1     0     0   502   512  0.000000000E+00  0.000000000E+00  5.154545746E+02  5.154545746E+02  0.000000000E+00  0.00000E+00  9.000E+00
      21    -1     0     0   501   502  0.000000000E+00  0.000000000E+00 -3.294088440E+02  3.294088440E+02  0.000000000E+00  0.00000E+00  9.000E+00
      25     1     1     2     0     0 -3.174852406E+02  4.967807154E+01  2.682056459E+02  4.368341301E+02  1.250000000E+02  0.00000E+00  9.000E+00
      25     1     1     2     0     0  3.212819151E+02 -8.896673338E+01 -9.120821372E+01  3.675337901E+02  1.250000000E+02  0.00000E+00  9.000E+00
      21     1     1     2   501   512 -3.796674548E+00  3.928866184E+01  9.048298488E+00  4.049549842E+01  9.156639275E-07  0.00000E+00  9.000E+00
#rwgt            1           1   2.6402551591690762E-002           5        8992           0
</event>
<event>
      5   9999  3.19816E-02  1.39592E+02 -1.00000E+00  1.17645E-01
      21    -1     0     0   502   501  0.000000000E+00  0.000000000E+00  8.903149238E+02  8.903149238E+02  0.000000000E+00  0.00000E+00  9.000E+00
       2    -1     0     0   501     0  0.000000000E+00  0.000000000E+00 -4.683928981E+02  4.683928981E+02  0.000000000E+00  0.00000E+00  9.000E+00
      25     1     1     2     0     0  2.568354750E+02 -1.866211810E+02  3.920513149E+02  5.197318154E+02  1.250000000E+02  0.00000E+00  9.000E+00
      25     1     1     2     0     0 -3.805963387E+02  1.220529541E+02  3.133220229E+02  5.230164306E+02  1.250000000E+02  0.00000E+00  9.000E+00
       2     1     1     2   502     0  1.237608637E+02  6.456822686E+01 -2.834513121E+02  3.159595759E+02  0.000000000E+00  0.00000E+00  9.000E+00
#rwgt            1           1   1.7647800065712604E-002           5        9136           0
</event>
<event>
      5   9999  3.19816E-02  1.15976E+01 -1.00000E+00  1.88599E-01
      21    -1     0     0   502   501  0.000000000E+00  0.000000000E+00  9.891915672E+02  9.891915672E+02  0.000000000E+00  0.00000E+00  9.000E+00
      21    -1     0     0   501   511  0.000000000E+00  0.000000000E+00 -5.283457913E+02  5.283457913E+02  0.000000000E+00  0.00000E+00  9.000E+00
      25     1     1     2     0     0  1.926983537E+02  6.289729875E+02 -4.839563902E+01  6.713470134E+02  1.250000000E+02  0.00000E+00  9.000E+00
      25     1     1     2     0     0 -1.835874166E+02 -6.217970139E+02  5.103828847E+02  8.345367308E+02  1.250000000E+02  0.00000E+00  9.000E+00
      21     1     1     2   502   511 -9.110937154E+00 -7.175973595E+00 -1.141469708E+00  1.165361429E+01  1.679275583E-07  0.00000E+00  9.000E+00
#rwgt            1           1   2.9375768399687488E-002           5        9193           0
</event>
<event>
      5   9999  3.19816E-02  2.82865E+01 -1.00000E+00  1.54835E-01
      21    -1     0     0   502   512  0.000000000E+00  0.000000000E+00  3.950193143E+02  3.950193143E+02  0.000000000E+00  0.00000E+00  9.000E+00
      21    -1     0     0   501   502  0.000000000E+00  0.000000000E+00 -1.883770916E+02  1.883770916E+02  0.000000000E+00  0.00000E+00  9.000E+00
      25     1     1     2     0     0 -3.360945020E+01  3.999679540E+00  2.197392274E+02  2.550606215E+02  1.250000000E+02  0.00000E+00  9.000E+00
      25     1     1     2     0     0  2.620541290E+01 -3.129999123E+01 -1.436533123E+02  1.947503203E+02  1.250000000E+02  0.00000E+00  9.000E+00
      21     1     1     2   501   512  7.404037305E+00  2.730031169E+01  1.305563076E+02  1.335854642E+02  1.907348633E-06  0.00000E+00  9.000E+00
#rwgt            1           1   2.6457234365571455E-002           5        9507           0
</event>
<event>
      5   9999  3.19816E-02  1.03150E+03 -1.00000E+00  9.06690E-02
      21    -1     0     0   502   501  0.000000000E+00  0.000000000E+00  5.156291429E+02  5.156291429E+02  0.000000000E+00  0.00000E+00  9.000E+00
       2    -1     0     0   501     0  0.000000000E+00  0.000000000E+00 -4.072208310E+03  4.072208310E+03  0.000000000E+00  0.00000E+00  9.000E+00
      25     1     1     2     0     0 -1.386696459E+02  1.060003502E+02 -1.242671107E+03  1.261079627E+03  1.250000000E+02  0.00000E+00  9.000E+00
      25     1     1     2     0     0 -8.187651215E+02  2.778125091E+02 -9.367559849E+01  8.786103984E+02  1.250000000E+02  0.00000E+00  9.000E+00
       2     1     1     2   502     0  9.574347674E+02 -3.838128592E+02 -2.220232461E+03  2.448147428E+03  4.315837288E-05  0.00000E+00  9.000E+00
#rwgt            2          13   5.0083465749984225E-004           5        9893           0
</event>
<event>
      5   9999  3.19816E-02  6.10828E+01 -1.00000E+00  1.34290E-01
       2    -1     0     0   502     0  0.000000000E+00  0.000000000E+00  1.795537533E+03  1.795537533E+03  0.000000000E+00  0.00000E+00  9.000E+00
      21    -1     0     0   501   502  0.000000000E+00  0.000000000E+00 -8.968433861E+01  8.968433861E+01  0.000000000E+00  0.00000E+00  9.000E+00
      25     1     1     2     0     0  4.184287329E+01  1.297718199E+02  6.939081291E+01  1.975642584E+02  1.250000000E+02  0.00000E+00  9.000E+00
      25     1     1     2     0     0 -7.364421169E+00 -7.935018682E+01  1.952404421E+02  2.451418306E+02  1.250000000E+02  0.00000E+00  9.000E+00
       2     1     1     2   501     0 -3.447845213E+01 -5.042163307E+01  1.441221939E+03  1.442515783E+03  1.525878906E-05  0.00000E+00  9.000E+00
#rwgt            1           1   2.8053453990676779E-002           5        9927           0
</event>
<event>
      5   9999  3.19816E-02  6.91595E+01 -1.00000E+00  1.31487E-01
      21    -1     0     0   502   501  0.000000000E+00  0.000000000E+00  5.468232182E+02  5.468232182E+02  0.000000000E+00  0.00000E+00  9.000E+00
      21    -1     0     0   501   511  0.000000000E+00  0.000000000E+00 -3.544401561E+02  3.544401561E+02  0.000000000E+00  0.00000E+00  9.000E+00
      25     1     1     2     0     0  1.774624412E+02 -3.148238193E+02  1.656959516E+02  4.167578477E+02  1.250000000E+02  0.00000E+00  9.000E+00
      25     1     1     2     0     0 -1.247940027E+02  3.596465305E+02  6.425821909E+01  4.057995672E+02  1.250000000E+02  0.00000E+00  9.000E+00
      21     1     1     2   502   511 -5.266843855E+01 -4.482271116E+01 -3.757110863E+01  7.870595949E+01  1.168007728E-06  0.00000E+00  9.000E+00
#rwgt            1           1   2.7036696796236180E-002           5        9995           0
</event>
<event>
      5   9999  3.19816E-02  8.19180E+01 -1.00000E+00  1.27853E-01
      21    -1     0     0   502   501  0.000000000E+00  0.000000000E+00  2.240624499E+02  2.240624499E+02  0.000000000E+00  0.00000E+00  9.000E+00
       2    -1     0     0   501     0  0.000000000E+00  0.000000000E+00 -2.566653246E+03  2.566653246E+03  0.000000000E+00  0.00000E+00  9.000E+00
      25     1     1     2     0     0 -3.393266373E+02 -1.807144610E+02 -5.519929608E+01  4.080101047E+02  1.250000000E+02  0.00000E+00  9.000E+00
      25     1     1     2     0     0  2.687609433E+02  2.223203206E+02 -6.897724310E+02  7.829877242E+02  1.250000000E+02  0.00000E+00  9.000E+00
       2     1     1     2   502     0  7.056569409E+01 -4.160585960E+01 -1.597619069E+03  1.599717867E+03  3.051757812E-05  0.00000E+00  9.000E+00
#rwgt            1           1   2.2829957093704341E-002           5       10079           0
</event>
<event>
      5   9999  3.19816E-02  3.90788E+01 -1.00000E+00  1.45471E-01
      21    -1     0     0   502   501  0.000000000E+00  0.000000000E+00  2.725383123E+03  2.725383123E+03  0.000000000E+00  0.00000E+00  9.000E+00
      21    -1     0     0   501   511  0.000000000E+00  0.000000000E+00 -2.023901093E+02  2.023901093E+02  0.000000000E+00  0.00000E+00  9.000E+00
      25     1     1     2     0     0  3.324173481E+02  3.008016331E+02  1.631453251E+02  4.931777701E+02  1.250000000E+02  0.00000E+00  9.000E+00
      25     1     1     2     0     0 -3.714758637E+02 -2.995440815E+02  2.338703540E+03  2.390163221E+03  1.250000000E+02  0.00000E+00  9.000E+00
      21     1     1     2   502   511  3.905851557E+01 -1.257551606E+00  2.114414900E+01  4.443224181E+01  4.768371582E-07  0.00000E+00  9.000E+00
#rwgt            1           1   2.6979553133630228E-002           5       10234           0
</event>
<event>
      5   9999  3.19816E-02  7.67046E+01 -1.00000E+00  1.29240E-01
      21    -1     0     0   502   512  0.000000000E+00  0.000000000E+00  2.667534309E+02  2.667534309E+02  0.000000000E+00  0.00000E+00  9.000E+00
      21    -1     0     0   501   502  0.000000000E+00  0.000000000E+00 -2.760911813E+02  2.760911813E+02  0.000000000E+00  0.00000E+00  9.000E+00
      25     1     1     2     0     0 -4.138167981E+01 -4.119872079E+01  1.854891457E+02  2.311730979E+02  1.250000000E+02  0.00000E+00  9.000E+00
      25     1     1     2     0     0 -3.145353271E+01  1.714402205E+01 -1.957009585E+02  2.349619275E+02  1.250000000E+02  0.00000E+00  9.000E+00
      21     1     1     2   501   512  7.283521252E+01  2.405469874E+01  8.740623607E-01  7.670958675E+01  1.914871689E-06  0.00000E+00  9.000E+00
#rwgt            1           1   2.9328619461354840E-002           5       10452           0
</event>
<event>
      5   9999  3.19816E-02  1.82802E+02 -1.00000E+00  1.13088E-01
       2    -1     0     0   502     0  0.000000000E+00  0.000000000E+00  1.101879333E+03  1.101879333E+03  0.000000000E+00  0.00000E+00  9.000E+00
      21    -1     0     0   501   502  0.000000000E+00  0.000000000E+00 -2.467854406E+02  2.467854406E+02  0.000000000E+00  0.00000E+00  9.000E+00
      25     1     1     2     0     0 -3.578545302E+01 -1.433436085E+02 -6.355242456E+01  2.036956048E+02  1.250000000E+02  0.00000E+00  9.000E+00
      25     1     1     2     0     0 -1.087777341E+02  2.552275201E+02  1.223768400E+02  3.279859348E+02  1.250000000E+02  0.00000E+00  9.000E+00
       2     1     1     2   501     0  1.445631871E+02 -1.118839116E+02  7.962694770E+02  8.169832340E+02  1.078959322E-05  0.00000E+00  9.000E+00
#rwgt            1           1   2.4196145573285591E-002           5       10543           0
</event>
<event>
      5   9999  3.19816E-02  1.84959E+01 -1.00000E+00  1.69220E-01
      21    -1     0     0   511   501  0.000000000E+00  0.000000000E+00  6.056087944E+02  6.056087944E+02  0.000000000E+00  0.00000E+00  9.000E+00
      21    -1     0     0   501   502  0.000000000E+00  0.000000000E+00 -1.348650326E+03  1.348650326E+03  0.000000000E+00  0.00000E+00  9.000E+00
      25     1     1     2     0     0  2.312827549E+02 -3.351493931E+02 -1.165645642E+03  1.241036498E+03  1.250000000E+02  0.00000E+00  9.000E+00
      25     1     1     2     0     0 -2.414528863E+02  3.197005932E+02  1.587222360E+02  4.486933405E+02  1.250000000E+02  0.00000E+00  9.000E+00
      21     1     1     2   511   502  1.017013139E+01  1.544879990E+01  2.638818743E+02  2.645292812E+02  0.000000000E+00  0.00000E+00  9.000E+00
#rwgt            2          11   1.7503250606841245E-003           5       10658           0
</event>
<event>
      5   9999  3.19816E-02  2.97921E+01 -1.00000E+00  1.53250E-01
       2    -1     0     0   502     0  0.000000000E+00  0.000000000E+00  2.883298866E+03  2.883298866E+03  0.000000000E+00  0.00000E+00  9.000E+00
      21    -1     0     0   501   502  0.000000000E+00  0.000000000E+00 -5.751250845E+02  5.751250845E+02  0.000000000E+00  0.00000E+00  9.000E+00
      25     1     1     2     0     0  5.341962016E+02 -7.652460721E+02  1.561298129E+01  9.417196493E+02  1.250000000E+02  0.00000E+00  9.000E+00
      25     1     1     2     0     0 -5.066708594E+02  7.538476184E+02  1.770685894E+03  1.993979721E+03  1.250000000E+02  0.00000E+00  9.000E+00
       2     1     1     2   501     0 -2.752534221E+01  1.139845370E+01  5.218749060E+02  5.227245802E+02  7.629394531E-06  0.00000E+00  9.000E+00
#rwgt            2          18   1.2460061379648327E-003           5       10963           0
</event>
<event>
      5   9999  3.19816E-02  2.96146E+02 -1.00000E+00  1.05775E-01
       2    -1     0     0   502     0  0.000000000E+00  0.000000000E+00  2.316565371E+03  2.316565371E+03  0.000000000E+00  0.00000E+00  9.000E+00
      21    -1     0     0   501   502  0.000000000E+00  0.000000000E+00 -2.681933724E+02  2.681933724E+02  0.000000000E+00  0.00000E+00  9.000E+00
      25     1     1     2     0     0 -9.578174450E+01  2.315176904E+02  4.381752593E+02  5.199972514E+02  1.250000000E+02  0.00000E+00  9.000E+00
      25     1     1     2     0     0 -1.624546343E+02 -8.654759036E+01 -1.573880366E+02  2.725398827E+02  1.250000000E+02  0.00000E+00  9.000E+00
       2     1     1     2   501     0  2.582363788E+02 -1.449701001E+02  1.767584776E+03  1.792221609E+03  3.051757812E-05  0.00000E+00  9.000E+00
#rwgt            2          18   2.4414242567483970E-003           5       11087           0
</event>
<event>
      5   9999  3.19816E-02  2.50135E+01 -1.00000E+00  1.58733E-01
      21    -1     0     0   502   511  0.000000000E+00  0.000000000E+00  1.758681018E+02  1.758681018E+02  0.000000000E+00  0.00000E+00  9.000E+00
      21    -1     0     0   501   502  0.000000000E+00  0.000000000E+00 -5.898927457E+02  5.898927457E+02  0.000000000E+00  0.00000E+00  9.000E+00
      25     1     1     2     0     0 -9.826722944E+01 -9.168965511E+00  6.787958727E+01  1.731275734E+02  1.250000000E+02  0.00000E+00  9.000E+00
      25     1     1     2     0     0  1.178507327E+02  2.473045927E+01 -5.193590315E+02  5.475940051E+02  1.250000000E+02  0.00000E+00  9.000E+00
      21     1     1     2   501   511 -1.958350325E+01 -1.556149376E+01  3.745480030E+01  4.503926901E+01  9.536743164E-07  0.00000E+00  9.000E+00
#rwgt            1           1   2.8754821341692823E-002           5       11106           0
</event>
<event>
      5   9999  3.19816E-02  4.03813E+01 -1.00000E+00  1.44585E-01
      21    -1     0     0   512   501  0.000000000E+00  0.000000000E+00  6.887810526E+02  6.887810526E+02  0.000000000E+00  0.00000E+00  9.000E+00
      21    -1     0     0   501   502  0.000000000E+00  0.000000000E+00 -1.494452997E+03  1.494452997E+03  0.000000000E+00  0.00000E+00  9.000E+00
      25     1     1     2     0     0  8.122232753E+02  2.272341125E+02 -6.887355671E+02  1.096049119E+03  1.250000000E+02  0.00000E+00  9.000E+00
      25     1     1     2     0     0 -7.940067717E+02 -2.632731524E+02 -3.017442381E+02  8.980167546E+02  1.250000000E+02  0.00000E+00  9.000E+00
      21     1     1     2   512   502 -1.821650358E+01  3.603903992E+01  1.848078607E+02  1.891681759E+02  0.000000000E+00  0.00000E+00  9.000E+00
#rwgt            1           1   4.1831282039275067E-002           5       11222           0
</event>
<event>
      5   9999  3.19816E-02  2.97211E+02 -1.00000E+00  1.05724E-01
      21    -1     0     0   502   501  0.000000000E+00  0.000000000E+00  8.574651664E+02  8.574651664E+02  0.000000000E+00  0.00000E+00  9.000E+00
      21    -1     0     0   501   511  0.000000000E+00  0.000000000E+00 -3.969680050E+03  3.969680050E+03  0.000000000E+00  0.00000E+00  9.000E+00
      25     1     1     2     0     0 -2.061180605E+02  2.895839995E+02  7.244134374E+02  8.165435542E+02  1.250000000E+02  0.00000E+00  9.000E+00
      25     1     1     2     0     0  2.335811834E+02 -5.855236133E+02 -1.236487417E+03  1.393529406E+03  1.250000000E+02  0.00000E+00  9.000E+00
      21     1     1     2   502   511 -2.746312294E+01  2.959396138E+02 -2.600140904E+03  2.617072257E+03  4.315837288E-05  0.00000E+00  9.000E+00
#rwgt            1           1   3.1049622519091363E-002           5       11380           0
</event>
<event>
      5   9999  3.19816E-02  7.02737E+01 -1.00000E+00  1.31135E-01
      21    -1     0     0   502   501  0.000000000E+00  0.000000000E+00  1.211901741E+03  1.211901741E+03  0.000000000E+00  0.00000E+00  9.000E+00
      21    -1     0     0   512   502  0.000000000E+00  0.000000000E+00 -8.316200404E+01  8.316200404E+01  0.000000000E+00  0.00000E+00  9.000E+00
      25     1     1     2     0     0 -5.669463668E+01 -1.714169447E+02  9.892715689E+02  1.013351512E+03  1.250000000E+02  0.00000E+00  9.000E+00
      25     1     1     2     0     0  1.158513134E+01  1.175326128E+02  1.167603837E+02  2.078608129E+02  1.250000000E+02  0.00000E+00  9.000E+00
      21     1     1     2   512   501  4.510950533E+01  5.388433193E+01  2.270778420E+01  7.385141950E+01  1.719260824E-06  0.00000E+00  9.000E+00
#rwgt            1           1   3.5441394683870406E-002           5       11473           0
</event>
<event>
      5   9999  3.19816E-02  3.94699E+01 -1.00000E+00  1.45200E-01
      21    -1     0     0   502   501  0.000000000E+00  0.000000000E+00  1.874124646E+03  1.874124646E+03  0.000000000E+00  0.00000E+00  9.000E+00
      21    -1     0     0   501   511  0.000000000E+00  0.000000000E+00 -5.810519307E+02  5.810519307E+02  0.000000000E+00  0.00000E+00  9.000E+00
      25     1     1     2     0     0 -9.791782897E+02  3.386707561E+01  4.840495281E+02  1.099939111E+03  1.250000000E+02  0.00000E+00  9.000E+00
      25     1     1     2     0     0  1.011945485E+03 -1.186292070E+01  8.259928565E+02  1.312274206E+03  1.250000000E+02  0.00000E+00  9.000E+00
      21     1     1     2   502   511 -3.276719552E+01 -2.200415491E+01 -1.696966977E+01  4.296325904E+01  6.307962682E-07  0.00000E+00  9.000E+00
#rwgt            1           1   3.0454235339794050E-002           5       11591           0
</event>
<event>
      5   9999  3.19816E-02  3.68448E+01 -1.00000E+00  1.47089E-01
      21    -1     0     0   512   501  0.000000000E+00  0.000000000E+00  3.173458582E+03  3.173458582E+03  0.000000000E+00  0.00000E+00  9.000E+00
      21    -1     0     0   501   502  0.000000000E+00  0.000000000E+00 -7.892978963E+01  7.892978963E+01  0.000000000E+00  0.00000E+00  9.000E+00
      25     1     1     2     0     0  1.592712964E+02 -2.439654357E+02  2.972268148E+02  4.345748026E+02  1.250000000E+02  0.00000E+00  9.000E+00
      25     1     1     2     0     0 -1.228271543E+02  2.385469216E+02  2.268569360E+03  2.287798742E+03  1.250000000E+02  0.00000E+00  9.000E+00
      21     1     1     2   512   502 -3.644414204E+01  5.418514077E+00  5.287326174E+02  5.300148267E+02  1.078959322E-05  0.00000E+00  9.000E+00
#rwgt            1           1   6.5673401239669943E-002           5       11716           0
</event>
<event>
      5   9999  3.19816E-02  5.58218E+01 -1.00000E+00  1.36400E-01
      21    -1     0     0   502   501  0.000000000E+00  0.000000000E+00  1.396252420E+03  1.396252420E+03  0.000000000E+00  0.00000E+00  9.000E+00
      21    -1     0     0   511   502  0.000000000E+00  0.000000000E+00 -6.355323068E+01  6.355323068E+01  0.000000000E+00  0.00000E+00  9.000E+00
      25     1     1     2     0     0 -2.331678733E+02  3.411256399E+00  7.472330161E+02  7.926922948E+02  1.250000000E+02  0.00000E+00  9.000E+00
      25     1     1     2     0     0  1.921413649E+02 -4.126497269E+01  5.585018878E+02  6.051202036E+02  1.250000000E+02  0.00000E+00  9.000E+00
      21     1     1     2   511   501  4.102650837E+01  3.785371629E+01  2.696428506E+01  6.199315200E+01  1.348699152E-06  0.00000E+00  9.000E+00
#rwgt            1           1   1.7075107922118849E-002           5       11839           0
</event>
<event>
      5   9999  3.19816E-02  9.78191E+01 -1.00000E+00  1.24260E-01
      21    -1     0     0   502   501  0.000000000E+00  0.000000000E+00  1.077199033E+03  1.077199033E+03  0.000000000E+00  0.00000E+00  9.000E+00
      21    -1     0     0   512   502  0.000000000E+00  0.000000000E+00 -1.485624026E+03  1.485624026E+03  0.000000000E+00  0.00000E+00  9.000E+00
      25     1     1     2     0     0 -9.475732330E+02 -3.584085616E+02  3.094626852E+02  1.066650778E+03  1.250000000E+02  0.00000E+00  9.000E+00
      25     1     1     2     0     0  1.028744741E+03  3.038213073E+02 -3.806770136E+02  1.145060312E+03  1.250000000E+02  0.00000E+00  9.000E+00
      21     1     1     2   512   501 -8.117150834E+01  5.458725436E+01 -3.372106649E+02  3.511119688E+02  5.394796609E-06  0.00000E+00  9.000E+00
#rwgt            1           1   3.1341462088074638E-002           5       11938           0
</event>
<event>
      5   9999  3.19816E-02  4.36646E+02 -1.00000E+00  1.00553E-01
       1    -1     0     0   502     0  0.000000000E+00  0.000000000E+00  5.318522148E+02  5.318522148E+02  0.000000000E+00  0.00000E+00  9.000E+00
      21    -1     0     0   501   502  0.000000000E+00  0.000000000E+00 -1.102347290E+03  1.102347290E+03  0.000000000E+00  0.00000E+00  9.000E+00
      25     1     1     2     0     0  3.366800935E+02  1.064033769E+02  6.395620922E+01  3.799875796E+02  1.250000000E+02  0.00000E+00  9.000E+00
      25     1     1     2     0     0  2.124550541E+01  1.436939800E+02  2.217593381E+02  2.930896372E+02  1.250000000E+02  0.00000E+00  9.000E+00
       1     1     1     2   501     0 -3.579255989E+02 -2.500973569E+02 -8.562106224E+02  9.611222879E+02  1.525878906E-05  0.00000E+00  9.000E+00
#rwgt            2          17   5.1235605430571250E-005           5       12129           0
</event>
<event>
      5   9999  3.19816E-02  7.77458E+01 -1.00000E+00  1.28953E-01
      21    -1     0     0   502   501  0.000000000E+00  0.000000000E+00  9.360686411E+01  9.360686411E+01  0.000000000E+00  0.00000E+00  9.000E+00
      21    -1     0     0   511   502  0.000000000E+00  0.000000000E+00 -9.780150741E+02  9.780150741E+02  0.000000000E+00  0.00000E+00  9.000E+00
      25     1     1     2     0     0 -6.510172354E+01 -1.261688416E+02 -3.039862423E+02  3.580355380E+02  1.250000000E+02  0.00000E+00  9.000E+00
      25     1     1     2     0     0 -7.422674757E+00  9.815782177E+01 -3.533574869E+01  1.629836471E+02  1.250000000E+02  0.00000E+00  9.000E+00
      21     1     1     2   511   501  7.252439829E+01  2.801101982E+01 -5.450862190E+02  5.506027531E+02  1.078959322E-05  0.00000E+00  9.000E+00
#rwgt            1           1   2.9431105441030916E-002           5       12178           0
</event>
<event>
      5   9999  3.19816E-02  1.40616E+02 -1.00000E+00  1.17516E-01
      21    -1     0     0   502   512  0.000000000E+00  0.000000000E+00  2.407265510E+02  2.407265510E+02  0.000000000E+00  0.00000E+00  9.000E+00
      21    -1     0     0   501   502  0.000000000E+00  0.000000000E+00 -1.519430361E+03  1.519430361E+03  0.000000000E+00  0.00000E+00  9.000E+00
      25     1     1     2     0     0  1.907283401E+02  1.935318140E+02 -1.141239649E+03  1.179781674E+03  1.250000000E+02  0.00000E+00  9.000E+00
      25     1     1     2     0     0 -1.679387366E+02 -5.477472193E+01 -2.971538350E+02  3.675990901E+02  1.250000000E+02  0.00000E+00  9.000E+00
      21     1     1     2   501   512 -2.278960349E+01 -1.387570921E+02  1.596896744E+02  2.127761470E+02  2.697398305E-06  0.00000E+00  9.000E+00
#rwgt            2          11   9.0807389743219370E-003           5       12223           0
</event>
<event>
      5   9999  3.19816E-02  1.93977E+02 -1.00000E+00  1.12134E-01
       2    -1     0     0   502     0  0.000000000E+00  0.000000000E+00  6.766844156E+02  6.766844156E+02  0.000000000E+00  0.00000E+00  9.000E+00
      21    -1     0     0   501   502  0.000000000E+00  0.000000000E+00 -4.200388834E+02  4.200388834E+02  0.000000000E+00  0.00000E+00  9.000E+00
      25     1     1     2     0     0 -7.049931162E+01  2.664878392E+02  2.218057355E+02  3.752448610E+02  1.250000000E+02  0.00000E+00  9.000E+00
      25     1     1     2     0     0  2.551041810E+02 -2.069219087E+02 -2.097660713E+02  4.092940558E+02  1.250000000E+02  0.00000E+00  9.000E+00
       2     1     1     2   501     0 -1.846048693E+02 -5.956593055E+01  2.446058679E+02  3.121843822E+02  3.814697266E-06  0.00000E+00  9.000E+00
#rwgt            2          18   4.3119185959328364E-004           5       12303           0
</event>
<event>
      5   9999  3.19816E-02  1.21438E+01 -1.00000E+00  1.86486E-01
      21    -1     0     0   502   501  0.000000000E+00  0.000000000E+00  8.391998041E+02  8.391998041E+02  0.000000000E+00  0.00000E+00  9.000E+00
      21    -1     0     0   501   511  0.000000000E+00  0.000000000E+00 -1.116185510E+02  1.116185510E+02  0.000000000E+00  0.00000E+00  9.000E+00
      25     1     1     2     0     0 -8.506850309E+00 -2.366899450E+01  7.874165407E+02  7.976731138E+02  1.250000000E+02  0.00000E+00  9.000E+00
      25     1     1     2     0     0 -1.056595745E+00  3.115321394E+01 -5.455979142E+01  1.399050034E+02  1.250000000E+02  0.00000E+00  9.000E+00
      21     1     1     2   502   511  9.563446054E+00 -7.484219441E+00 -5.275496179E+00  1.324023795E+01  2.980232239E-07  0.00000E+00  9.000E+00
#rwgt            1           1   3.3106485325421556E-002           5       12337           0
</event>
<event>
      5   9999  3.19816E-02  9.23232E+01 -1.00000E+00  1.25409E-01
      21    -1     0     0   502   501  0.000000000E+00  0.000000000E+00  4.025962211E+02  4.025962211E+02  0.000000000E+00  0.00000E+00  9.000E+00
      21    -1     0     0   512   502  0.000000000E+00  0.000000000E+00 -1.012412058E+03  1.012412058E+03  0.000000000E+00  0.00000E+00  9.000E+00
      25     1     1     2     0     0  1.913765457E+01 -2.302919969E+02  3.233293450E+02  4.166143529E+02  1.250000000E+02  0.00000E+00  9.000E+00
      25     1     1     2     0     0  7.109373046E+01  2.107506094E+02 -5.850212817E+02  6.382358795E+02  1.250000000E+02  0.00000E+00  9.000E+00
      21     1     1     2   512   501 -9.023138503E+01  1.954138753E+01 -3.481239006E+02  3.601580470E+02  3.814697266E-06  0.00000E+00  9.000E+00
#rwgt            1           1   2.3066221302236813E-002           5       12568           0
</event>
<event>
      5   9999  3.19816E-02  1.02643E+02 -1.00000E+00  1.23321E-01
      21    -1     0     0   502   501  0.000000000E+00  0.000000000E+00  3.370282232E+02  3.370282232E+02  0.000000000E+00  0.00000E+00  9.000E+00
       2    -1     0     0   501     0  0.000000000E+00  0.000000000E+00 -1.995497234E+03  1.995497234E+03  0.000000000E+00  0.00000E+00  9.000E+00
      25     1     1     2     0     0 -4.554877491E+02 -1.586739183E+02 -2.749456012E+02  5.690927741E+02  1.250000000E+02  0.00000E+00  9.000E+00
      25     1     1     2     0     0  5.577717457E+02  1.501013881E+02 -2.779165715E+02  6.530714875E+02  1.250000000E+02  0.00000E+00  9.000E+00
       2     1     1     2   502     0 -1.022839966E+02  8.572530270E+00 -1.105606839E+03  1.110361196E+03  2.157918644E-05  0.00000E+00  9.000E+00
#rwgt            1           1   2.9727633667459834E-002           5       12645           0
</event>
<event>
      5   9999  3.19816E-02  2.27065E+01 -1.00000E+00  1.61946E-01
      21    -1     0     0   502   511  0.000000000E+00  0.000000000E+00  1.934016511E+02  1.934016511E+02  0.000000000E+00  0.00000E+00  9.000E+00
      21    -1     0     0   501   502  0.000000000E+00  0.000000000E+00 -2.025067752E+02  2.025067752E+02  0.000000000E+00  0.00000E+00  9.000E+00
      25     1     1     2     0     0  7.110286583E+01  9.210772833E+01 -8.486493161E+01  1.907000466E+02  1.250000000E+02  0.00000E+00  9.000E+00
      25     1     1     2     0     0 -5.426834855E+01 -7.687017152E+01  3.777382041E+01  1.609532181E+02  1.250000000E+02  0.00000E+00  9.000E+00
      21     1     1     2   501   511 -1.683451728E+01 -1.523755681E+01  3.798598713E+01  4.425516160E+01  8.259061849E-07  0.00000E+00  9.000E+00
#rwgt            1           1   2.7394304506267560E-002           5       12729           0
</event>
<event>
      5   9999  3.19816E-02  3.94610E+02 -1.00000E+00  1.01863E-01
      21    -1     0     0   502   501  0.000000000E+00  0.000000000E+00  1.434650768E+03  1.434650768E+03  0.000000000E+00  0.00000E+00  9.000E+00
      -3    -1     0     0     0   502  0.000000000E+00  0.000000000E+00 -2.236440623E+02  2.236440623E+02  0.000000000E+00  0.00000E+00  9.000E+00
      25     1     1     2     0     0  3.438568947E+02  4.629020942E+01  2.125235215E+02  4.256425669E+02  1.250000000E+02  0.00000E+00  9.000E+00
      25     1     1     2     0     0 -1.037697168E+02  2.668797891E+02  3.165269394E+02  4.447553028E+02  1.250000000E+02  0.00000E+00  9.000E+00
      -3     1     1     2     0   501 -2.400871779E+02 -3.131699985E+02  6.819562450E+02  7.878969609E+02  1.525878906E-05  0.00000E+00  9.000E+00
#rwgt            2           8   1.4997997612251263E-005           5       12982           0
</event>
<event>
      5   9999  3.19816E-02  8.52776E+01 -1.00000E+00  1.27021E-01
      21    -1     0     0   502   501  0.000000000E+00  0.000000000E+00  1.353856608E+02  1.353856608E+02  0.000000000E+00  0.00000E+00  9.000E+00
       2    -1     0     0   501     0  0.000000000E+00  0.000000000E+00 -2.224178244E+03  2.224178244E+03  0.000000000E+00  0.00000E+00  9.000E+00
      25     1     1     2     0     0  3.675372049E+02 -2.550232086E+02 -1.069403688E+03  1.165920101E+03  1.250000000E+02  0.00000E+00  9.000E+00
      25     1     1     2     0     0 -3.290953051E+02  1.789016609E+02 -3.781080049E+02  5.467176488E+02  1.250000000E+02  0.00000E+00  9.000E+00
       2     1     1     2   502     0 -3.844189980E+01  7.612154767E+01 -6.412808910E+02  6.469261556E+02  1.078959322E-05  0.00000E+00  9.000E+00
#rwgt            1           1   3.6021224252244938E-002           5       13031           0
</event>
<event>
      5   9999  3.19816E-02  1.22817E+01 -1.00000E+00  1.85975E-01
      21    -1     0     0   502   501  0.000000000E+00  0.000000000E+00  1.290904424E+03  1.290904424E+03  0.000000000E+00  0.00000E+00  9.000E+00
      -2    -1     0     0     0   502  0.000000000E+00  0.000000000E+00 -9.615641854E+01  9.615641854E+01  0.000000000E+00  0.00000E+00  9.000E+00
      25     1     1     2     0     0 -6.475439048E+01  2.295285426E+02  5.343125904E+02  5.983238481E+02  1.250000000E+02  0.00000E+00  9.000E+00
      25     1     1     2     0     0  7.699346976E+01 -2.305507071E+02  6.977919890E+02  7.494132924E+02  1.250000000E+02  0.00000E+00  9.000E+00
      -2     1     1     2     0   501 -1.223907928E+01  1.022164504E+00 -3.735657422E+01  3.932370174E+01  2.654916936E-06  0.00000E+00  9.000E+00
#rwgt            1           1   3.4919635175856618E-002           5       13092           0
</event>
<event>
      5   9999  3.19816E-02  3.18549E+01 -1.00000E+00  1.51252E-01
      21    -1     0     0   511   501  0.000000000E+00  0.000000000E+00  4.021698814E+02  4.021698814E+02  0.000000000E+00  0.00000E+00  9.000E+00
      21    -1     0     0   501   502  0.000000000E+00  0.000000000E+00 -4.307119143E+02  4.307119143E+02  0.000000000E+00  0.00000E+00  9.000E+00
      25     1     1     2     0     0  1.148291123E+02 -3.134772018E+02  1.652255510E+02  3.929098673E+02  1.250000000E+02  0.00000E+00  9.000E+00
      25     1     1     2     0     0 -1.290515066E+02  2.849735504E+02 -2.168431988E+02  4.006372282E+02  1.250000000E+02  0.00000E+00  9.000E+00
      21     1     1     2   511   502  1.422239426E+01  2.850365141E+01  2.307561492E+01  3.933470028E+01  5.840038640E-07  0.00000E+00  9.000E+00
#rwgt            1           1   2.5823446539236759E-002           5       13338           0
</event>
<event>
      5   9999  3.19816E-02  3.59497E+01 -1.00000E+00  1.47776E-01
      21    -1     0     0   512   501  0.000000000E+00  0.000000000E+00  2.009845981E+02  2.009845981E+02  0.000000000E+00  0.00000E+00  9.000E+00
      21    -1     0     0   501   502  0.000000000E+00  0.000000000E+00 -3.924045462E+02  3.924045462E+02  0.000000000E+00  0.00000E+00  9.000E+00
      25     1     1     2     0     0 -2.071527759E+02  2.786320727E+01 -1.544609749E+02  2.883952559E+02  1.250000000E+02  0.00000E+00  9.000E+00
      25     1     1     2     0     0  2.264152944E+02 -5.821671441E+01 -4.292400903E+01  2.685526800E+02  1.250000000E+02  0.00000E+00  9.000E+00
      21     1     1     2   512   502 -1.926251847E+01  3.035350714E+01  5.965035817E+00  3.644120835E+01  2.795705652E-07  0.00000E+00  9.000E+00
#rwgt            1           1   2.8466717531456704E-002           5       13428           0
</event>
<event>
      5   9999  3.19816E-02  9.44154E+01 -1.00000E+00  1.24961E-01
      21    -1     0     0   502   501  0.000000000E+00  0.000000000E+00  7.084833245E+02  7.084833245E+02  0.000000000E+00  0.00000E+00  9.000E+00
      21    -1     0     0   511   502  0.000000000E+00  0.000000000E+00 -1.378587170E+02  1.378587170E+02  0.000000000E+00  0.00000E+00  9.000E+00
      25     1     1     2     0     0 -8.491803398E+01 -1.075816016E+02  2.552451584E+02  3.155312415E+02  1.250000000E+02  0.00000E+00  9.000E+00
      25     1     1     2     0     0  1.473777648E+02  1.783844929E+02  3.432017463E+02  4.323813959E+02  1.250000000E+02  0.00000E+00  9.000E+00
      21     1     1     2   511   501 -6.245973079E+01 -7.080289125E+01 -2.782229711E+01  9.842940412E+01  7.539457465E-07  0.00000E+00  9.000E+00
#rwgt            1           1   2.7746783358927416E-002           5       13528           0
</event>
<event>
      5   9999  3.19816E-02  5.85124E+01 -1.00000E+00  1.35289E-01
      21    -1     0     0   502   501  0.000000000E+00  0.000000000E+00  1.159780664E+03  1.159780664E+03  0.000000000E+00  0.00000E+00  9.000E+00
      21    -1     0     0   512   502  0.000000000E+00  0.000000000E+00 -3.059934139E+02  3.059934139E+02  0.000000000E+00  0.00000E+00  9.000E+00
      25     1     1     2     0     0  1.620628119E+01  5.112244140E+02  3.100136534E+02  6.110208756E+02  1.250000000E+02  0.00000E+00  9.000E+00
      25     1     1     2     0     0  2.022046194E+01 -5.570151417E+02  5.535434926E+02  7.954307848E+02  1.250000000E+02  0.00000E+00  9.000E+00
      21     1     1     2   512   501 -3.642674313E+01  4.579072769E+01 -9.769895957E+00  5.932241755E+01  1.311302185E-06  0.00000E+00  9.000E+00
#rwgt            1           1   2.9507003101876705E-002           5       13597           0
</event>
<event>
      5   9999  3.19816E-02  2.31563E+01 -1.00000E+00  1.61284E-01
      21    -1     0     0   502   501  0.000000000E+00  0.000000000E+00  2.137476683E+02  2.137476683E+02  0.000000000E+00  0.00000E+00  9.000E+00
       2    -1     0     0   501     0  0.000000000E+00  0.000000000E+00 -9.084599823E+02  9.084599823E+02  0.000000000E+00  0.00000E+00  9.000E+00
      25     1     1     2     0     0 -2.606306148E+01  7.877105198E+01 -2.681395077E+02  3.072587792E+02  1.250000000E+02  0.00000E+00  9.000E+00
      25     1     1     2     0     0  5.702361694E+00 -8.980079484E+01  1.633855311E+02  2.245362587E+02  1.250000000E+02  0.00000E+00  9.000E+00
       2     1     1     2   502     0  2.036069978E+01  1.102974286E+01 -5.899583375E+02  5.904126127E+02  0.000000000E+00  0.00000E+00  9.000E+00
#rwgt            1           1   2.9397341287700322E-002           5       13697           0
</event>
<event>
      5   9999  3.19816E-02  2.05170E+02 -1.00000E+00  1.11246E-01
      21    -1     0     0   502   501  0.000000000E+00  0.000000000E+00  9.110854669E+02  9.110854669E+02  0.000000000E+00  0.00000E+00  9.000E+00
      21    -1     0     0   501   511  0.000000000E+00  0.000000000E+00 -1.239467005E+03  1.239467005E+03  0.000000000E+00  0.00000E+00  9.000E+00
      25     1     1     2     0     0 -2.886684076E+02  4.542610420E+02 -6.425397400E+02  8.474460817E+02  1.250000000E+02  0.00000E+00  9.000E+00
      25     1     1     2     0     0  1.762241628E+02 -2.826479595E+02  7.451768542E+02  8.257471578E+02  1.250000000E+02  0.00000E+00  9.000E+00
      21     1     1     2   502   511  1.124442447E+02 -1.716130825E+02 -4.310186525E+02  4.773592328E+02  7.629394531E-06  0.00000E+00  9.000E+00
#rwgt            1           1   2.9160383719251524E-002           5       13862           0
</event>
<event>
      5   9999  3.19816E-02  1.46005E+02 -1.00000E+00  1.16860E-01
      21    -1     0     0   502   501  0.000000000E+00  0.000000000E+00  1.306739039E+02  1.306739039E+02  0.000000000E+00  0.00000E+00  9.000E+00
       2    -1     0     0   501     0  0.000000000E+00  0.000000000E+00 -1.995802786E+03  1.995802786E+03  0.000000000E+00  0.00000E+00  9.000E+00
      25     1     1     2     0     0 -2.391307007E+02  2.972314310E+01 -6.812649192E+02  7.333579259E+02  1.250000000E+02  0.00000E+00  9.000E+00
      25     1     1     2     0     0  1.302613852E+02 -1.270115643E+02 -2.168007274E+01  2.217994398E+02  1.250000000E+02  0.00000E+00  9.000E+00
       2     1     1     2   502     0  1.088693155E+02  9.728842115E+01 -1.162183890E+03  1.171319324E+03  0.000000000E+00  0.00000E+00  9.000E+00
#rwgt            1           1   3.1916530604214677E-002           5       13921           0
</event>
<event>
      5   9999  3.19816E-02  4.75845E+01 -1.00000E+00  1.40314E-01
      21    -1     0     0   502   511  0.000000000E+00  0.000000000E+00  3.814515512E+02  3.814515512E+02  0.000000000E+00  0.00000E+00  9.000E+00
      21    -1     0     0   501   502  0.000000000E+00  0.000000000E+00 -3.655743587E+02  3.655743587E+02  0.000000000E+00  0.00000E+00  9.000E+00
      25     1     1     2     0     0 -1.558682868E+02  8.761540472E+01 -2.385315895E+02  3.232548548E+02  1.250000000E+02  0.00000E+00  9.000E+00
      25     1     1     2     0     0  1.120544684E+02 -6.905099195E+01  1.776046892E+01  1.823860675E+02  1.250000000E+02  0.00000E+00  9.000E+00
      21     1     1     2   501   511  4.381381841E+01 -1.856441276E+01  2.366483131E+02  2.413849876E+02  2.697398305E-06  0.00000E+00  9.000E+00
#rwgt            1           1   3.0244547842255030E-002           5       14019           0
</event>
<event>
      5   9999  3.19816E-02  1.64739E+02 -1.00000E+00  1.14803E-01
      21    -1     0     0   512   501  0.000000000E+00  0.000000000E+00  1.013391808E+03  1.013391808E+03  0.000000000E+00  0.00000E+00  9.000E+00
      21    -1     0     0   501   502  0.000000000E+00  0.000000000E+00 -7.810726075E+02  7.810726075E+02  0.000000000E+00  0.00000E+00  9.000E+00
      25     1     1     2     0     0 -3.098925552E+02 -1.194254431E+02  3.851298470E+02  5.236848587E+02  1.250000000E+02  0.00000E+00  9.000E+00
      25     1     1     2     0     0  2.218119627E+02  2.586400037E+02 -6.513983572E+02  7.456809090E+02  1.250000000E+02  0.00000E+00  9.000E+00
      21     1     1     2   512   502  8.808059244E+01 -1.392145606E+02  4.985877107E+02  5.250986478E+02  5.394796609E-06  0.00000E+00  9.000E+00
#rwgt            1           1   2.9607343428512792E-002           5       14067           0
</event>
<event>
      5   9999  3.19816E-02  7.08613E+00 -1.00000E+00  2.14806E-01
      21    -1     0     0   502   501  0.000000000E+00  0.000000000E+00  2.087541353E+02  2.087541353E+02  0.000000000E+00  0.00000E+00  9.000E+00
      21    -1     0     0   511   502  0.000000000E+00  0.000000000E+00 -5.317526837E+02  5.317526837E+02  0.000000000E+00  0.00000E+00  9.000E+00
      25     1     1     2     0     0  6.873928287E+00  2.714471284E+02 -1.043923758E-01  2.989244141E+02  1.250000000E+02  0.00000E+00  9.000E+00
      25     1     1     2     0     0 -3.239345878E+00 -2.653641145E+02 -3.095141789E+02  4.264418291E+02  1.250000000E+02  0.00000E+00  9.000E+00
      21     1     1     2   511   501 -3.634582409E+00 -6.083013883E+00 -1.337997716E+01  1.514057582E+01  2.384185791E-07  0.00000E+00  9.000E+00
#rwgt            1           1   2.8165953982882293E-002           5       14142           0
</event>
<event>
      5   9999  3.19816E-02  8.30769E+01 -1.00000E+00  1.27561E-01
      21    -1     0     0   502   512  0.000000000E+00  0.000000000E+00  7.307085722E+02  7.307085722E+02  0.000000000E+00  0.00000E+00  9.000E+00
      21    -1     0     0   501   502  0.000000000E+00  0.000000000E+00 -3.582010807E+02  3.582010807E+02  0.000000000E+00  0.00000E+00  9.000E+00
      25     1     1     2     0     0  3.891931460E+02 -2.375793754E+02  1.480938111E+02  4.954513512E+02  1.250000000E+02  0.00000E+00  9.000E+00
      25     1     1     2     0     0 -3.539004310E+02  1.623716990E+02  6.552326463E+01  4.141598507E+02  1.250000000E+02  0.00000E+00  9.000E+00
      21     1     1     2   501   512 -3.529271503E+01  7.520767639E+01  1.588904158E+02  1.792984511E+02  1.907348633E-06  0.00000E+00  9.000E+00
#rwgt            1           1   2.8240763969396558E-002           5       14551           0
</event>
<event>
      5   9999  3.19816E-02  9.77696E+01 -1.00000E+00  1.24270E-01
      21    -1     0     0   502   501  0.000000000E+00  0.000000000E+00  1.525313363E+03  1.525313363E+03  0.000000000E+00  0.00000E+00  9.000E+00
      21    -1     0     0   501   511  0.000000000E+00  0.000000000E+00 -3.288034911E+02  3.288034911E+02  0.000000000E+00  0.00000E+00  9.000E+00
      25     1     1     2     0     0 -5.435418544E+02  2.920425683E+01  3.268477262E+02  6.471051477E+02  1.250000000E+02  0.00000E+00  9.000E+00
      25     1     1     2     0     0  6.289934269E+02  1.830284484E+01  8.994463345E+02  1.104806062E+03  1.250000000E+02  0.00000E+00  9.000E+00
      21     1     1     2   502   511 -8.545157244E+01 -4.750710167E+01 -2.978418868E+01  1.022056448E+02  1.719260824E-06  0.00000E+00  9.000E+00
#rwgt            1           1   2.6930324885319993E-002           5       14663           0
</event>
<event>
      5   9999  3.19816E-02  4.30528E+01 -1.00000E+00  1.42887E-01
       1    -1     0     0   502     0  0.000000000E+00  0.000000000E+00  1.905544057E+02  1.905544057E+02  0.000000000E+00  0.00000E+00  9.000E+00
      21    -1     0     0   501   502  0.000000000E+00  0.000000000E+00 -6.028805043E+02  6.028805043E+02  0.000000000E+00  0.00000E+00  9.000E+00
      25     1     1     2     0     0 -1.557479919E+02 -3.937037998E+01 -3.662704918E+02  4.190304726E+02  1.250000000E+02  0.00000E+00  9.000E+00
      25     1     1     2     0     0  1.852241595E+02  7.075034404E+01 -1.386236237E+02  2.723143579E+02  1.250000000E+02  0.00000E+00  9.000E+00
       1     1     1     2   501     0 -2.947616765E+01 -3.137996406E+01  9.256801686E+01  1.020900796E+02  1.348699152E-06  0.00000E+00  9.000E+00
#rwgt            1           1   2.7778601176291412E-002           5       14741           0
</event>
<event>
      5   9999  3.19816E-02  2.06552E+02 -1.00000E+00  1.11141E-01
      21    -1     0     0   502   511  0.000000000E+00  0.000000000E+00  1.796730588E+02  1.796730588E+02  0.000000000E+00  0.00000E+00  9.000E+00
      21    -1     0     0   501   502  0.000000000E+00  0.000000000E+00 -1.201771881E+03  1.201771881E+03  0.000000000E+00  0.00000E+00  9.000E+00
      25     1     1     2     0     0 -2.150660115E+02 -2.377022893E+02 -2.451905265E+02  4.224916117E+02  1.250000000E+02  0.00000E+00  9.000E+00
      25     1     1     2     0     0  8.544107800E+00  2.412568778E+02 -6.769285107E+02  7.294759019E+02  1.250000000E+02  0.00000E+00  9.000E+00
      21     1     1     2   501   511  2.065219037E+02 -3.554588572E+00 -9.997978511E+01  2.294774264E+02  2.336015456E-06  0.00000E+00  9.000E+00
#rwgt            2          11   3.9320409831982246E-003           5       14808           0
</event>
<event>
      5   9999  3.19816E-02  4.25777E+01 -1.00000E+00  1.43178E-01
      21    -1     0     0   512   501  0.000000000E+00  0.000000000E+00  9.655989544E+01  9.655989544E+01  0.000000000E+00  0.00000E+00  9.000E+00
      21    -1     0     0   501   502  0.000000000E+00  0.000000000E+00 -7.203172496E+02  7.203172496E+02  0.000000000E+00  0.00000E+00  9.000E+00
      25     1     1     2     0     0 -1.287687196E+01  1.500598018E+02 -1.325159718E+02  2.363667505E+02  1.250000000E+02  0.00000E+00  9.000E+00
      25     1     1     2     0     0  4.750245249E+01 -1.252821847E+02 -5.038245762E+02  5.361122200E+02  1.250000000E+02  0.00000E+00  9.000E+00
      21     1     1     2   512   502 -3.462558053E+01 -2.477761716E+01  1.258319385E+01  4.439817459E+01  1.227334755E-06  0.00000E+00  9.000E+00
#rwgt            1           1   2.7304957354080669E-002           5       14828           0
</event>
<event>
      5   9999  3.19816E-02  9.39236E+01 -1.00000E+00  1.25065E-01
      21    -1     0     0   502   501  0.000000000E+00  0.000000000E+00  6.525123207E+02  6.525123207E+02  0.000000000E+00  0.00000E+00  9.000E+00
      21    -1     0     0   511   502  0.000000000E+00  0.000000000E+00 -1.384727837E+02  1.384727837E+02  0.000000000E+00  0.00000E+00  9.000E+00
      25     1     1     2     0     0 -9.508088186E+01 -1.610991161E+02  1.426762756E+02  2.664109962E+02  1.250000000E+02  0.00000E+00  9.000E+00
      25     1     1     2     0     0  1.796616225E+01  2.147178664E+02  3.476869809E+02  4.277122652E+02  1.250000000E+02  0.00000E+00  9.000E+00
      21     1     1     2   511   501  7.711471961E+01 -5.361875027E+01  2.367628050E+01  9.686184295E+01  1.507891493E-06  0.00000E+00  9.000E+00
#rwgt            1           1   2.3548246721389669E-002           5       14923           0
</event>
<event>
      5   9999  3.19816E-02  1.52545E+01 -1.00000E+00  1.76698E-01
      21    -1     0     0   502   501  0.000000000E+00  0.000000000E+00  6.930188075E+02  6.930188075E+02  0.000000000E+00  0.00000E+00  9.000E+00
       1    -1     0     0   501     0  0.000000000E+00  0.000000000E+00 -3.086952091E+03  3.086952091E+03  0.000000000E+00  0.00000E+00  9.000E+00
      25     1     1     2     0     0  5.752949946E+01  2.481509471E+02  5.794056809E+02  6.451546163E+02  1.250000000E+02  0.00000E+00  9.000E+00
      25     1     1     2     0     0 -7.251115786E+01 -2.452788613E+02 -1.702938994E+02  3.317297093E+02  1.250000000E+02  0.00000E+00  9.000E+00
       1     1     1     2   502     0  1.498165840E+01 -2.872085782E+00 -2.803045065E+03  2.803086573E+03  6.103515625E-05  0.00000E+00  9.000E+00
#rwgt            1           1   2.8140341371249229E-002           5       14994           0
</event>
<event>
      5   9999  3.19816E-02  1.19555E+02 -1.00000E+00  1.20437E-01
      21    -1     0     0   502   501  0.000000000E+00  0.000000000E+00  1.586834484E+03  1.586834484E+03  0.000000000E+00  0.00000E+00  9.000E+00
      21    -1     0     0   511   502  0.000000000E+00  0.000000000E+00 -7.431083690E+01  7.431083690E+01  0.000000000E+00  0.00000E+00  9.000E+00
      25     1     1     2     0     0 -1.402897814E+02  1.145221057E+02  3.942671742E+02  4.515175967E+02  1.250000000E+02  0.00000E+00  9.000E+00
      25     1     1     2     0     0  8.286932776E+01 -2.193847664E+02  1.022450345E+03  1.056421653E+03  1.250000000E+02  0.00000E+00  9.000E+00
      21     1     1     2   511   501  5.742045361E+01  1.048626607E+02  9.580612811E+01  1.532060713E+02  2.697398305E-06  0.00000E+00  9.000E+00
#rwgt            1           1   2.6204293364294577E-002           5       15304           0
</event>
<event>
      5   9999  3.19816E-02  7.55981E+01 -1.00000E+00  1.29551E-01
       2    -1     0     0   502     0  0.000000000E+00  0.000000000E+00  1.673027336E+03  1.673027336E+03  0.000000000E+00  0.00000E+00  9.000E+00
      21    -1     0     0   501   502  0.000000000E+00  0.000000000E+00 -1.530797527E+02  1.530797527E+02  0.000000000E+00  0.00000E+00  9.000E+00
      25     1     1     2     0     0 -7.082124301E+01 -9.706583991E+01 -7.371737997E+01  1.884056205E+02  1.250000000E+02  0.00000E+00  9.000E+00
      25     1     1     2     0     0  1.422666932E+02  1.217766780E+02  5.949409899E+02  6.361203918E+02  1.250000000E+02  0.00000E+00  9.000E+00
       2     1     1     2   501     0 -7.144545019E+01 -2.471083813E+01  9.987239729E+02  1.001581076E+03  0.000000000E+00  0.00000E+00  9.000E+00
#rwgt            1           1   3.1627744598895648E-002           5       15366           0
</event>
<event>
      5   9999  3.19816E-02  7.03367E+02 -1.00000E+00  9.48162E-02
      21    -1     0     0   502   501  0.000000000E+00  0.000000000E+00  7.356392025E+02  7.356392025E+02  0.000000000E+00  0.00000E+00  9.000E+00
      21    -1     0     0   511   502  0.000000000E+00  0.000000000E+00 -2.331087732E+03  2.331087732E+03  0.000000000E+00  0.00000E+00  9.000E+00
      25     1     1     2     0     0  6.238242456E+02 -1.935523496E+02 -2.664347835E+02  7.164019090E+02  1.250000000E+02  0.00000E+00  9.000E+00
      25     1     1     2     0     0 -3.854138195E+02 -4.681766423E+02  2.135650028E+02  6.549566330E+02  1.250000000E+02  0.00000E+00  9.000E+00
      21     1     1     2   511   501 -2.384104261E+02  6.617289919E+02 -1.542578748E+03  1.695368392E+03  3.051757812E-05  0.00000E+00  9.000E+00
#rwgt            2          11   7.2786185888180411E-004           5       15495           0
</event>
<event>
      5   9999  3.19816E-02  5.16792E+01 -1.00000E+00  1.38262E-01
      21    -1     0     0   502   501  0.000000000E+00  0.000000000E+00  3.015005369E+02  3.015005369E+02  0.000000000E+00  0.00000E+00  9.000E+00
      21    -1     0     0   512   502  0.000000000E+00  0.000000000E+00 -7.012026212E+02  7.012026212E+02  0.000000000E+00  0.00000E+00  9.000E+00
      25     1     1     2     0     0 -1.088917738E+02  1.656854743E+02  2.057869453E+02  3.119012050E+02  1.250000000E+02  0.00000E+00  9.000E+00
      25     1     1     2     0     0  1.595281723E+02 -1.760148081E+02 -4.217081668E+02  4.998932170E+02  1.250000000E+02  0.00000E+00  9.000E+00
      21     1     1     2   512   501 -5.063639858E+01  1.032933375E+01 -1.837808628E+02  1.909087361E+02  0.000000000E+00  0.00000E+00  9.000E+00
#rwgt            1           1   2.9242798356234462E-002           5       15515           0
</event>
<event>
      5   9999  3.19816E-02  4.33622E+01 -1.00000E+00  1.42699E-01
      21    -1     0     0   511   501  0.000000000E+00  0.000000000E+00  2.132084080E+02  2.132084080E+02  0.000000000E+00  0.00000E+00  9.000E+00
      21    -1     0     0   501   502  0.000000000E+00  0.000000000E+00 -1.159983906E+03  1.159983906E+03  0.000000000E+00  0.00000E+00  9.000E+00
      25     1     1     2     0     0  1.350655885E+02 -1.419825587E+02  1.136852620E+02  2.587491043E+02  1.250000000E+02  0.00000E+00  9.000E+00
      25     1     1     2     0     0 -1.201160980E+02  1.012788547E+02 -1.051072325E+03  1.070076313E+03  1.250000000E+02  0.00000E+00  9.000E+00
      21     1     1     2   511   502 -1.494949057E+01  4.070370403E+01 -9.388434743E+00  4.436689641E+01  8.085167388E-07  0.00000E+00  9.000E+00
#rwgt            1           1   2.6678906623328745E-002           5       15599           0
</event>
<event>
      5   9999  3.19816E-02  1.67353E+01 -1.00000E+00  1.73019E-01
      21    -1     0     0   502   501  0.000000000E+00  0.000000000E+00  7.093866595E+02  7.093866595E+02  0.000000000E+00  0.00000E+00  9.000E+00
      21    -1     0     0   501   512  0.000000000E+00  0.000000000E+00 -8.256732140E+01  8.256732140E+01  0.000000000E+00  0.00000E+00  9.000E+00
      25     1     1     2     0     0  3.717188800E+00 -1.105316637E+02  4.493029457E+01  1.728432745E+02  1.250000000E+02  0.00000E+00  9.000E+00
      25     1     1     2     0     0  1.195154579E+01  1.164104492E+02  5.767096643E+02  6.015922780E+02  1.250000000E+02  0.00000E+00  9.000E+00
      21     1     1     2   502   512 -1.566873459E+01 -5.878785429E+00  5.179379262E+00  1.751842834E+01  5.960464478E-08  0.00000E+00  9.000E+00
#rwgt            1           1   2.8733029593626100E-002           5       15774           0
</event>
<event>
      5   9999  3.19816E-02  3.05805E+02 -1.00000E+00  1.05322E-01
      21    -1     0     0   511   501  0.000000000E+00  0.000000000E+00  2.816348084E+03  2.816348084E+03  0.000000000E+00  0.00000E+00  9.000E+00
      21    -1     0     0   501   502  0.000000000E+00  0.000000000E+00 -7.201798807E+01  7.201798807E+01  0.000000000E+00  0.00000E+00  9.000E+00
      25     1     1     2     0     0 -1.488273482E+02 -9.873836718E+01  6.385451386E+02  6.747323460E+02  1.250000000E+02  0.00000E+00  9.000E+00
      25     1     1     2     0     0 -8.033976998E+01  3.012207062E+02  7.197292103E+02  7.942439982E+02  1.250000000E+02  0.00000E+00  9.000E+00
      21     1     1     2   511   502  2.291671182E+02 -2.024823391E+02  1.386055747E+03  1.419389728E+03  0.000000000E+00  0.00000E+00  9.000E+00
#rwgt            2          11   8.7701326703516530E-004           5       15969           0
</event>
<event>
      5   9999  3.19816E-02  9.21074E+01 -1.00000E+00  1.25455E-01
      21    -1     0     0   502   501  0.000000000E+00  0.000000000E+00  1.067357164E+03  1.067357164E+03  0.000000000E+00  0.00000E+00  9.000E+00
      21    -1     0     0   512   502  0.000000000E+00  0.000000000E+00 -1.421014928E+02  1.421014928E+02  0.000000000E+00  0.00000E+00  9.000E+00
      25     1     1     2     0     0  1.010593914E+02 -1.494861771E+02  6.760921508E+02  7.108338161E+02  1.250000000E+02  0.00000E+00  9.000E+00
      25     1     1     2     0     0 -1.080014109E+02  2.413316082E+02  2.765781413E+02  4.025241833E+02  1.250000000E+02  0.00000E+00  9.000E+00
      21     1     1     2   512   501  6.942019594E+00 -9.184543110E+01 -2.741462117E+01  9.610065715E+01  2.718390048E-06  0.00000E+00  9.000E+00
#rwgt            1           1   3.1427687667515629E-002           5       15989           0
</event>
<event>
      5   9999  3.19816E-02  1.66565E+02 -1.00000E+00  1.14619E-01
      21    -1     0     0   502   501  0.000000000E+00  0.000000000E+00  1.385392449E+03  1.385392449E+03  0.000000000E+00  0.00000E+00  9.000E+00
      21    -1     0     0   501   511  0.000000000E+00  0.000000000E+00 -7.850913231E+02  7.850913231E+02  0.000000000E+00  0.00000E+00  9.000E+00
      25     1     1     2     0     0  3.773585543E+01  5.381604637E+01  1.331947640E+03  1.339413930E+03  1.250000000E+02  0.00000E+00  9.000E+00
      25     1     1     2     0     0 -1.832577720E+02  2.722221773E+01 -3.588694105E+02  4.227726504E+02  1.250000000E+02  0.00000E+00  9.000E+00
      21     1     1     2   502   511  1.455219166E+02 -8.103826410E+01 -3.727771029E+02  4.082971919E+02  5.394796609E-06  0.00000E+00  9.000E+00
#rwgt            2          11   4.3581377969062153E-003           5       16248           0
</event>
<event>
      5   9999  3.19816E-02  1.37674E+02 -1.00000E+00  1.17889E-01
      21    -1     0     0   502   501  0.000000000E+00  0.000000000E+00  5.157897451E+02  5.157897451E+02  0.000000000E+00  0.00000E+00  9.000E+00
       1    -1     0     0   501     0  0.000000000E+00  0.000000000E+00 -8.015025209E+02  8.015025209E+02  0.000000000E+00  0.00000E+00  9.000E+00
      25     1     1     2     0     0 -4.356736102E+01 -1.444297802E+02  1.895645878E+02  2.726129294E+02  1.250000000E+02  0.00000E+00  9.000E+00
      25     1     1     2     0     0 -8.901906937E+01  1.815114338E+02  2.272171572E+02  3.288212764E+02  1.250000000E+02  0.00000E+00  9.000E+00
       1     1     1     2   502     0  1.325864304E+02 -3.708165359E+01 -7.024945207E+02  7.158580601E+02  1.078959322E-05  0.00000E+00  9.000E+00
#rwgt            1           1   2.5358919500491087E-002           5       16268           0
</event>
<event>
      5   9999  3.19816E-02  1.10565E+02 -1.00000E+00  1.21897E-01
      21    -1     0     0   502   511  0.000000000E+00  0.000000000E+00  1.302877851E+02  1.302877851E+02  0.000000000E+00  0.00000E+00  9.000E+00
      21    -1     0     0   501   502  0.000000000E+00  0.000000000E+00 -6.371254027E+02  6.371254027E+02  0.000000000E+00  0.00000E+00  9.000E+00
      25     1     1     2     0     0  1.403282150E+02 -1.638137356E+02 -3.812462363E+02  4.555223821E+02  1.250000000E+02  0.00000E+00  9.000E+00
      25     1     1     2     0     0 -7.571749441E+01  7.409109091E+01 -3.181525517E+01  1.669126693E+02  1.250000000E+02  0.00000E+00  9.000E+00
      21     1     1     2   501   511 -6.461072056E+01  8.972264471E+01 -9.377612609E+01  1.449781363E+02  3.015782986E-06  0.00000E+00  9.000E+00
#rwgt            1           1   1.9683261973446796E-002           5       16305           0
</event>
<event>
      5   9999  3.19816E-02  5.44333E+01 -1.00000E+00  1.37003E-01
      21    -1     0     0   512   501  0.000000000E+00  0.000000000E+00  5.892578185E+02  5.892578185E+02  0.000000000E+00  0.00000E+00  9.000E+00
      21    -1     0     0   501   502  0.000000000E+00  0.000000000E+00 -1.450469940E+03  1.450469940E+03  0.000000000E+00  0.00000E+00  9.000E+00
      25     1     1     2     0     0  6.075429670E+02  3.944057801E+02 -1.004321739E+03  1.244568813E+03  1.250000000E+02  0.00000E+00  9.000E+00
      25     1     1     2     0     0 -5.551535106E+02 -4.091818832E+02  7.052563468E+01  7.044317561E+02  1.250000000E+02  0.00000E+00  9.000E+00
      21     1     1     2   512   502 -5.238945639E+01  1.477610313E+01  7.258398245E+01  9.072718927E+01  9.536743164E-07  0.00000E+00  9.000E+00
#rwgt            1           1   1.2131338504825348E-002           5       16347           0
</event>
<event>
      5   9999  3.19816E-02  1.43954E+01 -1.00000E+00  1.79084E-01
      21    -1     0     0   511   501  0.000000000E+00  0.000000000E+00  2.857021019E+01  2.857021019E+01  0.000000000E+00  0.00000E+00  9.000E+00
      21    -1     0     0   501   502  0.000000000E+00  0.000000000E+00 -1.614947910E+03  1.614947910E+03  0.000000000E+00  0.00000E+00  9.000E+00
      25     1     1     2     0     0 -1.110322136E+02 -2.953483523E+01 -4.369561984E+02  4.687815891E+02  1.250000000E+02  0.00000E+00  9.000E+00
      25     1     1     2     0     0  9.796665022E+01  2.349183936E+01 -1.149179070E+03  1.160339117E+03  1.250000000E+02  0.00000E+00  9.000E+00
      21     1     1     2   511   502  1.306556334E+01  6.042995867E+00 -2.424306621E-01  1.439741356E+01  2.672879564E-07  0.00000E+00  9.000E+00
#rwgt            1           1   3.2753775692248167E-002           5       16481           0
</event>
<event>
      5   9999  3.19816E-02  3.05329E+01 -1.00000E+00  1.52511E-01
      21    -1     0     0   512   501  0.000000000E+00  0.000000000E+00  1.132266990E+03  1.132266990E+03  0.000000000E+00  0.00000E+00  9.000E+00
      21    -1     0     0   501   502  0.000000000E+00  0.000000000E+00 -4.852525552E+02  4.852525552E+02  0.000000000E+00  0.00000E+00  9.000E+00
      25     1     1     2     0     0 -3.054802417E+02 -3.163823940E+02  6.229580164E+02  7.727339047E+02  1.250000000E+02  0.00000E+00  9.000E+00
      25     1     1     2     0     0  2.988536220E+02  3.461874775E+02 -2.723764890E+02  5.467844262E+02  1.250000000E+02  0.00000E+00  9.000E+00
      21     1     1     2   512   502  6.626619705E+00 -2.980508354E+01  2.964329079E+02  2.980012147E+02  3.814697266E-06  0.00000E+00  9.000E+00
#rwgt            1           1   3.5813730079887397E-002           5       16638           0
</event>
<event>
      5   9999  3.19816E-02  3.18966E+02 -1.00000E+00  1.04734E-01
      21    -1     0     0   502   501  0.000000000E+00  0.000000000E+00  2.814238847E+02  2.814238847E+02  0.000000000E+00  0.00000E+00  9.000E+00
      21    -1     0     0   511   502  0.000000000E+00  0.000000000E+00 -1.926717707E+03  1.926717707E+03  0.000000000E+00  0.00000E+00  9.000E+00
      25     1     1     2     0     0 -6.278078059E+02  1.060028128E+02 -8.359878919E+02  1.058243825E+03  1.250000000E+02  0.00000E+00  9.000E+00
      25     1     1     2     0     0  3.510518253E+02 -2.645752322E+02 -2.925561617E+02  5.426338962E+02  1.250000000E+02  0.00000E+00  9.000E+00
      21     1     1     2   511   501  2.767559807E+02  1.585724194E+02 -5.167497683E+02  6.072638702E+02  7.629394531E-06  0.00000E+00  9.000E+00
#rwgt            2          11   2.7139864783958293E-003           5       16817           0
</event>
<event>
      5   9999  3.19816E-02  2.74411E+01 -1.00000E+00  1.55779E-01
       2    -1     0     0   502     0  0.000000000E+00  0.000000000E+00  6.151109165E+02  6.151109165E+02  0.000000000E+00  0.00000E+00  9.000E+00
      21    -1     0     0   501   502  0.000000000E+00  0.000000000E+00 -9.789283628E+02  9.789283628E+02  0.000000000E+00  0.00000E+00  9.000E+00
      25     1     1     2     0     0 -1.629702426E+02 -3.092894663E+01 -5.320950401E+02  5.711970163E+02  1.250000000E+02  0.00000E+00  9.000E+00
      25     1     1     2     0     0  1.355473135E+02  2.993049010E+01 -4.065231686E+02  4.473868517E+02  1.250000000E+02  0.00000E+00  9.000E+00
       2     1     1     2   501     0  2.742292918E+01  9.984565291E-01  5.748007624E+02  5.754554113E+02  1.078959322E-05  0.00000E+00  9.000E+00
#rwgt            1           1   3.3505467417716317E-002           5       16837           0
</event>
<event>
      5   9999  3.19816E-02  5.03612E+01 -1.00000E+00  1.38897E-01
      21    -1     0     0   511   501  0.000000000E+00  0.000000000E+00  6.410304810E+01  6.410304810E+01  0.000000000E+00  0.00000E+00  9.000E+00
      21    -1     0     0   501   502  0.000000000E+00  0.000000000E+00 -9.047562977E+02  9.047562977E+02  0.000000000E+00  0.00000E+00  9.000E+00
      25     1     1     2     0     0 -7.212405365E+01  7.879373013E+01 -6.454178819E+02  6.660327119E+02  1.250000000E+02  0.00000E+00  9.000E+00
      25     1     1     2     0     0  3.246524057E+01 -1.098328255E+02 -1.859189185E+02  2.516109808E+02  1.250000000E+02  0.00000E+00  9.000E+00
      21     1     1     2   511   502  3.965881308E+01  3.103909540E+01 -9.316449200E+00  5.121565311E+01  3.953724850E-07  0.00000E+00  9.000E+00
#rwgt            1           1   2.9086590753624544E-002           5       16929           0
</event>
<event>
      5   9999  3.40769E-02  6.10797E+01 -1.00000E+00  1.34291E-01
      21    -1     0     0   502   501  0.000000000E+00  0.000000000E+00  4.939122686E+01  4.939122686E+01  0.000000000E+00  0.00000E+00  9.000E+00
      21    -1     0     0   501   512  0.000000000E+00  0.000000000E+00 -2.070669206E+03  2.070669206E+03  0.000000000E+00  0.00000E+00  9.000E+00
      25     1     1     2     0     0  1.968452478E+02 -9.492258358E+01 -1.117723761E+03  1.145726736E+03  1.250000000E+02  0.00000E+00  9.000E+00
      25     1     1     2     0     0 -2.266346195E+02  1.482454467E+02 -6.790638717E+02  7.416823479E+02  1.250000000E+02  0.00000E+00  9.000E+00
      21     1     1     2   502   512  2.978937168E+01 -5.332286313E+01 -2.244903464E+02  2.326513486E+02  2.697398305E-06  0.00000E+00  9.000E+00
#rwgt            1           1   3.0650908204292941E-002           5       16967           0
</event>
<event>
      5   9999  3.19816E-02  5.41383E+01 -1.00000E+00  1.37133E-01
      21    -1     0     0   502   501  0.000000000E+00  0.000000000E+00  1.511660729E+03  1.511660729E+03  0.000000000E+00  0.00000E+00  9.000E+00
      21    -1     0     0   511   502  0.000000000E+00  0.000000000E+00 -3.767164205E+01  3.767164205E+01  0.000000000E+00  0.00000E+00  9.000E+00
      25     1     1     2     0     0 -1.489713521E+01  9.671301456E+01  3.423083748E+02  3.773265897E+02  1.250000000E+02  0.00000E+00  9.000E+00
      25     1     1     2     0     0 -2.123402406E+01 -5.639553069E+01  1.101135556E+03  1.109844967E+03  1.250000000E+02  0.00000E+00  9.000E+00
      21     1     1     2   511   501  3.613115927E+01 -4.031748388E+01  3.054515594E+01  6.216081344E+01  1.469710828E-06  0.00000E+00  9.000E+00
#rwgt            1           1   2.9914790296521349E-002           5       17097           0
</event>
<event>
      5   9999  3.19816E-02  1.27104E+02 -1.00000E+00  1.19318E-01
      21    -1     0     0   502   501  0.000000000E+00  0.000000000E+00  6.042917451E+01  6.042917451E+01  0.000000000E+00  0.00000E+00  9.000E+00
       1    -1     0     0   501     0  0.000000000E+00  0.000000000E+00 -1.312666720E+03  1.312666720E+03  0.000000000E+00  0.00000E+00  9.000E+00
      25     1     1     2     0     0 -1.041656462E+02  2.666756379E+01 -3.083433082E+02  3.496601729E+02  1.250000000E+02  0.00000E+00  9.000E+00
      25     1     1     2     0     0  1.915471215E+02  6.563517691E+01 -7.831978639E+02  8.185488197E+02  1.250000000E+02  0.00000E+00  9.000E+00
       1     1     1     2   502     0 -8.738147537E+01 -9.230274071E+01 -1.606963736E+02  2.048869021E+02  5.046370146E-06  0.00000E+00  9.000E+00
#rwgt            1           1   2.8167250672290568E-002           5       17133           0
</event>
<event>
      5   9999  3.19816E-02  2.37820E+02 -1.00000E+00  1.08977E-01
      21    -1     0     0   502   501  0.000000000E+00  0.000000000E+00  8.359827843E+02  8.359827843E+02  0.000000000E+00  0.00000E+00  9.000E+00
      21    -1     0     0   501   511  0.000000000E+00  0.000000000E+00 -4.264921832E+02  4.264921832E+02  0.000000000E+00  0.00000E+00  9.000E+00
      25     1     1     2     0     0  1.985205980E+02  4.591022095E+02  2.282706154E+02  5.638419464E+02  1.250000000E+02  0.00000E+00  9.000E+00
      25     1     1     2     0     0  3.191874615E+01 -4.003131889E+02  1.880521132E+02  4.607147196E+02  1.250000000E+02  0.00000E+00  9.000E+00
      21     1     1     2   502   511 -2.304393441E+02 -5.878902067E+01 -6.832127535E+00  2.379183016E+02  3.143827199E-06  0.00000E+00  9.000E+00
#rwgt            2          11   4.0664774889744596E-003           5       17251           0
</event>
<event>
      5   9999  3.19816E-02  2.10999E+02 -1.00000E+00  1.10808E-01
      21    -1     0     0   512   501  0.000000000E+00  0.000000000E+00  2.738947283E+02  2.738947283E+02  0.000000000E+00  0.00000E+00  9.000E+00
      21    -1     0     0   501   502  0.000000000E+00  0.000000000E+00 -6.093063553E+02  6.093063553E+02  0.000000000E+00  0.00000E+00  9.000E+00
      25     1     1     2     0     0 -1.257386836E+01 -1.958342680E+02 -9.172390469E+01  2.500948568E+02  1.250000000E+02  0.00000E+00  9.000E+00
      25     1     1     2     0     0 -1.420972468E+02  5.231602538E+01 -3.465958920E+02  3.983494778E+02  1.250000000E+02  0.00000E+00  9.000E+00
      21     1     1     2   512   502  1.546711152E+02  1.435182426E+02  1.029081698E+02  2.347567491E+02  3.814697266E-06  0.00000E+00  9.000E+00
#rwgt            2          11   4.4077234541928601E-003           5       17271           0
</event>
<event>
      5   9999  3.19816E-02  9.81537E+01 -1.00000E+00  1.24193E-01
      21    -1     0     0   502   511  0.000000000E+00  0.000000000E+00  2.874188452E+02  2.874188452E+02  0.000000000E+00  0.00000E+00  9.000E+00
      21    -1     0     0   501   502  0.000000000E+00  0.000000000E+00 -1.539738817E+03  1.539738817E+03  0.000000000E+00  0.00000E+00  9.000E+00
      25     1     1     2     0     0  3.401327051E+02  4.268124502E+02 -6.695517871E+02  8.728022229E+02  1.250000000E+02  0.00000E+00  9.000E+00
      25     1     1     2     0     0 -3.436357363E+02 -5.249035801E+02 -5.672366828E+02  8.549805506E+02  1.250000000E+02  0.00000E+00  9.000E+00
      21     1     1     2   501   511  3.503031205E+00  9.809112991E+01 -1.553150237E+01  9.937488899E+01  2.112393993E-06  0.00000E+00  9.000E+00
#rwgt            1           1   3.0933225032650429E-002           5       17306           0
</event>
<event>
      5   9999  3.19816E-02  4.13128E+02 -1.00000E+00  1.01265E-01
      21    -1     0     0   512   501  0.000000000E+00  0.000000000E+00  4.163605596E+02  4.163605596E+02  0.000000000E+00  0.00000E+00  9.000E+00
      21    -1     0     0   501   502  0.000000000E+00  0.000000000E+00 -7.763313221E+02  7.763313221E+02  0.000000000E+00  0.00000E+00  9.000E+00
      25     1     1     2     0     0 -8.987972390E+01  2.710629693E+01 -1.617883673E+02  2.249746472E+02  1.250000000E+02  0.00000E+00  9.000E+00
      25     1     1     2     0     0  3.476727250E+02  2.957213774E+02 -2.752496838E+02  5.474621861E+02  1.250000000E+02  0.00000E+00  9.000E+00
      21     1     1     2   512   502 -2.577930011E+02 -3.228276744E+02  7.706728858E+01  4.202550484E+02  6.538061715E-06  0.00000E+00  9.000E+00
#rwgt            2          11   3.9457900119165773E-003           5       17467           0
</event>
<event>
      5   9999  3.19816E-02  1.11494E+02 -1.00000E+00  1.21739E-01
      21    -1     0     0   502   511  0.000000000E+00  0.000000000E+00  3.700888207E+02  3.700888207E+02  0.000000000E+00  0.00000E+00  9.000E+00
      21    -1     0     0   501   502  0.000000000E+00  0.000000000E+00 -1.181349756E+03  1.181349756E+03  0.000000000E+00  0.00000E+00  9.000E+00
      25     1     1     2     0     0  3.300220822E+02  4.040132854E+02 -9.750868070E+01  5.452286239E+02  1.250000000E+02  0.00000E+00  9.000E+00
      25     1     1     2     0     0 -2.209999484E+02 -3.806665082E+02 -7.586961949E+02  8.859982414E+02  1.250000000E+02  0.00000E+00  9.000E+00
      21     1     1     2   501   511 -1.090221339E+02 -2.334677718E+01  4.494394061E+01  1.202117111E+02  6.743495762E-07  0.00000E+00  9.000E+00
#rwgt            1           1   3.0863686595965226E-002           5       17487           0
</event>
<event>
      5   9999  3.19816E-02  7.47156E+01 -1.00000E+00  1.29803E-01
      21    -1     0     0   502   501  0.000000000E+00  0.000000000E+00  1.371738180E+03  1.371738180E+03  0.000000000E+00  0.00000E+00  9.000E+00
      21    -1     0     0   501   512  0.000000000E+00  0.000000000E+00 -2.185853197E+02  2.185853197E+02  0.000000000E+00  0.00000E+00  9.000E+00
      25     1     1     2     0     0  1.154506153E+02 -1.342970678E+02 -1.150585085E+00  2.167737781E+02  1.250000000E+02  0.00000E+00  9.000E+00
      25     1     1     2     0     0 -7.983579439E+01  6.861601177E+01  1.245204809E+03  1.255882928E+03  1.250000000E+02  0.00000E+00  9.000E+00
      21     1     1     2   502   512 -3.561482096E+01  6.568105607E+01 -9.090136354E+01  1.176667943E+02  3.303624740E-06  0.00000E+00  9.000E+00
#rwgt            1           1   2.7692739314579391E-002           5       17568           0
</event>
<event>
      5   9999  4.15354E-02  2.60585E+02 -1.00000E+00  1.07618E-01
      21    -1     0     0   511   501  0.000000000E+00  0.000000000E+00  6.179439120E+02  6.179439120E+02  0.000000000E+00  0.00000E+00  9.000E+00
      21    -1     0     0   501   502  0.000000000E+00  0.000000000E+00 -2.127986529E+03  2.127986529E+03  0.000000000E+00  0.00000E+00  9.000E+00
      25     1     1     2     0     0 -4.495354405E+02 -1.137755158E+02 -1.332030465E+03  1.415965091E+03  1.250000000E+02  0.00000E+00  9.000E+00
      25     1     1     2     0     0  2.791150435E+02 -8.335741542E+01 -6.878602095E+02  7.573838749E+02  1.250000000E+02  0.00000E+00  9.000E+00
      21     1     1     2   511   502  1.704203970E+02  1.971329313E+02  5.098480571E+02  5.725814751E+02  1.321449896E-05  0.00000E+00  9.000E+00
#rwgt            2          11   5.3519209625951421E-002           5       17674           0
</event>
<event>
      5   9999  3.19816E-02  2.08227E+01 -1.00000E+00  1.64937E-01
      21    -1     0     0   502   501  0.000000000E+00  0.000000000E+00  3.789336466E+02  3.789336466E+02  0.000000000E+00  0.00000E+00  9.000E+00
      21    -1     0     0   512   502  0.000000000E+00  0.000000000E+00 -3.128365620E+02  3.128365620E+02  0.000000000E+00  0.00000E+00  9.000E+00
      25     1     1     2     0     0 -2.867700406E+02 -1.126946619E+02 -1.183124495E+01  3.327192831E+02  1.250000000E+02  0.00000E+00  9.000E+00
      25     1     1     2     0     0  2.755069195E+02  1.302082710E+02  7.676718841E+01  3.381958867E+02  1.250000000E+02  0.00000E+00  9.000E+00
      21     1     1     2   512   501  1.126312103E+01 -1.751360904E+01  1.161141073E+00  2.085503886E+01  3.752016518E-07  0.00000E+00  9.000E+00
#rwgt            1           1   2.7468338498520452E-002           5       17709           0
</event>
<event>
      5   9999  3.19816E-02  4.54655E+02 -1.00000E+00  1.00039E-01
      21    -1     0     0   502   501  0.000000000E+00  0.000000000E+00  1.613489970E+03  1.613489970E+03  0.000000000E+00  0.00000E+00  9.000E+00
       2    -1     0     0   501     0  0.000000000E+00  0.000000000E+00 -1.491260208E+03  1.491260208E+03  0.000000000E+00  0.00000E+00  9.000E+00
      25     1     1     2     0     0 -4.910112781E+02 -2.351236189E+02  1.197045707E+03  1.320953677E+03  1.250000000E+02  0.00000E+00  9.000E+00
      25     1     1     2     0     0  5.115938499E+02 -2.190657168E+02  4.801757368E+01  5.724060997E+02  1.250000000E+02  0.00000E+00  9.000E+00
       2     1     1     2   502     0 -2.058257183E+01  4.541893357E+02 -1.122833519E+03  1.211390402E+03  2.157918644E-05  0.00000E+00  9.000E+00
#rwgt            1           1   2.9534511139477818E-002           5       17887           0
</event>
<event>
      5   9999  3.19816E-02  2.53173E+01 -1.00000E+00  1.58342E-01
      21    -1     0     0   502   501  0.000000000E+00  0.000000000E+00  7.020938603E+02  7.020938603E+02  0.000000000E+00  0.00000E+00  9.000E+00
      -2    -1     0     0     0   502  0.000000000E+00  0.000000000E+00 -3.852136905E+02  3.852136905E+02  0.000000000E+00  0.00000E+00  9.000E+00
      25     1     1     2     0     0 -2.965112711E+02  4.058254310E+02  1.197072095E+02  5.315712844E+02  1.250000000E+02  0.00000E+00  9.000E+00
      25     1     1     2     0     0  2.779513634E+02 -3.886064085E+02  1.826739924E+02  5.265611918E+02  1.250000000E+02  0.00000E+00  9.000E+00
      -2     1     1     2     0   501  1.855990768E+01 -1.721902252E+01  1.449896797E+01  2.917507467E+01  4.129530925E-07  0.00000E+00  9.000E+00
#rwgt            1           1   3.0778542596936312E-002           5       17924           0
</event>
<event>
      5   9999  3.19816E-02  6.89226E+01 -1.00000E+00  1.31563E-01
      21    -1     0     0   511   501  0.000000000E+00  0.000000000E+00  2.924249186E+01  2.924249186E+01  0.000000000E+00  0.00000E+00  9.000E+00
      21    -1     0     0   501   502  0.000000000E+00  0.000000000E+00 -2.464072244E+03  2.464072244E+03  0.000000000E+00  0.00000E+00  9.000E+00
      25     1     1     2     0     0  1.957038825E+02  1.995468751E+01 -1.651627096E+03  1.667991386E+03  1.250000000E+02  0.00000E+00  9.000E+00
      25     1     1     2     0     0 -1.335436395E+02  9.818343556E+00 -6.503630275E+02  6.756680924E+02  1.250000000E+02  0.00000E+00  9.000E+00
      21     1     1     2   511   502 -6.216024304E+01 -2.977303107E+01 -1.328396289E+02  1.496552579E+02  2.697398305E-06  0.00000E+00  9.000E+00
#rwgt            1           1   6.2548922463832007E-002           5       18093           0
</event>
<event>
      5   9999  3.19816E-02  5.71819E+01 -1.00000E+00  1.35829E-01
      21    -1     0     0   502   512  0.000000000E+00  0.000000000E+00  1.491570523E+02  1.491570523E+02  0.000000000E+00  0.00000E+00  9.000E+00
      21    -1     0     0   501   502  0.000000000E+00  0.000000000E+00 -2.993870193E+02  2.993870193E+02  0.000000000E+00  0.00000E+00  9.000E+00
      25     1     1     2     0     0 -4.764395229E+01  9.532617253E+01 -1.729308494E+02  2.385101760E+02  1.250000000E+02  0.00000E+00  9.000E+00
      25     1     1     2     0     0  6.375701186E+01 -4.046146421E+01 -5.778880660E+00  1.461522566E+02  1.250000000E+02  0.00000E+00  9.000E+00
      21     1     1     2   501   512 -1.611305957E+01 -5.486470832E+01  2.847976307E+01  6.388163909E+01  1.118282261E-06  0.00000E+00  9.000E+00
#rwgt            1           1   2.7574895284072153E-002           5       18135           0
</event>
<event>
      5   9999  3.19816E-02  7.55687E+01 -1.00000E+00  1.29559E-01
      21    -1     0     0   502   501  0.000000000E+00  0.000000000E+00  9.379337468E+02  9.379337468E+02  0.000000000E+00  0.00000E+00  9.000E+00
      21    -1     0     0   501   511  0.000000000E+00  0.000000000E+00 -2.064230343E+02  2.064230343E+02  0.000000000E+00  0.00000E+00  9.000E+00
      25     1     1     2     0     0 -7.613006475E+01 -8.309561354E+01 -7.343953934E+01  1.836274317E+02  1.250000000E+02  0.00000E+00  9.000E+00
      25     1     1     2     0     0  1.089644467E+01  4.494846900E+01  8.580694857E+02  8.683589924E+02  1.250000000E+02  0.00000E+00  9.000E+00
      21     1     1     2   502   511  6.523362008E+01  3.814714454E+01 -5.311923396E+01  9.237035695E+01  2.132480600E-06  0.00000E+00  9.000E+00
#rwgt            1           1   3.1427202940621249E-002           5       18195           0
</event>
<event>
      5   9999  3.19816E-02  1.65599E+02 -1.00000E+00  1.14716E-01
      21    -1     0     0   502   501  0.000000000E+00  0.000000000E+00  2.944324918E+01  2.944324918E+01  0.000000000E+00  0.00000E+00  9.000E+00
       2    -1     0     0   501     0  0.000000000E+00  0.000000000E+00 -2.566188804E+03  2.566188804E+03  0.000000000E+00  0.00000E+00  9.000E+00
      25     1     1     2     0     0  8.451270286E+01  1.192881913E+02 -1.025011676E+03  1.042902682E+03  1.250000000E+02  0.00000E+00  9.000E+00
      25     1     1     2     0     0 -1.208336542E+02  4.227853863E+01 -6.012167491E+02  6.272757179E+02  1.250000000E+02  0.00000E+00  9.000E+00
       2     1     1     2   502     0  3.632095138E+01 -1.615667299E+02 -9.105171301E+02  9.254536531E+02  1.078959322E-05  0.00000E+00  9.000E+00
#rwgt            1           1   2.6371492255227946E-002           5       18314           0
</event>
<event>
      5   9999  3.19816E-02  1.43065E+01 -1.00000E+00  1.79342E-01
      21    -1     0     0   502   501  0.000000000E+00  0.000000000E+00  2.693495474E+02  2.693495474E+02  0.000000000E+00  0.00000E+00  9.000E+00
       2    -1     0     0   501     0  0.000000000E+00  0.000000000E+00 -2.087639627E+03  2.087639627E+03  0.000000000E+00  0.00000E+00  9.000E+00
      25     1     1     2     0     0 -4.100817078E+02  1.971586861E+02 -1.275420880E+02  4.888052156E+02  1.250000000E+02  0.00000E+00  9.000E+00
      25     1     1     2     0     0  4.047989672E+02 -2.104541038E+02 -5.422318046E+02  7.195786708E+02  1.250000000E+02  0.00000E+00  9.000E+00
       2     1     1     2   502     0  5.282740625E+00  1.329541767E+01 -1.148516187E+03  1.148605288E+03  3.051757812E-05  0.00000E+00  9.000E+00
#rwgt            1           1   2.9134502001623444E-002           5       18366           0
</event>
<event>
      5   9999  3.19816E-02  7.60134E+01 -1.00000E+00  1.29433E-01
      21    -1     0     0   502   501  0.000000000E+00  0.000000000E+00  5.627772752E+02  5.627772752E+02  0.000000000E+00  0.00000E+00  9.000E+00
      21    -1     0     0   511   502  0.000000000E+00  0.000000000E+00 -5.123819598E+02  5.123819598E+02  0.000000000E+00  0.00000E+00  9.000E+00
      25     1     1     2     0     0 -2.008046863E+02  1.283271953E+02 -3.568225032E+02  4.469202277E+02  1.250000000E+02  0.00000E+00  9.000E+00
      25     1     1     2     0     0  2.020511351E+02 -2.043303701E+02  4.442752825E+02  5.436736963E+02  1.250000000E+02  0.00000E+00  9.000E+00
      21     1     1     2   511   501 -1.246448746E+00  7.600317477E+01 -3.705746386E+01  8.456531108E+01  1.066240300E-06  0.00000E+00  9.000E+00
#rwgt            1           1   2.5887204564840179E-002           5       18593           0
</event>
<event>
      5   9999  3.19816E-02  3.28338E+01 -1.00000E+00  1.50366E-01
      21    -1     0     0   512   501  0.000000000E+00  0.000000000E+00  1.226947303E+03  1.226947303E+03  0.000000000E+00  0.00000E+00  9.000E+00
      21    -1     0     0   501   502  0.000000000E+00  0.000000000E+00 -1.632443486E+02  1.632443486E+02  0.000000000E+00  0.00000E+00  9.000E+00
      25     1     1     2     0     0  1.825118079E+02  9.700869685E+01 -1.198391197E+01  2.418467726E+02  1.250000000E+02  0.00000E+00  9.000E+00
      25     1     1     2     0     0 -2.145893556E+02 -1.040149008E+02  4.691500367E+02  5.409200015E+02  1.250000000E+02  0.00000E+00  9.000E+00
      21     1     1     2   512   502  3.207754768E+01  7.006203911E+00  6.065368301E+02  6.074248778E+02  1.078959322E-05  0.00000E+00  9.000E+00
#rwgt            1           1   3.0022876428909974E-002           5       18675           0
</event>
<event>
      5   9999  3.19816E-02  3.12384E+01 -1.00000E+00  1.51830E-01
      21    -1     0     0   502   501  0.000000000E+00  0.000000000E+00  1.056297384E+03  1.056297384E+03  0.000000000E+00  0.00000E+00  9.000E+00
      21    -1     0     0   511   502  0.000000000E+00  0.000000000E+00 -4.673884754E+01  4.673884754E+01  0.000000000E+00  0.00000E+00  9.000E+00
      25     1     1     2     0     0 -2.578487570E+01  1.638189927E+02  3.422640809E+02  4.003388855E+02  1.250000000E+02  0.00000E+00  9.000E+00
      25     1     1     2     0     0  2.969808348E+01 -1.328266869E+02  6.107809329E+02  6.381247941E+02  1.250000000E+02  0.00000E+00  9.000E+00
      21     1     1     2   511   501 -3.913207781E+00 -3.099230577E+01  5.651352278E+01  6.457255198E+01  9.536743164E-07  0.00000E+00  9.000E+00
#rwgt            1           1   3.2046762083731986E-002           5       18780           0
</event>
<event>
      5   9999  3.19816E-02  3.45161E+01 -1.00000E+00  1.48927E-01
      21    -1     0     0   502   501  0.000000000E+00  0.000000000E+00  1.817012443E+03  1.817012443E+03  0.000000000E+00  0.00000E+00  9.000E+00
      21    -1     0     0   512   502  0.000000000E+00  0.000000000E+00 -4.038678782E+01  4.038678782E+01  0.000000000E+00  0.00000E+00  9.000E+00
      25     1     1     2     0     0 -1.436471719E+02 -1.151187288E+02  9.585213082E+02  9.840096189E+02  1.250000000E+02  0.00000E+00  9.000E+00
      25     1     1     2     0     0  1.497786133E+02  1.490858712E+02  7.945003270E+02  8.315744102E+02  1.250000000E+02  0.00000E+00  9.000E+00
      21     1     1     2   512   501 -6.131441388E+00 -3.396714237E+01  2.360401970E+01  4.181520154E+01  1.507891493E-06  0.00000E+00  9.000E+00
#rwgt            1           1   2.8605131136230498E-002           5       18928           0
</event>
<event>
      5   9999  3.19816E-02  1.13296E+01 -1.00000E+00  1.89692E-01
      21    -1     0     0   511   501  0.000000000E+00  0.000000000E+00  1.838966739E+02  1.838966739E+02  0.000000000E+00  0.00000E+00  9.000E+00
      21    -1     0     0   501   502  0.000000000E+00  0.000000000E+00 -5.177121470E+02  5.177121470E+02  0.000000000E+00  0.00000E+00  9.000E+00
      25     1     1     2     0     0 -1.353376378E+02 -2.433434171E+02 -1.371906692E+02  3.346319987E+02  1.250000000E+02  0.00000E+00  9.000E+00
      25     1     1     2     0     0  1.307589002E+02  2.329802168E+02 -1.984420770E+02  3.555023619E+02  1.250000000E+02  0.00000E+00  9.000E+00
      21     1     1     2   511   502  4.578737618E+00  1.036320030E+01  1.817272950E+00  1.147446032E+01  2.731427965E-07  0.00000E+00  9.000E+00
#rwgt            1           1   2.7303157230613863E-002           5       19051           0
</event>
<event>
      5   9999  3.19816E-02  1.13583E+02 -1.00000E+00  1.21390E-01
      21    -1     0     0   502   501  0.000000000E+00  0.000000000E+00  1.270334533E+02  1.270334533E+02  0.000000000E+00  0.00000E+00  9.000E+00
       2    -1     0     0   501     0  0.000000000E+00  0.000000000E+00 -3.268193165E+03  3.268193165E+03  0.000000000E+00  0.00000E+00  9.000E+00
      25     1     1     2     0     0 -2.311814421E+02 -1.063440536E+02 -2.800877985E+02  3.985324225E+02  1.250000000E+02  0.00000E+00  9.000E+00
      25     1     1     2     0     0  3.265540260E+02  1.680306494E+02 -4.997911442E+02  6.326831900E+02  1.250000000E+02  0.00000E+00  9.000E+00
       2     1     1     2   502     0 -9.537258392E+01 -6.168659584E+01 -2.361280769E+03  2.364011006E+03  3.051757812E-05  0.00000E+00  9.000E+00
#rwgt            1           1   2.7808297380646073E-002           5       19253           0
</event>
<event>
      5   9999  3.19816E-02  1.20395E+02 -1.00000E+00  1.20308E-01
      21    -1     0     0   502   501  0.000000000E+00  0.000000000E+00  4.055730699E+02  4.055730699E+02  0.000000000E+00  0.00000E+00  9.000E+00
      21    -1     0     0   501   511  0.000000000E+00  0.000000000E+00 -1.529045470E+03  1.529045470E+03  0.000000000E+00  0.00000E+00  9.000E+00
      25     1     1     2     0     0 -1.592039055E+02 -6.235545782E+02 -1.393713258E+02  6.702354526E+02  1.250000000E+02  0.00000E+00  9.000E+00
      25     1     1     2     0     0  6.484284495E+01  5.487819078E+02 -4.692840527E+02  7.356756752E+02  1.250000000E+02  0.00000E+00  9.000E+00
      21     1     1     2   502   511  9.436106059E+01  7.477267039E+01 -5.148170212E+02  5.287074118E+02  7.629394531E-06  0.00000E+00  9.000E+00
#rwgt            1           1   3.1600875952738840E-002           5       19303           0
</event>
<event>
      5   9999  3.19816E-02  6.19628E+01 -1.00000E+00  1.33961E-01
      21    -1     0     0   502   501  0.000000000E+00  0.000000000E+00  9.740546737E+02  9.740546737E+02  0.000000000E+00  0.00000E+00  9.000E+00
       2    -1     0     0   501     0  0.000000000E+00  0.000000000E+00 -9.264283382E+02  9.264283382E+02  0.000000000E+00  0.00000E+00  9.000E+00
      25     1     1     2     0     0 -3.109465796E+01  3.033024707E+02 -1.079356426E+02  3.467482796E+02  1.250000000E+02  0.00000E+00  9.000E+00
      25     1     1     2     0     0  3.323524396E+01 -2.413766093E+02  8.312577697E+02  8.752038212E+02  1.250000000E+02  0.00000E+00  9.000E+00
       2     1     1     2   502     0 -2.140586009E+00 -6.192586142E+01 -6.756957916E+02  6.785309110E+02  0.000000000E+00  0.00000E+00  9.000E+00
#rwgt            1           1   2.9146493802329646E-002           5       19380           0
</event>
<event>
      5   9999  3.19816E-02  2.36238E+01 -1.00000E+00  1.60615E-01
      21    -1     0     0   502   501  0.000000000E+00  0.000000000E+00  4.931189679E+02  4.931189679E+02  0.000000000E+00  0.00000E+00  9.000E+00
      21    -1     0     0   511   502  0.000000000E+00  0.000000000E+00 -4.016727146E+02  4.016727146E+02  0.000000000E+00  0.00000E+00  9.000E+00
      25     1     1     2     0     0  2.929596981E+02 -1.284772774E+02 -2.208068788E+02  4.083043880E+02  1.250000000E+02  0.00000E+00  9.000E+00
      25     1     1     2     0     0 -3.018239902E+02  1.065796287E+02  3.099273924E+02  4.627493132E+02  1.250000000E+02  0.00000E+00  9.000E+00
      21     1     1     2   511   501  8.864292041E+00  2.189764865E+01  2.325739666E+00  2.373798127E+01  2.763753681E-07  0.00000E+00  9.000E+00
#rwgt            1           1   2.7368829991456824E-002           5       19504           0
</event>
<event>
      5   9999  3.19816E-02  4.77994E+01 -1.00000E+00  1.40200E-01
      21    -1     0     0   502   512  0.000000000E+00  0.000000000E+00  8.453490240E+02  8.453490240E+02  0.000000000E+00  0.00000E+00  9.000E+00
      21    -1     0     0   501   502  0.000000000E+00  0.000000000E+00 -3.169918337E+02  3.169918337E+02  0.000000000E+00  0.00000E+00  9.000E+00
      25     1     1     2     0     0 -5.707749688E+01 -4.118789349E+02  3.476197831E+02  5.562073456E+02  1.250000000E+02  0.00000E+00  9.000E+00
      25     1     1     2     0     0  8.930766139E+01  3.765802056E+02 -1.266908780E+01  4.069078710E+02  1.250000000E+02  0.00000E+00  9.000E+00
      21     1     1     2   501   512 -3.223016452E+01  3.529872925E+01  1.934064949E+02  1.992256411E+02  2.697398305E-06  0.00000E+00  9.000E+00
#rwgt            1           1   2.8955352695207298E-002           5       19654           0
</event>
<event>
      5   9999  3.19816E-02  3.93167E+01 -1.00000E+00  1.45306E-01
      21    -1     0     0   502   501  0.000000000E+00  0.000000000E+00  9.983447007E+02  9.983447007E+02  0.000000000E+00  0.00000E+00  9.000E+00
      21    -1     0     0   501   511  0.000000000E+00  0.000000000E+00 -1.915115157E+02  1.915115157E+02  0.000000000E+00  0.00000E+00  9.000E+00
      25     1     1     2     0     0 -4.011847549E+02  8.812695959E+01  4.635842923E+02  6.318630901E+02  1.250000000E+02  0.00000E+00  9.000E+00
      25     1     1     2     0     0  3.657654643E+02 -1.051937454E+02  3.139900285E+02  5.089841225E+02  1.250000000E+02  0.00000E+00  9.000E+00
      21     1     1     2   502   511  3.541929061E+01  1.706678583E+01  2.925886425E+01  4.900900390E+01  1.066240300E-06  0.00000E+00  9.000E+00
#rwgt            1           1   2.9216280710183843E-002           5       19795           0
</event>
<event>
      5   9999  3.19816E-02  1.27432E+01 -1.00000E+00  1.84325E-01
      21    -1     0     0   512   501  0.000000000E+00  0.000000000E+00  1.139621166E+02  1.139621166E+02  0.000000000E+00  0.00000E+00  9.000E+00
      21    -1     0     0   501   502  0.000000000E+00  0.000000000E+00 -1.495298107E+03  1.495298107E+03  0.000000000E+00  0.00000E+00  9.000E+00
      25     1     1     2     0     0 -3.439093159E+02  1.815895894E+02 -7.496422356E+02  8.537194374E+02  1.250000000E+02  0.00000E+00  9.000E+00
      25     1     1     2     0     0  3.330795962E+02 -1.748734188E+02 -6.273026536E+02  7.420622273E+02  1.250000000E+02  0.00000E+00  9.000E+00
      21     1     1     2   512   502  1.082971970E+01 -6.716170544E+00 -4.391101003E+00  1.347855866E+01  3.097148194E-07  0.00000E+00  9.000E+00
#rwgt            1           1   2.8604048476639603E-002           5       20000           0
</event>
<event>
      5   9999  3.19816E-02  1.47723E+02 -1.00000E+00  1.16658E-01
      21    -1     0     0   502   501  0.000000000E+00  0.000000000E+00  2.378268603E+02  2.378268603E+02  0.000000000E+00  0.00000E+00  9.000E+00
      21    -1     0     0   501   511  0.000000000E+00  0.000000000E+00 -3.310122604E+03  3.310122604E+03  0.000000000E+00  0.00000E+00  9.000E+00
      25     1     1     2     0     0  2.222953657E+02  4.007617949E+02 -2.546713552E+03  2.590637018E+03  1.250000000E+02  0.00000E+00  9.000E+00
      25     1     1     2     0     0 -2.202032055E+02 -5.484695041E+02 -2.690826683E+02  6.613159087E+02  1.250000000E+02  0.00000E+00  9.000E+00
      21     1     1     2   502   511 -2.092160213E+00  1.477077093E+02 -2.564995233E+02  2.959965371E+02  0.000000000E+00  0.00000E+00  9.000E+00
#rwgt            2          11   1.5430579501527196E-002           5       20252           0
</event>
<event>
      5   9999  3.19816E-02  4.34329E+01 -1.00000E+00  1.42657E-01
      21    -1     0     0   502   512  0.000000000E+00  0.000000000E+00  1.410189856E+03  1.410189856E+03  0.000000000E+00  0.00000E+00  9.000E+00
      21    -1     0     0   501   502  0.000000000E+00  0.000000000E+00 -7.663572851E+01  7.663572851E+01  0.000000000E+00  0.00000E+00  9.000E+00
      25     1     1     2     0     0  4.957014755E+01  7.119581717E+01  1.553403255E+01  1.529455788E+02  1.250000000E+02  0.00000E+00  9.000E+00
      25     1     1     2     0     0 -6.064681252E+01 -2.919909427E+01  6.952493803E+02  7.095965923E+02  1.250000000E+02  0.00000E+00  9.000E+00
      21     1     1     2   501   512  1.107666497E+01 -4.199672290E+01  6.227707145E+02  6.242834133E+02  1.078959322E-05  0.00000E+00  9.000E+00
#rwgt            1           1   2.9771457375173640E-002           5       20272           0
</event>
<event>
      5   9999  3.19816E-02  7.71584E+01 -1.00000E+00  1.29114E-01
      21    -1     0     0   502   501  0.000000000E+00  0.000000000E+00  2.122945218E+02  2.122945218E+02  0.000000000E+00  0.00000E+00  9.000E+00
      21    -1     0     0   511   502  0.000000000E+00  0.000000000E+00 -5.612736725E+02  5.612736725E+02  0.000000000E+00  0.00000E+00  9.000E+00
      25     1     1     2     0     0 -2.276659611E+02  3.801478214E+01 -2.232132986E+02  3.445665251E+02  1.250000000E+02  0.00000E+00  9.000E+00
      25     1     1     2     0     0  2.705843735E+02 -1.021352340E+02 -4.668473426E+01  3.185152643E+02  1.250000000E+02  0.00000E+00  9.000E+00
      21     1     1     2   511   501 -4.291841238E+01  6.412045185E+01 -7.908111787E+01  1.104864049E+02  2.336015456E-06  0.00000E+00  9.000E+00
#rwgt            1           1   3.1879180372829240E-002           5       20357           0
</event>
<event>
      5   9999  3.19816E-02  9.05343E+01 -1.00000E+00  1.25802E-01
      21    -1     0     0   502   512  0.000000000E+00  0.000000000E+00  1.898203058E+03  1.898203058E+03  0.000000000E+00  0.00000E+00  9.000E+00
      21    -1     0     0   501   502  0.000000000E+00  0.000000000E+00 -7.515615383E+02  7.515615383E+02  0.000000000E+00  0.00000E+00  9.000E+00
      25     1     1     2     0     0  8.689454864E+01  8.348788993E+02 -8.856110258E+01  8.532534840E+02  1.250000000E+02  0.00000E+00  9.000E+00
      25     1     1     2     0     0 -2.184032623E+01 -7.719154088E+02  2.707296164E+02  8.277982384E+02  1.250000000E+02  0.00000E+00  9.000E+00
      21     1     1     2   501   512 -6.505422241E+01 -6.296349052E+01  9.644730059E+02  9.687128739E+02  1.078959322E-05  0.00000E+00  9.000E+00
#rwgt            2          11   1.8013816535080694E-003           5       20482           0
</event>
<event>
      5   9999  3.19816E-02  3.11160E+02 -1.00000E+00  1.05079E-01
      21    -1     0     0   511   501  0.000000000E+00  0.000000000E+00  4.873187777E+02  4.873187777E+02  0.000000000E+00  0.00000E+00  9.000E+00
      21    -1     0     0   501   502  0.000000000E+00  0.000000000E+00 -9.157306336E+02  9.157306336E+02  0.000000000E+00  0.00000E+00  9.000E+00
      25     1     1     2     0     0 -6.126731224E+01 -2.522772036E+02  1.362758619E+02  3.187374806E+02  1.250000000E+02  0.00000E+00  9.000E+00
      25     1     1     2     0     0  8.514589498E+01  5.625198884E+02 -4.973754998E+02  7.659541997E+02  1.250000000E+02  0.00000E+00  9.000E+00
      21     1     1     2   511   502 -2.387858273E+01 -3.102426848E+02 -6.731221801E+01  3.183577310E+02  8.740569487E-06  0.00000E+00  9.000E+00
#rwgt            2          11   3.6925625638743183E-003           5       20532           0
</event>
<event>
      5   9999  3.19816E-02  8.22016E+01 -1.00000E+00  1.27781E-01
      21    -1     0     0   502   501  0.000000000E+00  0.000000000E+00  2.638109810E+02  2.638109810E+02  0.000000000E+00  0.00000E+00  9.000E+00
      21    -1     0     0   512   502  0.000000000E+00  0.000000000E+00 -5.970202525E+02  5.970202525E+02  0.000000000E+00  0.00000E+00  9.000E+00
      25     1     1     2     0     0 -1.098628928E+02  9.691911501E+01  1.669493950E+02  2.548730479E+02  1.250000000E+02  0.00000E+00  9.000E+00
      25     1     1     2     0     0  1.252205275E+02 -1.776733843E+02 -3.094409477E+02  3.982796908E+02  1.250000000E+02  0.00000E+00  9.000E+00
      21     1     1     2   512   501 -1.535763463E+01  8.075426929E+01 -1.907177187E+02  2.076784948E+02  0.000000000E+00  0.00000E+00  9.000E+00
#rwgt            1           1   2.7806546693548418E-002           5       20567           0
</event>
<event>
      5   9999  3.19816E-02  2.29633E+02 -1.00000E+00  1.09506E-01
      21    -1     0     0   502   511  0.000000000E+00  0.000000000E+00  7.397702739E+02  7.397702739E+02  0.000000000E+00  0.00000E+00  9.000E+00
      21    -1     0     0   501   502  0.000000000E+00  0.000000000E+00 -8.937119376E+02  8.937119376E+02  0.000000000E+00  0.00000E+00  9.000E+00
      25     1     1     2     0     0 -2.148562730E+02  3.122130036E+01 -7.007938042E+02  7.442277499E+02  1.250000000E+02  0.00000E+00  9.000E+00
      25     1     1     2     0     0  2.434808797E+02  1.966201821E+02  4.840644775E+01  3.404564862E+02  1.250000000E+02  0.00000E+00  9.000E+00
      21     1     1     2   501   511 -2.862460669E+01 -2.278414825E+02  4.984456927E+02  5.487979754E+02  9.344061824E-06  0.00000E+00  9.000E+00
#rwgt            2          11   3.9813787263328184E-003           5       20625           0
</event>
<event>
      5   9999  3.19816E-02  1.41609E+02 -1.00000E+00  1.17393E-01
      21    -1     0     0   502   501  0.000000000E+00  0.000000000E+00  2.897190951E+02  2.897190951E+02  0.000000000E+00  0.00000E+00  9.000E+00
      21    -1     0     0   501   512  0.000000000E+00  0.000000000E+00 -9.786056600E+02  9.786056600E+02  0.000000000E+00  0.00000E+00  9.000E+00
      25     1     1     2     0     0  3.099783894E+02 -1.072855073E+02 -3.294211083E+02  4.813938601E+02  1.250000000E+02  0.00000E+00  9.000E+00
      25     1     1     2     0     0 -3.011013335E+02 -3.404473445E+01  6.960322216E+01  3.350979939E+02  1.250000000E+02  0.00000E+00  9.000E+00
      21     1     1     2   502   512 -8.877055883E+00  1.413302417E+02 -4.290686788E+02  4.518329010E+02  5.394796609E-06  0.00000E+00  9.000E+00
#rwgt            1           1   3.1965218114541054E-002           5       20660           0
</event>
<event>
      5   9999  3.19816E-02  4.66444E+00 -1.00000E+00  2.48675E-01
      21    -1     0     0   502   501  0.000000000E+00  0.000000000E+00  5.542270383E+02  5.542270383E+02  0.000000000E+00  0.00000E+00  9.000E+00
      21    -1     0     0   501   511  0.000000000E+00  0.000000000E+00 -2.532036427E+02  2.532036427E+02  0.000000000E+00  0.00000E+00  9.000E+00
      25     1     1     2     0     0 -2.908670321E+02  1.797266801E+02  2.445261398E+02  4.385468538E+02  1.250000000E+02  0.00000E+00  9.000E+00
      25     1     1     2     0     0  2.865075622E+02 -1.780677444E+02  5.469620711E+01  3.638837450E+02  1.250000000E+02  0.00000E+00  9.000E+00
      21     1     1     2   502   511  4.359469891E+00 -1.658935718E+00  1.801048728E+00  5.000082196E+00  6.664001875E-08  0.00000E+00  9.000E+00
#rwgt            1           1   2.8333929352586155E-002           5       20743           0
</event>
<event>
      5   9999  3.19816E-02  6.28822E+01 -1.00000E+00  1.33623E-01
      21    -1     0     0   502   501  0.000000000E+00  0.000000000E+00  6.579020495E+02  6.579020495E+02  0.000000000E+00  0.00000E+00  9.000E+00
       1    -1     0     0   501     0  0.000000000E+00  0.000000000E+00 -1.025670640E+03  1.025670640E+03  0.000000000E+00  0.00000E+00  9.000E+00
      25     1     1     2     0     0  1.329992387E+02 -2.479622533E+02  4.965551047E+02  5.842653923E+02  1.250000000E+02  0.00000E+00  9.000E+00
      25     1     1     2     0     0 -7.036788456E+01  2.423516543E+02 -5.425368911E+01  2.868003248E+02  1.250000000E+02  0.00000E+00  9.000E+00
       1     1     1     2   502     0 -6.263135418E+01  5.610598961E+00 -8.100700061E+02  8.125069724E+02  0.000000000E+00  0.00000E+00  9.000E+00
#rwgt            1           1   2.9057355372880248E-002           5       21127           0
</event>
<event>
      5   9999  3.19816E-02  1.34616E+02 -1.00000E+00  1.18287E-01
       2    -1     0     0   502     0  0.000000000E+00  0.000000000E+00  1.216117286E+03  1.216117286E+03  0.000000000E+00  0.00000E+00  9.000E+00
      21    -1     0     0   501   502  0.000000000E+00  0.000000000E+00 -2.114657816E+02  2.114657816E+02  0.000000000E+00  0.00000E+00  9.000E+00
      25     1     1     2     0     0  2.154895326E+02  1.605604369E+02  3.841003859E+02  4.851530676E+02  1.250000000E+02  0.00000E+00  9.000E+00
      25     1     1     2     0     0 -1.629726538E+02 -2.845101343E+02  4.788272184E+01  3.541523083E+02  1.250000000E+02  0.00000E+00  9.000E+00
       2     1     1     2   501     0 -5.251687881E+01  1.239496975E+02  5.726683969E+02  5.882776919E+02  7.629394531E-06  0.00000E+00  9.000E+00
#rwgt            1           1   2.6493000477403481E-002           5       21207           0
</event>
<event>
      5   9999  3.19816E-02  4.34975E+01 -1.00000E+00  1.42618E-01
      21    -1     0     0   502   501  0.000000000E+00  0.000000000E+00  1.533743098E+03  1.533743098E+03  0.000000000E+00  0.00000E+00  9.000E+00
      21    -1     0     0   501   511  0.000000000E+00  0.000000000E+00 -3.133932976E+02  3.133932976E+02  0.000000000E+00  0.00000E+00  9.000E+00
      25     1     1     2     0     0  1.381685364E+02  1.244891233E+02  1.151160959E+03  1.172767940E+03  1.250000000E+02  0.00000E+00  9.000E+00
      25     1     1     2     0     0 -1.230692792E+02 -8.369642151E+01  3.445519838E+02  3.955909604E+02  1.250000000E+02  0.00000E+00  9.000E+00
      21     1     1     2   502   511 -1.509925719E+01 -4.079270184E+01 -2.753631422E+02  2.787774959E+02  6.607249480E-06  0.00000E+00  9.000E+00
#rwgt            1           1   4.3367092598736466E-002           5       21264           0
</event>
<event>
      5   9999  3.19816E-02  4.20581E+01 -1.00000E+00  1.43502E-01
      21    -1     0     0   502   501  0.000000000E+00  0.000000000E+00  2.514649880E+02  2.514649880E+02  0.000000000E+00  0.00000E+00  9.000E+00
      21    -1     0     0   512   502  0.000000000E+00  0.000000000E+00 -2.174577353E+02  2.174577353E+02  0.000000000E+00  0.00000E+00  9.000E+00
      25     1     1     2     0     0  1.147265539E+02  9.831245110E+01  5.155903118E+01  2.027581167E+02  1.250000000E+02  0.00000E+00  9.000E+00
      25     1     1     2     0     0 -1.243178102E+02 -5.736255524E+01  4.501164359E+01  1.907784808E+02  1.250000000E+02  0.00000E+00  9.000E+00
      21     1     1     2   512   501  9.591256276E+00 -4.094989586E+01 -6.256342209E+01  7.538612572E+01  6.743495762E-07  0.00000E+00  9.000E+00
#rwgt            1           1   3.1913685141137675E-002           5       21347           0
</event>
<event>
      5   9999  3.19816E-02  1.35384E+02 -1.00000E+00  1.18186E-01
      21    -1     0     0   502   501  0.000000000E+00  0.000000000E+00  1.814752747E+02  1.814752747E+02  0.000000000E+00  0.00000E+00  9.000E+00
       3    -1     0     0   501     0  0.000000000E+00  0.000000000E+00 -6.976847386E+02  6.976847386E+02  0.000000000E+00  0.00000E+00  9.000E+00
      25     1     1     2     0     0  1.001294766E+02 -1.887484515E+01 -4.351047634E+01  1.670339289E+02  1.250000000E+02  0.00000E+00  9.000E+00
      25     1     1     2     0     0 -1.728664610E+02 -9.530934331E+01 -1.422527728E+01  2.340812739E+02  1.250000000E+02  0.00000E+00  9.000E+00
       3     1     1     2   502     0  7.273698441E+01  1.141841885E+02 -4.584737103E+02  4.780448105E+02  0.000000000E+00  0.00000E+00  9.000E+00
#rwgt            2          14   6.8187878985341750E-005           5       21475           0
</event>
<event>
      5   9999  3.19816E-02  3.06525E+02 -1.00000E+00  1.05289E-01
      21    -1     0     0   502   501  0.000000000E+00  0.000000000E+00  4.282738270E+02  4.282738270E+02  0.000000000E+00  0.00000E+00  9.000E+00
       1    -1     0     0   501     0  0.000000000E+00  0.000000000E+00 -1.146387355E+03  1.146387355E+03  0.000000000E+00  0.00000E+00  9.000E+00
      25     1     1     2     0     0  1.009153228E+02  2.783133954E+02  2.567910656E+02  4.113500940E+02  1.250000000E+02  0.00000E+00  9.000E+00
      25     1     1     2     0     0  1.963642923E+02 -2.035974519E+02 -3.484809032E+02  4.659128648E+02  1.250000000E+02  0.00000E+00  9.000E+00
       1     1     1     2   502     0 -2.972796151E+02 -7.471594351E+01 -6.264236907E+02  6.973982234E+02  7.629394531E-06  0.00000E+00  9.000E+00
#rwgt            1           1   2.7264908932328687E-002           5       21494           0
</event>
<event>
      5   9999  3.19816E-02  1.55898E+01 -1.00000E+00  1.75820E-01
      21    -1     0     0   502   511  0.000000000E+00  0.000000000E+00  3.158650426E+02  3.158650426E+02  0.000000000E+00  0.00000E+00  9.000E+00
      21    -1     0     0   501   502  0.000000000E+00  0.000000000E+00 -3.950372041E+02  3.950372041E+02  0.000000000E+00  0.00000E+00  9.000E+00
      25     1     1     2     0     0  2.478536738E+02  1.551730647E+02  1.059577177E+02  3.352046563E+02  1.250000000E+02  0.00000E+00  9.000E+00
      25     1     1     2     0     0 -2.354340321E+02 -1.457499851E+02 -1.912048962E+02  3.589659509E+02  1.250000000E+02  0.00000E+00  9.000E+00
      21     1     1     2   501   511 -1.241964176E+01 -9.423079584E+00  6.075016901E+00  1.673163951E+01  4.380028980E-07  0.00000E+00  9.000E+00
#rwgt            1           1   2.6129885639410110E-002           5       21531           0
</event>
<event>
      5   9999  3.19816E-02  4.01197E+01 -1.00000E+00  1.44760E-01
      21    -1     0     0   502   501  0.000000000E+00  0.000000000E+00  2.605107124E+02  2.605107124E+02  0.000000000E+00  0.00000E+00  9.000E+00
      21    -1     0     0   501   512  0.000000000E+00  0.000000000E+00 -1.002812370E+03  1.002812370E+03  0.000000000E+00  0.00000E+00  9.000E+00
      25     1     1     2     0     0 -7.520231502E+00  6.582807516E+01 -2.906877919E+02  3.232866866E+02  1.250000000E+02  0.00000E+00  9.000E+00
      25     1     1     2     0     0 -8.269561392E+00 -2.894616181E+01  2.266542140E+02  2.605828057E+02  1.250000000E+02  0.00000E+00  9.000E+00
      21     1     1     2   502   512  1.578979289E+01 -3.688191335E+01 -6.782680799E+02  6.794535903E+02  0.000000000E+00  0.00000E+00  9.000E+00
#rwgt            1           1   2.8503700945240015E-002           5       21733           0
</event>
<event>
      5   9999  3.19816E-02  5.44764E+01 -1.00000E+00  1.36984E-01
       1    -1     0     0   502     0  0.000000000E+00  0.000000000E+00  4.211921887E+02  4.211921887E+02  0.000000000E+00  0.00000E+00  9.000E+00
      21    -1     0     0   501   502  0.000000000E+00  0.000000000E+00 -1.310573835E+02  1.310573835E+02  0.000000000E+00  0.00000E+00  9.000E+00
      25     1     1     2     0     0  3.367617597E+01  3.748832889E+01 -6.360655783E+01  1.490310499E+02  1.250000000E+02  0.00000E+00  9.000E+00
      25     1     1     2     0     0 -5.772428551E+01  1.139279395E+01  2.355405907E+02  2.730682310E+02  1.250000000E+02  0.00000E+00  9.000E+00
       1     1     1     2   501     0  2.404810954E+01 -4.888112284E+01  1.182007724E+02  1.301502913E+02  0.000000000E+00  0.00000E+00  9.000E+00
#rwgt            1           1   2.8143040982185993E-002           5       21891           0
</event>
<event>
      5   9999  3.19816E-02  5.82825E+00 -1.00000E+00  2.27449E-01
      21    -1     0     0   502   511  0.000000000E+00  0.000000000E+00  7.694569161E+02  7.694569161E+02  0.000000000E+00  0.00000E+00  9.000E+00
      21    -1     0     0   501   502  0.000000000E+00  0.000000000E+00 -2.513417616E+02  2.513417616E+02  0.000000000E+00  0.00000E+00  9.000E+00
      25     1     1     2     0     0  8.320612310E+01 -1.584533085E+02 -1.836293015E+02  2.852637907E+02  1.250000000E+02  0.00000E+00  9.000E+00
      25     1     1     2     0     0 -7.815438571E+01  1.555466963E+02  6.768591036E+02  7.099761467E+02  1.250000000E+02  0.00000E+00  9.000E+00
      21     1     1     2   501   511 -5.051737383E+00  2.906612208E+00  2.488535236E+01  2.555874033E+01  3.371747881E-07  0.00000E+00  9.000E+00
#rwgt            1           1   2.9028600522300069E-002           5       21984           0
</event>
<event>
      5   9999  3.19816E-02  1.18876E+02 -1.00000E+00  1.20542E-01
      21    -1     0     0   502   501  0.000000000E+00  0.000000000E+00  7.479761782E+02  7.479761782E+02  0.000000000E+00  0.00000E+00  9.000E+00
       2    -1     0     0   501     0  0.000000000E+00  0.000000000E+00 -3.811753196E+03  3.811753196E+03  0.000000000E+00  0.00000E+00  9.000E+00
      25     1     1     2     0     0 -2.587605552E+02 -2.846548808E+02  5.506620700E+02  6.832562780E+02  1.250000000E+02  0.00000E+00  9.000E+00
      25     1     1     2     0     0  3.711585420E+02  3.233604876E+02 -3.663881383E+02  6.262475039E+02  1.250000000E+02  0.00000E+00  9.000E+00
       2     1     1     2   502     0 -1.123979867E+02 -3.870560673E+01 -3.248050950E+03  3.250225593E+03  4.315837288E-05  0.00000E+00  9.000E+00
#rwgt            1           1   3.0873104505493656E-002           5       22296           0
</event>
<event>
      5   9999  3.19816E-02  8.00770E+01 -1.00000E+00  1.28329E-01
      21    -1     0     0   502   501  0.000000000E+00  0.000000000E+00  6.671442875E+02  6.671442875E+02  0.000000000E+00  0.00000E+00  9.000E+00
      21    -1     0     0   501   511  0.000000000E+00  0.000000000E+00 -1.020524062E+02  1.020524062E+02  0.000000000E+00  0.00000E+00  9.000E+00
      25     1     1     2     0     0  1.043027496E+02  7.256295128E+01  1.418377838E+02  2.277880646E+02  1.250000000E+02  0.00000E+00  9.000E+00
      25     1     1     2     0     0 -1.444102018E+02 -1.418717648E+02  3.851900544E+02  4.527452728E+02  1.250000000E+02  0.00000E+00  9.000E+00
      21     1     1     2   502   511  4.010745223E+01  6.930881349E+01  3.806404306E+01  8.866335616E+01  1.719260824E-06  0.00000E+00  9.000E+00
#rwgt            2          11   2.6253468725280170E-003           5       22392           0
</event>
<event>
      5   9999  3.19816E-02  8.94024E+01 -1.00000E+00  1.26056E-01
      21    -1     0     0   512   501  0.000000000E+00  0.000000000E+00  6.043975511E+02  6.043975511E+02  0.000000000E+00  0.00000E+00  9.000E+00
      21    -1     0     0   501   502  0.000000000E+00  0.000000000E+00 -3.165557969E+02  3.165557969E+02  0.000000000E+00  0.00000E+00  9.000E+00
      25     1     1     2     0     0 -1.584250955E+02 -1.510840610E+02 -7.932023070E+00  2.522158229E+02  1.250000000E+02  0.00000E+00  9.000E+00
      25     1     1     2     0     0  7.394388178E+01  1.218313437E+02 -1.324670329E+02  2.312641104E+02  1.250000000E+02  0.00000E+00  9.000E+00
      21     1     1     2   512   502  8.448121369E+01  2.925271727E+01  4.282408102E+02  4.374734146E+02  7.629394531E-06  0.00000E+00  9.000E+00
#rwgt            1           1   3.1387017324223027E-002           5       22412           0
</event>
<event>
      5   9999  3.19816E-02  1.23573E+02 -1.00000E+00  1.19830E-01
      21    -1     0     0   502   501  0.000000000E+00  0.000000000E+00  1.672927072E+03  1.672927072E+03  0.000000000E+00  0.00000E+00  9.000E+00
       2    -1     0     0   501     0  0.000000000E+00  0.000000000E+00 -3.607801466E+03  3.607801466E+03  0.000000000E+00  0.00000E+00  9.000E+00
      25     1     1     2     0     0  1.456254750E+03 -8.689384392E+01  9.638592238E+02  1.752962647E+03  1.250000000E+02  0.00000E+00  9.000E+00
      25     1     1     2     0     0 -1.438211907E+03  2.091425715E+02 -3.020495823E+03  3.354282952E+03  1.250000000E+02  0.00000E+00  9.000E+00
       2     1     1     2   502     0 -1.804284293E+01 -1.222487275E+02  1.217622048E+02  1.734829389E+02  1.907348633E-06  0.00000E+00  9.000E+00
#rwgt            1           1   7.0826454736989579E-003           5       22477           0
</event>
<event>
      5   9999  3.19816E-02  1.34313E+02 -1.00000E+00  1.18327E-01
       2    -1     0     0   502     0  0.000000000E+00  0.000000000E+00  4.611707110E+02  4.611707110E+02  0.000000000E+00  0.00000E+00  9.000E+00
      21    -1     0     0   501   502  0.000000000E+00  0.000000000E+00 -2.976840975E+02  2.976840975E+02  0.000000000E+00  0.00000E+00  9.000E+00
      25     1     1     2     0     0 -1.308106955E+01 -2.130437347E+02  1.035610819E+02  2.681578732E+02  1.250000000E+02  0.00000E+00  9.000E+00
      25     1     1     2     0     0 -9.931271627E+01  1.395070293E+02 -1.369280200E+02  2.523876176E+02  1.250000000E+02  0.00000E+00  9.000E+00
       2     1     1     2   501     0  1.123937858E+02  7.353670542E+01  1.968535516E+02  2.383093178E+02  2.697398305E-06  0.00000E+00  9.000E+00
#rwgt            1           1   2.6088103584817293E-002           5       22604           0
</event>
<event>
      5   9999  3.19816E-02  1.31733E+02 -1.00000E+00  1.18673E-01
      21    -1     0     0   511   501  0.000000000E+00  0.000000000E+00  1.000099375E+02  1.000099375E+02  0.000000000E+00  0.00000E+00  9.000E+00
      21    -1     0     0   501   502  0.000000000E+00  0.000000000E+00 -6.242120867E+02  6.242120867E+02  0.000000000E+00  0.00000E+00  9.000E+00
      25     1     1     2     0     0 -7.333807196E+01  9.863623206E+01 -1.616512153E+02  2.384610963E+02  1.250000000E+02  0.00000E+00  9.000E+00
      25     1     1     2     0     0  4.565425751E+01  3.015482508E+01 -3.190959264E+02  3.470458686E+02  1.250000000E+02  0.00000E+00  9.000E+00
      21     1     1     2   511   502  2.768381445E+01 -1.287910571E+02 -4.345500750E+01  1.387150592E+02  2.023048729E-06  0.00000E+00  9.000E+00
#rwgt            1           1   5.7198855855262028E-002           5       22641           0
</event>
<event>
      5   9999  3.19816E-02  7.24158E+01 -1.00000E+00  1.30479E-01
      21    -1     0     0   512   501  0.000000000E+00  0.000000000E+00  8.793749775E+02  8.793749775E+02  0.000000000E+00  0.00000E+00  9.000E+00
      21    -1     0     0   501   502  0.000000000E+00  0.000000000E+00 -4.513824928E+02  4.513824928E+02  0.000000000E+00  0.00000E+00  9.000E+00
      25     1     1     2     0     0  1.813111721E+02  3.572836087E+02 -2.509773213E+02  4.890193595E+02  1.250000000E+02  0.00000E+00  9.000E+00
      25     1     1     2     0     0 -1.448270124E+02 -2.947299471E+02  3.190776444E+02  4.746326457E+02  1.250000000E+02  0.00000E+00  9.000E+00
      21     1     1     2   512   502 -3.648415973E+01 -6.255366162E+01  3.598921616E+02  3.671054651E+02  5.394796609E-06  0.00000E+00  9.000E+00
#rwgt            1           1   2.8227441814566614E-002           5       22679           0
</event>
<event>
      5   9999  3.19816E-02  7.33689E+01 -1.00000E+00  1.30195E-01
      21    -1     0     0   502   501  0.000000000E+00  0.000000000E+00  4.535722677E+02  4.535722677E+02  0.000000000E+00  0.00000E+00  9.000E+00
      21    -1     0     0   511   502  0.000000000E+00  0.000000000E+00 -3.251981987E+02  3.251981987E+02  0.000000000E+00  0.00000E+00  9.000E+00
      25     1     1     2     0     0  1.273377674E+02  1.810297088E+02  8.050321743E+01  2.666316382E+02  1.250000000E+02  0.00000E+00  9.000E+00
      25     1     1     2     0     0 -8.335914699E+01 -1.223025602E+02  2.388565148E+02  3.075452784E+02  1.250000000E+02  0.00000E+00  9.000E+00
      21     1     1     2   511   501 -4.397862044E+01 -5.872714864E+01 -1.909856632E+02  2.045935498E+02  2.697398305E-06  0.00000E+00  9.000E+00
#rwgt            1           1   2.4799901844298689E-002           5       22758           0
</event>
<event>
      5   9999  3.19816E-02  8.78743E+02 -1.00000E+00  9.23593E-02
      21    -1     0     0   502   501  0.000000000E+00  0.000000000E+00  1.665323723E+03  1.665323723E+03  0.000000000E+00  0.00000E+00  9.000E+00
       2    -1     0     0   501     0  0.000000000E+00  0.000000000E+00 -5.381020243E+03  5.381020243E+03  0.000000000E+00  0.00000E+00  9.000E+00
      25     1     1     2     0     0 -1.717179908E+03 -2.134653731E+03 -7.015654696E+02  2.830772420E+03  1.250000000E+02  0.00000E+00  9.000E+00
      25     1     1     2     0     0  9.115833766E+02  1.783650404E+03 -1.676322221E+03  2.614971167E+03  1.250000000E+02  0.00000E+00  9.000E+00
       2     1     1     2   502     0  8.055965314E+02  3.510033269E+02 -1.337808830E+03  1.600600379E+03  1.525878906E-05  0.00000E+00  9.000E+00
#rwgt            2          13   1.1014705415754810E-004           5       22886           0
</event>
<event>
      5   9999  3.27779E-02  2.47597E+00 -1.00000E+00  3.24699E-01
      21    -1     0     0   502   501  0.000000000E+00  0.000000000E+00  1.781381474E+03  1.781381474E+03  0.000000000E+00  0.00000E+00  9.000E+00
      21    -1     0     0   501   511  0.000000000E+00  0.000000000E+00 -2.164493993E+01  2.164493993E+01  0.000000000E+00  0.00000E+00  9.000E+00
      25     1     1     2     0     0 -1.962531040E+01 -9.947700711E+01  4.319083347E+02  4.609236784E+02  1.250000000E+02  0.00000E+00  9.000E+00
      25     1     1     2     0     0  1.714951557E+01  9.950654588E+01  1.329461072E+03  1.339136811E+03  1.250000000E+02  0.00000E+00  9.000E+00
      21     1     1     2   502   511  2.475794826E+00 -2.953877030E-02 -1.632872444E+00  2.965923966E+00  2.457562462E-07  0.00000E+00  9.000E+00
#rwgt            1           1   9.4213650368731860E-002           5       22965           0
</event>
<event>
      5   9999  3.19816E-02  3.28933E+01 -1.00000E+00  1.50313E-01
      21    -1     0     0   502   501  0.000000000E+00  0.000000000E+00  1.744723786E+02  1.744723786E+02  0.000000000E+00  0.00000E+00  9.000E+00
      -2    -1     0     0     0   502  0.000000000E+00  0.000000000E+00 -6.481387717E+02  6.481387717E+02  0.000000000E+00  0.00000E+00  9.000E+00
      25     1     1     2     0     0 -1.588779178E+02  5.991670320E+01 -4.366166824E+02  4.848621778E+02  1.250000000E+02  0.00000E+00  9.000E+00
      25     1     1     2     0     0  1.892974012E+02 -4.740165723E+01  5.654450837E+01  2.385428780E+02  1.250000000E+02  0.00000E+00  9.000E+00
      -2     1     1     2     0   501 -3.041948340E+01 -1.251504597E+01 -9.359421904E+01  9.920609449E+01  1.907348633E-06  0.00000E+00  9.000E+00
#rwgt            1           1   2.9955392189742251E-002           5       23335           0
</event>
<event>
      5   9999  3.19816E-02  2.40139E+01 -1.00000E+00  1.60071E-01
      21    -1     0     0   502   501  0.000000000E+00  0.000000000E+00  1.733152334E+02  1.733152334E+02  0.000000000E+00  0.00000E+00  9.000E+00
      21    -1     0     0   501   511  0.000000000E+00  0.000000000E+00 -1.360491536E+03  1.360491536E+03  0.000000000E+00  0.00000E+00  9.000E+00
      25     1     1     2     0     0  3.494107542E+02  2.175091768E+02 -2.513008634E+02  4.981718991E+02  1.250000000E+02  0.00000E+00  9.000E+00
      25     1     1     2     0     0 -3.257131010E+02 -2.213936558E+02 -8.311507054E+02  9.281921515E+02  1.250000000E+02  0.00000E+00  9.000E+00
      21     1     1     2   502   511 -2.369765321E+01  3.884478984E+00 -1.047247335E+02  1.074427185E+02  0.000000000E+00  0.00000E+00  9.000E+00
#rwgt            1           1   2.9017961825923012E-002           5       23458           0
</event>
<event>
      5   9999  3.19816E-02  5.71319E+01 -1.00000E+00  1.35850E-01
      21    -1     0     0   502   501  0.000000000E+00  0.000000000E+00  9.451235099E+02  9.451235099E+02  0.000000000E+00  0.00000E+00  9.000E+00
      21    -1     0     0   512   502  0.000000000E+00  0.000000000E+00 -2.605464473E+02  2.605464473E+02  0.000000000E+00  0.00000E+00  9.000E+00
      25     1     1     2     0     0  8.730888707E+01 -3.183642573E+02 -1.542301302E+01  3.533291828E+02  1.250000000E+02  0.00000E+00  9.000E+00
      25     1     1     2     0     0 -5.482087083E+01  2.713687036E+02  7.279155102E+02  7.887536315E+02  1.250000000E+02  0.00000E+00  9.000E+00
      21     1     1     2   512   501 -3.248801624E+01  4.699555373E+01 -2.791543457E+01  6.358714302E+01  3.371747881E-07  0.00000E+00  9.000E+00
#rwgt            1           1   2.7496915432817751E-002           5       23606           0
</event>
<event>
      5   9999  3.19816E-02  3.12727E+01 -1.00000E+00  1.51797E-01
      21    -1     0     0   502   501  0.000000000E+00  0.000000000E+00  9.314165760E+01  9.314165760E+01  0.000000000E+00  0.00000E+00  9.000E+00
      21    -1     0     0   511   502  0.000000000E+00  0.000000000E+00 -2.346142264E+03  2.346142264E+03  0.000000000E+00  0.00000E+00  9.000E+00
      25     1     1     2     0     0  3.440856887E+02  1.673629874E+02 -9.437512417E+02  1.026010106E+03  1.250000000E+02  0.00000E+00  9.000E+00
      25     1     1     2     0     0 -3.257856451E+02 -1.420037336E+02 -6.353172702E+02  7.386165316E+02  1.250000000E+02  0.00000E+00  9.000E+00
      21     1     1     2   511   501 -1.830004365E+01 -2.535925386E+01 -6.739320945E+02  6.746572844E+02  7.629394531E-06  0.00000E+00  9.000E+00
#rwgt            1           1   2.7431831489549047E-002           5       23725           0
</event>
<event>
      5   9999  3.19816E-02  2.04272E+02 -1.00000E+00  1.11315E-01
       2    -1     0     0   502     0  0.000000000E+00  0.000000000E+00  2.645252569E+03  2.645252569E+03  0.000000000E+00  0.00000E+00  9.000E+00
      21    -1     0     0   501   502  0.000000000E+00  0.000000000E+00 -5.232170281E+02  5.232170281E+02  0.000000000E+00  0.00000E+00  9.000E+00
      25     1     1     2     0     0 -5.155271349E+02 -1.010101906E+02  7.077428583E+02  8.902225782E+02  1.250000000E+02  0.00000E+00  9.000E+00
      25     1     1     2     0     0  6.915383328E+02  2.046789633E+02 -1.101431651E+02  7.401859635E+02  1.250000000E+02  0.00000E+00  9.000E+00
       2     1     1     2   501     0 -1.760111980E+02 -1.036687727E+02  1.524435848E+03  1.538061055E+03  3.737624730E-05  0.00000E+00  9.000E+00
#rwgt            2          18   2.0475470371898001E-003           5       24075           0
</event>
<event>
      5   9999  3.19816E-02  2.97437E+01 -1.00000E+00  1.53299E-01
      21    -1     0     0   502   501  0.000000000E+00  0.000000000E+00  1.612229128E+02  1.612229128E+02  0.000000000E+00  0.00000E+00  9.000E+00
      21    -1     0     0   511   502  0.000000000E+00  0.000000000E+00 -2.411815808E+03  2.411815808E+03  0.000000000E+00  0.00000E+00  9.000E+00
      25     1     1     2     0     0  7.655874037E+01 -2.658973698E+02 -1.988947331E+01  3.042749466E+02  1.250000000E+02  0.00000E+00  9.000E+00
      25     1     1     2     0     0 -7.775694409E+01  2.956169626E+02 -1.435214483E+03  1.472718962E+03  1.250000000E+02  0.00000E+00  9.000E+00
      21     1     1     2   511   501  1.198203721E+00 -2.971959276E+01 -7.954889393E+02  7.960448119E+02  1.525878906E-05  0.00000E+00  9.000E+00
#rwgt            1           1   3.1400302023350445E-002           5       24094           0
</event>
<event>
      5   9999  3.19816E-02  1.62901E+02 -1.00000E+00  1.14991E-01
      21    -1     0     0   502   501  0.000000000E+00  0.000000000E+00  2.171595352E+02  2.171595352E+02  0.000000000E+00  0.00000E+00  9.000E+00
      -3    -1     0     0     0   502  0.000000000E+00  0.000000000E+00 -1.943109939E+03  1.943109939E+03  0.000000000E+00  0.00000E+00  9.000E+00
      25     1     1     2     0     0 -4.686257291E+02  1.215918087E+02 -1.775991652E+02  5.306233178E+02  1.250000000E+02  0.00000E+00  9.000E+00
      25     1     1     2     0     0  3.144137886E+02 -6.910069648E+01 -1.041226142E+03  1.096999460E+03  1.250000000E+02  0.00000E+00  9.000E+00
      -3     1     1     2     0   501  1.542119404E+02 -5.249111222E+01 -5.071250960E+02  5.326466956E+02  5.394796609E-06  0.00000E+00  9.000E+00
#rwgt            1           1   2.9914127409275879E-002           5       24235           0
</event>
<event>
      5   9999  3.19816E-02  2.35526E+02 -1.00000E+00  1.09123E-01
      21    -1     0     0   502   501  0.000000000E+00  0.000000000E+00  4.496777471E+02  4.496777471E+02  0.000000000E+00  0.00000E+00  9.000E+00
      21    -1     0     0   511   502  0.000000000E+00  0.000000000E+00 -7.063863425E+02  7.063863425E+02  0.000000000E+00  0.00000E+00  9.000E+00
      25     1     1     2     0     0  2.437395786E+02 -1.598906292E+02  2.197537160E+02  3.858635655E+02  1.250000000E+02  0.00000E+00  9.000E+00
      25     1     1     2     0     0 -8.789078475E+01  3.364789426E+02 -2.856139878E+02  4.670580466E+02  1.250000000E+02  0.00000E+00  9.000E+00
      21     1     1     2   511   501 -1.558487938E+02 -1.765883135E+02 -1.908483236E+02  3.031424774E+02  2.697398305E-06  0.00000E+00  9.000E+00
#rwgt            1           1   2.7515337186381258E-002           5       24296           0
</event>
<event>
      5   9999  3.19816E-02  1.91874E+02 -1.00000E+00  1.12308E-01
      21    -1     0     0   502   501  0.000000000E+00  0.000000000E+00  1.351661248E+03  1.351661248E+03  0.000000000E+00  0.00000E+00  9.000E+00
      21    -1     0     0   501   512  0.000000000E+00  0.000000000E+00 -5.307655503E+02  5.307655503E+02  0.000000000E+00  0.00000E+00  9.000E+00
      25     1     1     2     0     0 -5.381580728E+01 -6.746871568E+02  8.863330942E+02  1.122189937E+03  1.250000000E+02  0.00000E+00  9.000E+00
      25     1     1     2     0     0  1.698597886E+02  5.218819383E+02 -7.642595571E+01  5.680484416E+02  1.250000000E+02  0.00000E+00  9.000E+00
      21     1     1     2   502   512 -1.160439814E+02  1.528052186E+02  1.098855974E+01  1.921884202E+02  3.754619538E-06  0.00000E+00  9.000E+00
#rwgt            2          11   7.9060868026063543E-003           5       24376           0
</event>
<event>
      5   9999  3.19816E-02  5.09903E+01 -1.00000E+00  1.38591E-01
      21    -1     0     0   502   511  0.000000000E+00  0.000000000E+00  5.361142534E+02  5.361142534E+02  0.000000000E+00  0.00000E+00  9.000E+00
      21    -1     0     0   501   502  0.000000000E+00  0.000000000E+00 -1.968983706E+02  1.968983706E+02  0.000000000E+00  0.00000E+00  9.000E+00
      25     1     1     2     0     0 -1.492520304E+02 -1.095346115E+02  1.099026197E+02  2.489529785E+02  1.250000000E+02  0.00000E+00  9.000E+00
      25     1     1     2     0     0  1.302344849E+02  1.568457310E+02 -1.002769300E+01  2.393473606E+02  1.250000000E+02  0.00000E+00  9.000E+00
      21     1     1     2   501   511  1.901754554E+01 -4.731111954E+01  2.393409562E+02  2.447122849E+02  3.814697266E-06  0.00000E+00  9.000E+00
#rwgt            1           1   3.1746987164459138E-002           5       24396           0
</event>
<event>
      5   9999  3.19816E-02  1.08664E+02 -1.00000E+00  1.22226E-01
       3    -1     0     0   502     0  0.000000000E+00  0.000000000E+00  6.507652030E+02  6.507652030E+02  0.000000000E+00  0.00000E+00  9.000E+00
      21    -1     0     0   501   502  0.000000000E+00  0.000000000E+00 -3.543893411E+02  3.543893411E+02  0.000000000E+00  0.00000E+00  9.000E+00
      25     1     1     2     0     0 -1.688080143E+02 -9.138658062E+01 -6.962087385E+01  2.394153689E+02  1.250000000E+02  0.00000E+00  9.000E+00
      25     1     1     2     0     0  1.484817999E+02 -1.535973970E+01 -1.453525865E+02  2.429714817E+02  1.250000000E+02  0.00000E+00  9.000E+00
       3     1     1     2   501     0  2.032621437E+01  1.067463203E+02  5.113493223E+02  5.227676934E+02  5.394796609E-06  0.00000E+00  9.000E+00
#rwgt            1           1   3.0423736968764201E-002           5       24529           0
</event>
<event>
      5   9999  3.19816E-02  5.91583E+01 -1.00000E+00  1.35032E-01
       1    -1     0     0   502     0  0.000000000E+00  0.000000000E+00  1.163663526E+03  1.163663526E+03  0.000000000E+00  0.00000E+00  9.000E+00
      21    -1     0     0   501   502  0.000000000E+00  0.000000000E+00 -2.343770518E+02  2.343770518E+02  0.000000000E+00  0.00000E+00  9.000E+00
      25     1     1     2     0     0  2.830952637E+02 -1.943610193E+02  4.778690329E+01  3.685481275E+02  1.250000000E+02  0.00000E+00  9.000E+00
      25     1     1     2     0     0 -2.261196706E+02  1.784396104E+02  2.670546676E+02  4.122062536E+02  1.250000000E+02  0.00000E+00  9.000E+00
       1     1     1     2   501     0 -5.697559307E+01  1.592140882E+01  6.144449029E+02  6.172861963E+02  7.629394531E-06  0.00000E+00  9.000E+00
#rwgt            1           1   2.7844463284112657E-002           5       24590           0
</event>
<event>
      5   9999  3.19816E-02  1.10100E+02 -1.00000E+00  1.21977E-01
      21    -1     0     0   502   501  0.000000000E+00  0.000000000E+00  8.726790144E+02  8.726790144E+02  0.000000000E+00  0.00000E+00  9.000E+00
      21    -1     0     0   501   511  0.000000000E+00  0.000000000E+00 -4.400338520E+02  4.400338520E+02  0.000000000E+00  0.00000E+00  9.000E+00
      25     1     1     2     0     0 -3.477755666E+02 -1.107881631E+02 -2.122835797E+02  4.403534716E+02  1.250000000E+02  0.00000E+00  9.000E+00
      25     1     1     2     0     0  3.530731333E+02  2.207609460E+02  6.236256746E+02  7.602170839E+02  1.250000000E+02  0.00000E+00  9.000E+00
      21     1     1     2   502   511 -5.297566703E+00 -1.099727829E+02  2.130306750E+01  1.121423108E+02  1.066240300E-06  0.00000E+00  9.000E+00
#rwgt            1           1   2.9051942245478815E-002           5       24724           0
</event>
<event>
      5   9999  3.19816E-02  2.78476E+02 -1.00000E+00  1.06653E-01
      21    -1     0     0   502   501  0.000000000E+00  0.000000000E+00  9.925057444E+01  9.925057444E+01  0.000000000E+00  0.00000E+00  9.000E+00
       1    -1     0     0   501     0  0.000000000E+00  0.000000000E+00 -2.267552373E+03  2.267552373E+03  0.000000000E+00  0.00000E+00  9.000E+00
      25     1     1     2     0     0  2.411008071E+02 -1.907895177E+02 -3.305745479E+02  4.684386523E+02  1.250000000E+02  0.00000E+00  9.000E+00
      25     1     1     2     0     0 -1.369518129E+02 -6.747775288E+01 -7.369049627E+02  7.628649751E+02  1.250000000E+02  0.00000E+00  9.000E+00
       1     1     1     2   502     0 -1.041489942E+02  2.582672706E+02 -1.100822288E+03  1.135499320E+03  0.000000000E+00  0.00000E+00  9.000E+00
#rwgt            2          12   6.6120211609012932E-004           5       24842           0
</event>
<event>
      5   9999  3.19816E-02  2.91116E+01 -1.00000E+00  1.53952E-01
      21    -1     0     0   502   501  0.000000000E+00  0.000000000E+00  1.416995655E+02  1.416995655E+02  0.000000000E+00  0.00000E+00  9.000E+00
      21    -1     0     0   501   511  0.000000000E+00  0.000000000E+00 -3.679954541E+02  3.679954541E+02  0.000000000E+00  0.00000E+00  9.000E+00
      25     1     1     2     0     0 -1.577415821E+02 -4.433264261E-01 -2.156881596E+02  2.950067549E+02  1.250000000E+02  0.00000E+00  9.000E+00
      25     1     1     2     0     0  1.299846460E+02 -8.333889133E+00  7.003567043E+00  1.806640857E+02  1.250000000E+02  0.00000E+00  9.000E+00
      21     1     1     2   502   511  2.775693604E+01  8.777215559E+00 -1.761129599E+01  3.402417902E+01  6.307962682E-07  0.00000E+00  9.000E+00
#rwgt            1           1   2.8360394507052623E-002           5       24861           0
</event>
<event>
      5   9999  3.19816E-02  1.08751E+02 -1.00000E+00  1.22211E-01
      21    -1     0     0   502   512  0.000000000E+00  0.000000000E+00  7.540325891E+02  7.540325891E+02  0.000000000E+00  0.00000E+00  9.000E+00
      21    -1     0     0   501   502  0.000000000E+00  0.000000000E+00 -1.042146740E+02  1.042146740E+02  0.000000000E+00  0.00000E+00  9.000E+00
      25     1     1     2     0     0 -1.105349958E+01  1.796323385E+02  1.125296401E+02  2.463287981E+02  1.250000000E+02  0.00000E+00  9.000E+00
      25     1     1     2     0     0  8.674154126E+01 -1.015415927E+02  3.630164002E+02  4.064980896E+02  1.250000000E+02  0.00000E+00  9.000E+00
      21     1     1     2   501   512 -7.568804168E+01 -7.809074583E+01  1.742718749E+02  2.054203753E+02  3.814697266E-06  0.00000E+00  9.000E+00
#rwgt            1           1   2.5407049088972431E-002           5       24970           0
</event>
<event>
      5   9999  3.19816E-02  4.93711E+01 -1.00000E+00  1.39390E-01
      21    -1     0     0   511   501  0.000000000E+00  0.000000000E+00  5.837143031E+02  5.837143031E+02  0.000000000E+00  0.00000E+00  9.000E+00
      21    -1     0     0   501   502  0.000000000E+00  0.000000000E+00 -5.781390236E+02  5.781390236E+02  0.000000000E+00  0.00000E+00  9.000E+00
      25     1     1     2     0     0 -5.096795692E+02  1.364934646E+01 -2.360620194E+02  5.755952092E+02  1.250000000E+02  0.00000E+00  9.000E+00
      25     1     1     2     0     0  4.663976010E+02  1.010301575E+01  2.044820351E+02  5.244680122E+02  1.250000000E+02  0.00000E+00  9.000E+00
      21     1     1     2   511   502  4.328196824E+01 -2.375236221E+01  3.715526378E+01  6.179010529E+01  0.000000000E+00  0.00000E+00  9.000E+00
#rwgt            1           1   3.0840407840250012E-002           5       25035           0
</event>
<event>
      5   9999  3.19816E-02  1.21822E+02 -1.00000E+00  1.20091E-01
      21    -1     0     0   502   512  0.000000000E+00  0.000000000E+00  1.073671141E+03  1.073671141E+03  0.000000000E+00  0.00000E+00  9.000E+00
      21    -1     0     0   501   502  0.000000000E+00  0.000000000E+00 -1.028595261E+03  1.028595261E+03  0.000000000E+00  0.00000E+00  9.000E+00
      25     1     1     2     0     0 -5.636543890E+02  5.973502414E+02 -4.403892518E+01  8.319242803E+02  1.250000000E+02  0.00000E+00  9.000E+00
      25     1     1     2     0     0  6.121697508E+02 -4.856056962E+02 -3.123990398E+02  8.507542865E+02  1.250000000E+02  0.00000E+00  9.000E+00
      21     1     1     2   501   512 -4.851536177E+01 -1.117445452E+02  4.015138453E+02  4.195878355E+02  5.394796609E-06  0.00000E+00  9.000E+00
#rwgt            1           1   3.3552571019398805E-002           5       25185           0
</event>
<event>
      5   9999  3.19816E-02  1.26675E+02 -1.00000E+00  1.19379E-01
       2    -1     0     0   502     0  0.000000000E+00  0.000000000E+00  1.126655454E+03  1.126655454E+03  0.000000000E+00  0.00000E+00  9.000E+00
      21    -1     0     0   501   502  0.000000000E+00  0.000000000E+00 -6.732731796E+02  6.732731796E+02  0.000000000E+00  0.00000E+00  9.000E+00
      25     1     1     2     0     0  1.453310409E+02  7.124093112E+02  5.620295202E+02  9.274428930E+02  1.250000000E+02  0.00000E+00  9.000E+00
      25     1     1     2     0     0 -2.631980643E+02 -6.659983274E+02 -1.437785573E+02  7.410291942E+02  1.250000000E+02  0.00000E+00  9.000E+00
       2     1     1     2   501     0  1.178670233E+02 -4.641098381E+01  3.513131195E+01  1.314565468E+02  1.430511475E-06  0.00000E+00  9.000E+00
#rwgt            1           1   1.6912353916733562E-002           5       25308           0
</event>
<event>
      5   9999  3.19816E-02  4.21195E+01 -1.00000E+00  1.43463E-01
       1    -1     0     0   502     0  0.000000000E+00  0.000000000E+00  9.866561382E+02  9.866561382E+02  0.000000000E+00  0.00000E+00  9.000E+00
      21    -1     0     0   501   502  0.000000000E+00  0.000000000E+00 -1.455922988E+03  1.455922988E+03  0.000000000E+00  0.00000E+00  9.000E+00
      25     1     1     2     0     0  1.049071483E+02  3.801520095E+02 -1.085959897E+03  1.162090770E+03  1.250000000E+02  0.00000E+00  9.000E+00
      25     1     1     2     0     0 -1.468814017E+02 -3.836472408E+02 -1.922336431E+02  4.704658596E+02  1.250000000E+02  0.00000E+00  9.000E+00
       1     1     1     2   501     0  4.197425348E+01  3.495231253E+00  8.089266903E+02  8.100224965E+02  0.000000000E+00  0.00000E+00  9.000E+00
#rwgt            1           1   2.5014808477476821E-002           5       25418           0
</event>
<event>
      5   9999  3.19816E-02  4.78399E+01 -1.00000E+00  1.40179E-01
      21    -1     0     0   511   501  0.000000000E+00  0.000000000E+00  8.474361870E+02  8.474361870E+02  0.000000000E+00  0.00000E+00  9.000E+00
      21    -1     0     0   501   502  0.000000000E+00  0.000000000E+00 -1.993253762E+02  1.993253762E+02  0.000000000E+00  0.00000E+00  9.000E+00
      25     1     1     2     0     0  2.881246743E+02  2.263007989E+02  2.788264822E+02  4.770713643E+02  1.250000000E+02  0.00000E+00  9.000E+00
      25     1     1     2     0     0 -2.542916783E+02 -1.924779045E+02  2.063925189E+02  3.999185832E+02  1.250000000E+02  0.00000E+00  9.000E+00
      21     1     1     2   511   502 -3.383299596E+01 -3.382289440E+01  1.628918097E+02  1.697716156E+02  0.000000000E+00  0.00000E+00  9.000E+00
#rwgt            1           1   3.5079753430389646E-002           5       25556           0
</event>
<event>
      5   9999  3.19816E-02  8.32951E+01 -1.00000E+00  1.27507E-01
      21    -1     0     0   512   501  0.000000000E+00  0.000000000E+00  3.077134612E+03  3.077134612E+03  0.000000000E+00  0.00000E+00  9.000E+00
      21    -1     0     0   501   502  0.000000000E+00  0.000000000E+00 -1.111860399E+02  1.111860399E+02  0.000000000E+00  0.00000E+00  9.000E+00
      25     1     1     2     0     0  2.485076558E+02 -3.714658111E+02  7.310775129E+02  8.659343126E+02  1.250000000E+02  0.00000E+00  9.000E+00
      25     1     1     2     0     0 -1.757858168E+02  4.120812087E+02  1.245476381E+03  1.329491629E+03  1.250000000E+02  0.00000E+00  9.000E+00
      21     1     1     2   512   502 -7.272183903E+01 -4.061539760E+01  9.893946775E+02  9.928947096E+02  1.525878906E-05  0.00000E+00  9.000E+00
#rwgt            1           1   3.1646651128627926E-002           5       25694           0
</event>
<event>
      5   9999  3.19816E-02  1.08770E+02 -1.00000E+00  1.22208E-01
      21    -1     0     0   502   501  0.000000000E+00  0.000000000E+00  6.460386396E+02  6.460386396E+02  0.000000000E+00  0.00000E+00  9.000E+00
      21    -1     0     0   511   502  0.000000000E+00  0.000000000E+00 -2.806261065E+02  2.806261065E+02  0.000000000E+00  0.00000E+00  9.000E+00
      25     1     1     2     0     0  2.478617452E+02 -2.851913221E+01  4.885080651E+02  5.625956944E+02  1.250000000E+02  0.00000E+00  9.000E+00
      25     1     1     2     0     0 -1.664094620E+02 -4.356701100E+01 -1.895291320E+01  2.134816301E+02  1.250000000E+02  0.00000E+00  9.000E+00
      21     1     1     2   511   501 -8.145228325E+01  7.208614321E+01 -1.041426188E+02  1.505874216E+02  1.907348633E-06  0.00000E+00  9.000E+00
#rwgt            1           1   2.7477274522665057E-002           5       25781           0
</event>
<event>
      5   9999  3.19816E-02  3.68141E+01 -1.00000E+00  1.47112E-01
      21    -1     0     0   502   512  0.000000000E+00  0.000000000E+00  2.235723410E+02  2.235723410E+02  0.000000000E+00  0.00000E+00  9.000E+00
      21    -1     0     0   501   502  0.000000000E+00  0.000000000E+00 -5.444759976E+02  5.444759976E+02  0.000000000E+00  0.00000E+00  9.000E+00
      25     1     1     2     0     0 -1.557707063E+02  1.318602500E+02  3.333746064E+01  2.416361413E+02  1.250000000E+02  0.00000E+00  9.000E+00
      25     1     1     2     0     0  1.466479706E+02 -1.675261092E+02 -3.957242353E+02  4.709493549E+02  1.250000000E+02  0.00000E+00  9.000E+00
      21     1     1     2   501   512  9.122735714E+00  3.566585915E+01  4.148311798E+01  5.546284245E+01  6.743495762E-07  0.00000E+00  9.000E+00
#rwgt            1           1   2.8264003472063301E-002           5       25828           0
</event>
<event>
      5   9999  3.19816E-02  8.25834E+01 -1.00000E+00  1.27685E-01
      21    -1     0     0   511   501  0.000000000E+00  0.000000000E+00  1.160620980E+02  1.160620980E+02  0.000000000E+00  0.00000E+00  9.000E+00
      21    -1     0     0   501   502  0.000000000E+00  0.000000000E+00 -3.182709229E+03  3.182709229E+03  0.000000000E+00  0.00000E+00  9.000E+00
      25     1     1     2     0     0  1.637572988E+02 -1.698922253E+02 -2.044413309E+03  2.061778504E+03  1.250000000E+02  0.00000E+00  9.000E+00
      25     1     1     2     0     0 -2.184197664E+02  1.079887585E+02 -1.093894913E+03  1.127652361E+03  1.250000000E+02  0.00000E+00  9.000E+00
      21     1     1     2   511   502  5.466246755E+01  6.190346680E+01  7.166109143E+01  1.093404618E+02  5.800974398E-06  0.00000E+00  9.000E+00
#rwgt            1           1   2.6242473379314159E-002           5       25923           0
</event>
<event>
      5   9999  3.19816E-02  2.83788E+01 -1.00000E+00  1.54735E-01
      -1    -1     0     0     0   501  0.000000000E+00  0.000000000E+00  2.745297329E+02  2.745297329E+02  0.000000000E+00  0.00000E+00  9.000E+00
      21    -1     0     0   501   502  0.000000000E+00  0.000000000E+00 -2.124564371E+03  2.124564371E+03  0.000000000E+00  0.00000E+00  9.000E+00
      25     1     1     2     0     0 -6.453217138E+01  8.385128946E+01 -3.794627105E+02  4.132945542E+02  1.250000000E+02  0.00000E+00  9.000E+00
      25     1     1     2     0     0  3.615508816E+01 -8.354203094E+01 -1.723932917E+03  1.730854172E+03  1.250000000E+02  0.00000E+00  9.000E+00
      -1     1     1     2     0   502  2.837708322E+01 -3.092585246E-01  2.533609898E+02  2.549453777E+02  2.697398305E-06  0.00000E+00  9.000E+00
#rwgt            1           1   6.7703618745297789E-002           5       25971           0
</event>
<event>
      5   9999  3.19816E-02  5.32182E+01 -1.00000E+00  1.37547E-01
      21    -1     0     0   502   511  0.000000000E+00  0.000000000E+00  1.281315655E+03  1.281315655E+03  0.000000000E+00  0.00000E+00  9.000E+00
      21    -1     0     0   501   502  0.000000000E+00  0.000000000E+00 -2.299818443E+02  2.299818443E+02  0.000000000E+00  0.00000E+00  9.000E+00
      25     1     1     2     0     0 -4.456600299E+02  6.067962788E+01  1.879146917E+02  5.032214332E+02  1.250000000E+02  0.00000E+00  9.000E+00
      25     1     1     2     0     0  4.240926113E+02 -1.093317166E+02  6.907066711E+02  8.273503929E+02  1.250000000E+02  0.00000E+00  9.000E+00
      21     1     1     2   501   511  2.156741862E+01  4.865208874E+01  1.727124479E+02  1.807256731E+02  0.000000000E+00  0.00000E+00  9.000E+00
#rwgt            1           1   2.8901545161758514E-002           5       26092           0
</event>
<event>
      5   9999  3.19816E-02  1.73547E+01 -1.00000E+00  1.71618E-01
      21    -1     0     0   502   501  0.000000000E+00  0.000000000E+00  7.944470432E+02  7.944470432E+02  0.000000000E+00  0.00000E+00  9.000E+00
      21    -1     0     0   501   512  0.000000000E+00  0.000000000E+00 -6.823356799E+01  6.823356799E+01  0.000000000E+00  0.00000E+00  9.000E+00
      25     1     1     2     0     0 -8.126248784E+01 -1.596343100E+02  2.582890332E+02  3.382675413E+02  1.250000000E+02  0.00000E+00  9.000E+00
      25     1     1     2     0     0  9.540180391E+01  1.495712317E+02  4.492325395E+02  4.989067369E+02  1.250000000E+02  0.00000E+00  9.000E+00
      21     1     1     2   502   512 -1.413931606E+01  1.006307826E+01  1.869190251E+01  2.550633298E+01  2.384185791E-07  0.00000E+00  9.000E+00
#rwgt            1           1   2.7458827869902794E-002           5       26142           0
</event>
<event>
      5   9999  3.19816E-02  5.65190E+01 -1.00000E+00  1.36105E-01
      21    -1     0     0   502   501  0.000000000E+00  0.000000000E+00  2.342663912E+02  2.342663912E+02  0.000000000E+00  0.00000E+00  9.000E+00
      21    -1     0     0   501   511  0.000000000E+00  0.000000000E+00 -1.921922039E+02  1.921922039E+02  0.000000000E+00  0.00000E+00  9.000E+00
      25     1     1     2     0     0 -1.258556557E+02  1.006682970E+01  1.115018806E+02  2.097585672E+02  1.250000000E+02  0.00000E+00  9.000E+00
      25     1     1     2     0     0  7.546577296E+01  1.553118500E+01 -3.656640700E+01  1.513221818E+02  1.250000000E+02  0.00000E+00  9.000E+00
      21     1     1     2   502   511  5.038988271E+01 -2.559801470E+01 -3.286128627E+01  6.537784619E+01  1.168007728E-06  0.00000E+00  9.000E+00
#rwgt            1           1   2.6925470313371395E-002           5       26332           0
</event>
<event>
      5   9999  3.19816E-02  1.60160E+02 -1.00000E+00  1.15277E-01
      21    -1     0     0   512   501  0.000000000E+00  0.000000000E+00  1.640080427E+02  1.640080427E+02  0.000000000E+00  0.00000E+00  9.000E+00
      21    -1     0     0   501   502  0.000000000E+00  0.000000000E+00 -1.069212733E+03  1.069212733E+03  0.000000000E+00  0.00000E+00  9.000E+00
      25     1     1     2     0     0 -2.304945902E+02 -5.755441400E+01 -7.298982402E+02  7.776996256E+02  1.250000000E+02  0.00000E+00  9.000E+00
      25     1     1     2     0     0  1.946555278E+02 -9.854448038E+01 -1.516044548E+02  2.936165865E+02  1.250000000E+02  0.00000E+00  9.000E+00
      21     1     1     2   512   502  3.583906236E+01  1.560988944E+02 -2.370199555E+01  1.619045639E+02  4.370284743E-06  0.00000E+00  9.000E+00
#rwgt            1           1   2.9189424726600431E-002           5       26400           0
</event>
<event>
      5   9999  3.19816E-02  4.25069E+01 -1.00000E+00  1.43222E-01
      21    -1     0     0   511   501  0.000000000E+00  0.000000000E+00  2.502376628E+02  2.502376628E+02  0.000000000E+00  0.00000E+00  9.000E+00
      21    -1     0     0   501   502  0.000000000E+00  0.000000000E+00 -6.111056715E+02  6.111056715E+02  0.000000000E+00  0.00000E+00  9.000E+00
      25     1     1     2     0     0 -1.815376989E+02  7.790682915E+01 -5.193579402E+02  5.695463811E+02  1.250000000E+02  0.00000E+00  9.000E+00
      25     1     1     2     0     0  1.503657268E+02 -4.900789380E+01  1.400649153E+02  2.454685437E+02  1.250000000E+02  0.00000E+00  9.000E+00
      21     1     1     2   511   502  3.117197214E+01 -2.889893535E+01  1.842501626E+01  4.632840960E+01  8.259061849E-07  0.00000E+00  9.000E+00
#rwgt            1           1   3.3130465859897471E-002           5       26459           0
</event>
<event>
      5   9999  3.19816E-02  1.44681E+02 -1.00000E+00  1.17018E-01
      21    -1     0     0   512   501  0.000000000E+00  0.000000000E+00  9.888867290E+02  9.888867290E+02  0.000000000E+00  0.00000E+00  9.000E+00
      21    -1     0     0   501   502  0.000000000E+00  0.000000000E+00 -2.916190921E+02  2.916190921E+02  0.000000000E+00  0.00000E+00  9.000E+00
      25     1     1     2     0     0  1.955446995E+02 -2.675098410E+02  7.639258009E+01  3.622983175E+02  1.250000000E+02  0.00000E+00  9.000E+00
      25     1     1     2     0     0 -1.400767788E+02  4.011361609E+02  2.251006958E+02  4.968169148E+02  1.250000000E+02  0.00000E+00  9.000E+00
      21     1     1     2   512   502 -5.546792067E+01 -1.336263199E+02  3.957743610E+02  4.213905889E+02  0.000000000E+00  0.00000E+00  9.000E+00
#rwgt            1           1   2.9851540442318730E-002           5       26550           0
</event>
<event>
      5   9999  3.19816E-02  2.54644E+02 -1.00000E+00  1.07958E-01
      21    -1     0     0   511   501  0.000000000E+00  0.000000000E+00  1.951178374E+03  1.951178374E+03  0.000000000E+00  0.00000E+00  9.000E+00
      21    -1     0     0   501   502  0.000000000E+00  0.000000000E+00 -1.025077564E+02  1.025077564E+02  0.000000000E+00  0.00000E+00  9.000E+00
      25     1     1     2     0     0  8.363181932E+00 -4.504892068E+00  7.653108399E+02  7.755101021E+02  1.250000000E+02  0.00000E+00  9.000E+00
      25     1     1     2     0     0 -2.582688166E+02  5.339963236E+01  1.876559173E+02  3.469784512E+02  1.250000000E+02  0.00000E+00  9.000E+00
      21     1     1     2   511   502  2.499056346E+02 -4.889474029E+01  8.957038600E+02  9.311975766E+02  0.000000000E+00  0.00000E+00  9.000E+00
#rwgt            2          11   1.8543763708386972E-003           5       26676           0
</event>
<event>
      5   9999  3.19816E-02  3.87041E+01 -1.00000E+00  1.45733E-01
      21    -1     0     0   512   501  0.000000000E+00  0.000000000E+00  6.669264155E+02  6.669264155E+02  0.000000000E+00  0.00000E+00  9.000E+00
      21    -1     0     0   501   502  0.000000000E+00  0.000000000E+00 -1.303849855E+03  1.303849855E+03  0.000000000E+00  0.00000E+00  9.000E+00
      25     1     1     2     0     0 -3.770585661E+02  1.717885822E+02 -2.036303709E+02  4.783040949E+02  1.250000000E+02  0.00000E+00  9.000E+00
      25     1     1     2     0     0  4.080780127E+02 -1.949359238E+02 -9.048829374E+02  1.019296723E+03  1.250000000E+02  0.00000E+00  9.000E+00
      21     1     1     2   512   502 -3.101944663E+01  2.314734153E+01  4.715898685E+02  4.731754532E+02  0.000000000E+00  0.00000E+00  9.000E+00
#rwgt            1           1   2.6768428742898809E-002           5       26711           0
</event>
<event>
      5   9999  3.19816E-02  4.38440E+00 -1.00000E+00  2.54421E-01
      21    -1     0     0   502   501  0.000000000E+00  0.000000000E+00  5.896492154E+01  5.896492154E+01  0.000000000E+00  0.00000E+00  9.000E+00
      21    -1     0     0   501   511  0.000000000E+00  0.000000000E+00 -1.320837408E+03  1.320837408E+03  0.000000000E+00  0.00000E+00  9.000E+00
      25     1     1     2     0     0  1.178761772E+02 -1.373012755E+02 -9.286026277E+02  9.542925513E+02  1.250000000E+02  0.00000E+00  9.000E+00
      25     1     1     2     0     0 -1.220434450E+02  1.386639258E+02 -2.238433240E+02  3.159954438E+02  1.250000000E+02  0.00000E+00  9.000E+00
      21     1     1     2   502   511  4.167267796E+00 -1.362650352E+00 -1.094265352E+02  1.095143349E+02  0.000000000E+00  0.00000E+00  9.000E+00
#rwgt            1           1   3.0509123987745194E-002           5       26822           0
</event>
<event>
      5   9999  3.19816E-02  1.91517E+01 -1.00000E+00  1.67937E-01
      21    -1     0     0   502   512  0.000000000E+00  0.000000000E+00  2.744233488E+02  2.744233488E+02  0.000000000E+00  0.00000E+00  9.000E+00
      21    -1     0     0   501   502  0.000000000E+00  0.000000000E+00 -1.041439409E+03  1.041439409E+03  0.000000000E+00  0.00000E+00  9.000E+00
      25     1     1     2     0     0 -2.404010187E+02  4.041597634E+02 -1.563209488E+02  5.110763183E+02  1.250000000E+02  0.00000E+00  9.000E+00
      25     1     1     2     0     0  2.592373298E+02 -4.076211375E+02 -6.061318561E+02  7.850986000E+02  1.250000000E+02  0.00000E+00  9.000E+00
      21     1     1     2   501   512 -1.883631109E+01  3.461374130E+00 -4.563255489E+00  1.968783957E+01  2.980232239E-07  0.00000E+00  9.000E+00
#rwgt            1           1   2.5410700474415623E-002           5       27210           0
</event>
<event>
      5   9999  3.19816E-02  1.99366E+02 -1.00000E+00  1.11698E-01
      -1    -1     0     0     0   501  0.000000000E+00  0.000000000E+00  2.616970096E+02  2.616970096E+02  0.000000000E+00  0.00000E+00  9.000E+00
      21    -1     0     0   501   502  0.000000000E+00  0.000000000E+00 -6.992402813E+02  6.992402813E+02  0.000000000E+00  0.00000E+00  9.000E+00
      25     1     1     2     0     0  8.214721298E+01  2.558244256E+02 -2.674782884E+02  3.992041284E+02  1.250000000E+02  0.00000E+00  9.000E+00
      25     1     1     2     0     0  1.144273775E+02 -2.225803947E+02  2.744802971E+01  2.810943813E+02  1.250000000E+02  0.00000E+00  9.000E+00
      -1     1     1     2     0   502 -1.965745905E+02 -3.324403088E+01 -1.975130130E+02  2.806387812E+02  2.697398305E-06  0.00000E+00  9.000E+00
#rwgt            1           1   2.9878717892805062E-002           5       27438           0
</event>
<event>
      5   9999  3.19816E-02  1.01637E+02 -1.00000E+00  1.23512E-01
      21    -1     0     0   502   511  0.000000000E+00  0.000000000E+00  1.388783897E+02  1.388783897E+02  0.000000000E+00  0.00000E+00  9.000E+00
      21    -1     0     0   501   502  0.000000000E+00  0.000000000E+00 -2.449693680E+03  2.449693680E+03  0.000000000E+00  0.00000E+00  9.000E+00
      25     1     1     2     0     0 -6.081980440E+00 -1.972415512E+02 -2.018738100E+03  2.032208094E+03  1.250000000E+02  0.00000E+00  9.000E+00
      25     1     1     2     0     0 -3.363342339E+01  2.907978224E+02 -9.100052743E+01  3.310599291E+02  1.250000000E+02  0.00000E+00  9.000E+00
      21     1     1     2   501   511  3.971540383E+01 -9.355627119E+01 -2.010766632E+02  2.253040471E+02  2.697398305E-06  0.00000E+00  9.000E+00
#rwgt            1           1   2.8522227256205082E-002           5       27523           0
</event>
<event>
      5   9999  3.19816E-02  6.79768E+01 -1.00000E+00  1.31869E-01
      21    -1     0     0   502   501  0.000000000E+00  0.000000000E+00  9.353252965E+02  9.353252965E+02  0.000000000E+00  0.00000E+00  9.000E+00
      21    -1     0     0   501   512  0.000000000E+00  0.000000000E+00 -2.548034068E+02  2.548034068E+02  0.000000000E+00  0.00000E+00  9.000E+00
      25     1     1     2     0     0  2.803203261E+02  2.099515083E+02  5.325958798E+02  6.495710063E+02  1.250000000E+02  0.00000E+00  9.000E+00
      25     1     1     2     0     0 -3.376821931E+02 -2.464269930E+02  1.711942427E+02  4.687088597E+02  1.250000000E+02  0.00000E+00  9.000E+00
      21     1     1     2   502   512  5.736186700E+01  3.647548478E+01 -2.326823282E+01  7.184883739E+01  2.078484985E-06  0.00000E+00  9.000E+00
#rwgt            1           1   2.8694667526072106E-002           5       27581           0
</event>
<event>
      5   9999  3.19816E-02  2.10512E+01 -1.00000E+00  1.64554E-01
      21    -1     0     0   511   501  0.000000000E+00  0.000000000E+00  1.589476667E+02  1.589476667E+02  0.000000000E+00  0.00000E+00  9.000E+00
      21    -1     0     0   501   502  0.000000000E+00  0.000000000E+00 -3.482126793E+02  3.482126793E+02  0.000000000E+00  0.00000E+00  9.000E+00
      25     1     1     2     0     0  1.113462663E+02  2.886253752E+01  7.223454455E+01  1.845910792E+02  1.250000000E+02  0.00000E+00  9.000E+00
      25     1     1     2     0     0 -9.196489461E+01 -2.064581772E+01 -2.571762206E+02  3.010787273E+02  1.250000000E+02  0.00000E+00  9.000E+00
      21     1     1     2   511   502 -1.938137165E+01 -8.216719806E+00 -4.323336575E+00  2.149053956E+01  2.858538343E-07  0.00000E+00  9.000E+00
#rwgt            1           1   2.6988617606454431E-002           5       27720           0
</event>
<event>
      5   9999  3.19816E-02  6.62343E+01 -1.00000E+00  1.32449E-01
      21    -1     0     0   512   501  0.000000000E+00  0.000000000E+00  5.359844720E+02  5.359844720E+02  0.000000000E+00  0.00000E+00  9.000E+00
      21    -1     0     0   501   502  0.000000000E+00  0.000000000E+00 -6.412470033E+02  6.412470033E+02  0.000000000E+00  0.00000E+00  9.000E+00
      25     1     1     2     0     0  3.525031418E+02 -2.381691388E+02 -1.976670580E+02  4.854691231E+02  1.250000000E+02  0.00000E+00  9.000E+00
      25     1     1     2     0     0 -3.060400355E+02  1.909657808E+02 -1.723294037E+02  4.188685428E+02  1.250000000E+02  0.00000E+00  9.000E+00
      21     1     1     2   512   502 -4.646310630E+01  4.720335797E+01  2.647339305E+02  2.728938094E+02  3.814697266E-06  0.00000E+00  9.000E+00
#rwgt            1           1   2.8909809222315921E-002           5       27822           0
</event>
<event>
      5   9999  3.19816E-02  2.89444E+02 -1.00000E+00  1.06100E-01
       2    -1     0     0   502     0  0.000000000E+00  0.000000000E+00  1.729409332E+03  1.729409332E+03  0.000000000E+00  0.00000E+00  9.000E+00
      21    -1     0     0   501   502  0.000000000E+00  0.000000000E+00 -1.545171383E+02  1.545171383E+02  0.000000000E+00  0.00000E+00  9.000E+00
      25     1     1     2     0     0 -3.289974100E+02 -2.320987933E+02  5.248308001E+02  6.731875774E+02  1.250000000E+02  0.00000E+00  9.000E+00
      25     1     1     2     0     0  2.242526290E+02 -3.772792658E+01  2.516314319E+02  3.614637127E+02  1.250000000E+02  0.00000E+00  9.000E+00
       2     1     1     2   501     0  1.047447810E+02  2.698267199E+02  7.984299614E+02  8.492751799E+02  1.525878906E-05  0.00000E+00  9.000E+00
#rwgt            1           1   3.0279605620279121E-002           5       27900           0
</event>
<event>
      5   9999  3.19816E-02  1.05162E+02 -1.00000E+00  1.22853E-01
      21    -1     0     0   502   511  0.000000000E+00  0.000000000E+00  1.157726761E+02  1.157726761E+02  0.000000000E+00  0.00000E+00  9.000E+00
      21    -1     0     0   501   502  0.000000000E+00  0.000000000E+00 -1.554211742E+03  1.554211742E+03  0.000000000E+00  0.00000E+00  9.000E+00
      25     1     1     2     0     0 -1.007936588E+02  1.820083148E+01 -2.605176006E+00  1.616243139E+02  1.250000000E+02  0.00000E+00  9.000E+00
      25     1     1     2     0     0 -3.879994148E+00 -8.077124070E+00 -1.386585827E+03  1.392237605E+03  1.250000000E+02  0.00000E+00  9.000E+00
      21     1     1     2   501   511  1.046736529E+02 -1.012370741E+01 -4.924806329E+01  1.161224991E+02  1.651812370E-06  0.00000E+00  9.000E+00
#rwgt            1           1   3.1885440117887354E-002           5       27935           0
</event>
<event>
      5   9999  3.19816E-02  8.50932E+01 -1.00000E+00  1.27065E-01
      21    -1     0     0   502   512  0.000000000E+00  0.000000000E+00  5.143653519E+02  5.143653519E+02  0.000000000E+00  0.00000E+00  9.000E+00
      21    -1     0     0   501   502  0.000000000E+00  0.000000000E+00 -6.813019010E+02  6.813019010E+02  0.000000000E+00  0.00000E+00  9.000E+00
      25     1     1     2     0     0 -2.316531908E+02 -4.218243443E+02 -2.580260197E+02  5.601797971E+02  1.250000000E+02  0.00000E+00  9.000E+00
      25     1     1     2     0     0  3.166276116E+02  4.173307713E+02  4.964960578E+01  5.408401802E+02  1.250000000E+02  0.00000E+00  9.000E+00
      21     1     1     2   501   512 -8.497442080E+01  4.493572934E+00  4.143986478E+01  9.464727561E+01  9.536743164E-07  0.00000E+00  9.000E+00
#rwgt            1           1   2.3514861861964144E-002           5       28006           0
</event>
<event>
      5   9999  3.19816E-02  4.59096E+00 -1.00000E+00  2.50123E-01
      21    -1     0     0   502   511  0.000000000E+00  0.000000000E+00  2.352538672E+03  2.352538672E+03  0.000000000E+00  0.00000E+00  9.000E+00
      21    -1     0     0   501   502  0.000000000E+00  0.000000000E+00 -3.958713154E+02  3.958713154E+02  0.000000000E+00  0.00000E+00  9.000E+00
      25     1     1     2     0     0 -6.401663474E+02  1.936005919E+02  4.382473919E+02  8.093082961E+02  1.250000000E+02  0.00000E+00  9.000E+00
      25     1     1     2     0     0  6.403513821E+02 -1.890133613E+02  3.380719419E+02  7.587447405E+02  1.250000000E+02  0.00000E+00  9.000E+00
      21     1     1     2   501   511 -1.850346300E-01 -4.587230593E+00  1.180348023E+03  1.180356951E+03  2.157918644E-05  0.00000E+00  9.000E+00
#rwgt            1           1   2.8261447128007048E-002           5       28117           0
</event>
<event>
      5   9999  3.19816E-02  8.22484E+00 -1.00000E+00  2.06109E-01
      21    -1     0     0   502   512  0.000000000E+00  0.000000000E+00  3.138629855E+02  3.138629855E+02  0.000000000E+00  0.00000E+00  9.000E+00
      21    -1     0     0   501   502  0.000000000E+00  0.000000000E+00 -6.081931421E+02  6.081931421E+02  0.000000000E+00  0.00000E+00  9.000E+00
      25     1     1     2     0     0  1.160330153E+02 -3.167657255E+02  2.379762768E+01  3.605489046E+02  1.250000000E+02  0.00000E+00  9.000E+00
      25     1     1     2     0     0 -1.093439255E+02  3.215515515E+02 -3.649489750E+02  5.139691126E+02  1.250000000E+02  0.00000E+00  9.000E+00
      21     1     1     2   501   512 -6.689089786E+00 -4.785826004E+00  4.682119067E+01  4.753811048E+01  0.000000000E+00  0.00000E+00  9.000E+00
#rwgt            1           1   2.9174213654739285E-002           5       28521           0
</event>
<event>
      5   9999  3.19816E-02  1.42390E+02 -1.00000E+00  1.17297E-01
      21    -1     0     0   502   501  0.000000000E+00  0.000000000E+00  6.730253662E+02  6.730253662E+02  0.000000000E+00  0.00000E+00  9.000E+00
      21    -1     0     0   511   502  0.000000000E+00  0.000000000E+00 -2.032517361E+03  2.032517361E+03  0.000000000E+00  0.00000E+00  9.000E+00
      25     1     1     2     0     0  4.684166173E+02 -5.707734777E+02 -1.460007230E+03  1.640866418E+03  1.250000000E+02  0.00000E+00  9.000E+00
      25     1     1     2     0     0 -3.360741641E+02  6.233129019E+02  3.326862717E+02  7.923193629E+02  1.250000000E+02  0.00000E+00  9.000E+00
      21     1     1     2   511   501 -1.323424532E+02 -5.253942420E+01 -2.321710367E+02  2.723569465E+02  0.000000000E+00  0.00000E+00  9.000E+00
#rwgt            1           1   1.6344270260210344E-002           5       28842           0
</event>
<event>
      5   9999  3.19816E-02  8.85622E+01 -1.00000E+00  1.26248E-01
      21    -1     0     0   502   501  0.000000000E+00  0.000000000E+00  4.803724487E+01  4.803724487E+01  0.000000000E+00  0.00000E+00  9.000E+00
      21    -1     0     0   501   512  0.000000000E+00  0.000000000E+00 -1.726897715E+03  1.726897715E+03  0.000000000E+00  0.00000E+00  9.000E+00
      25     1     1     2     0     0 -2.525542321E+01 -2.020869152E+02 -5.362077826E+02  5.870440732E+02  1.250000000E+02  0.00000E+00  9.000E+00
      25     1     1     2     0     0  1.072829024E+02  1.686988994E+02 -8.053984182E+02  8.392023307E+02  1.250000000E+02  0.00000E+00  9.000E+00
      21     1     1     2   502   512 -8.202747916E+01  3.338801580E+01 -3.372542698E+02  3.486885565E+02  5.394796609E-06  0.00000E+00  9.000E+00
#rwgt            1           1   2.8207642253882691E-002           5       28898           0
</event>
<event>
      5   9999  3.19816E-02  7.89011E+01 -1.00000E+00  1.28641E-01
      21    -1     0     0   511   501  0.000000000E+00  0.000000000E+00  6.579625439E+02  6.579625439E+02  0.000000000E+00  0.00000E+00  9.000E+00
      21    -1     0     0   501   502  0.000000000E+00  0.000000000E+00 -1.969252464E+02  1.969252464E+02  0.000000000E+00  0.00000E+00  9.000E+00
      25     1     1     2     0     0 -9.157236265E+01  5.378666473E+01 -1.166462632E+02  2.012705980E+02  1.250000000E+02  0.00000E+00  9.000E+00
      25     1     1     2     0     0  1.359547325E+02 -1.190215144E+02  4.811404765E+02  5.289338034E+02  1.250000000E+02  0.00000E+00  9.000E+00
      21     1     1     2   511   502 -4.438236989E+01  6.523484968E+01  9.654308418E+01  1.246833889E+02  1.348699152E-06  0.00000E+00  9.000E+00
#rwgt            1           1   2.7438811992084616E-002           5       28988           0
</event>
<event>
      5   9999  3.19816E-02  7.44789E+01 -1.00000E+00  1.29871E-01
       2    -1     0     0   502     0  0.000000000E+00  0.000000000E+00  1.749766660E+02  1.749766660E+02  0.000000000E+00  0.00000E+00  9.000E+00
      21    -1     0     0   501   502  0.000000000E+00  0.000000000E+00 -1.138041517E+03  1.138041517E+03  0.000000000E+00  0.00000E+00  9.000E+00
      25     1     1     2     0     0  4.356976070E+01  2.230252705E+02 -8.879053925E+02  9.250078818E+02  1.250000000E+02  0.00000E+00  9.000E+00
      25     1     1     2     0     0  3.016218340E+01 -2.335471880E+02 -1.289343281E+02  2.961471042E+02  1.250000000E+02  0.00000E+00  9.000E+00
       2     1     1     2   501     0 -7.373194410E+01  1.052191754E+01  5.377486972E+01  9.186319689E+01  2.523185073E-06  0.00000E+00  9.000E+00
#rwgt            1           1   2.7521067265448278E-002           5       29024           0
</event>
<event>
      5   9999  3.19816E-02  1.60315E+02 -1.00000E+00  1.15260E-01
      21    -1     0     0   502   501  0.000000000E+00  0.000000000E+00  4.453849781E+02  4.453849781E+02  0.000000000E+00  0.00000E+00  9.000E+00
      21    -1     0     0   501   511  0.000000000E+00  0.000000000E+00 -1.182267107E+03  1.182267107E+03  0.000000000E+00  0.00000E+00  9.000E+00
      25     1     1     2     0     0  4.485906651E+02 -1.690241862E+02  4.651094162E+01  4.975851968E+02  1.250000000E+02  0.00000E+00  9.000E+00
      25     1     1     2     0     0 -5.987099338E+02  2.252832195E+02 -5.931368296E+02  8.812731769E+02  1.250000000E+02  0.00000E+00  9.000E+00
      21     1     1     2   502   511  1.501192687E+02 -5.625903326E+01 -1.902562406E+02  2.487937112E+02  2.697398305E-06  0.00000E+00  9.000E+00
#rwgt            1           1   3.0829944082992264E-002           5       29089           0
</event>
<event>
      5   9999  3.19816E-02  3.26074E+01 -1.00000E+00  1.50568E-01
      21    -1     0     0   502   501  0.000000000E+00  0.000000000E+00  4.352843286E+02  4.352843286E+02  0.000000000E+00  0.00000E+00  9.000E+00
      21    -1     0     0   501   512  0.000000000E+00  0.000000000E+00 -2.152188486E+02  2.152188486E+02  0.000000000E+00  0.00000E+00  9.000E+00
      25     1     1     2     0     0 -2.245535205E+02 -1.580265771E+02  9.086927271E+01  3.150855556E+02  1.250000000E+02  0.00000E+00  9.000E+00
      25     1     1     2     0     0  1.929023599E+02  1.501877755E+02  1.275819631E+02  3.027702853E+02  1.250000000E+02  0.00000E+00  9.000E+00
      21     1     1     2   502   512  3.165116062E+01  7.838801622E+00  1.614244243E+00  3.264733625E+01  5.547556421E-07  0.00000E+00  9.000E+00
#rwgt            1           1   2.7990495886346216E-002           5       29156           0
</event>
<event>
      5   9999  3.19816E-02  6.91771E+01 -1.00000E+00  1.31481E-01
      21    -1     0     0   502   511  0.000000000E+00  0.000000000E+00  4.954543753E+02  4.954543753E+02  0.000000000E+00  0.00000E+00  9.000E+00
      21    -1     0     0   501   502  0.000000000E+00  0.000000000E+00 -1.693495145E+03  1.693495145E+03  0.000000000E+00  0.00000E+00  9.000E+00
      25     1     1     2     0     0  3.456882249E+01  3.173242101E+02 -1.392461317E+03  1.434037369E+03  1.250000000E+02  0.00000E+00  9.000E+00
      25     1     1     2     0     0  1.655495863E+01 -2.707212911E+02 -1.967768639E+02  3.576453806E+02  1.250000000E+02  0.00000E+00  9.000E+00
      21     1     1     2   501   511 -5.112378112E+01 -4.660291894E+01  3.911974106E+02  3.972667707E+02  0.000000000E+00  0.00000E+00  9.000E+00
#rwgt            1           1   3.0497594682356195E-002           5       29334           0
</event>
<event>
      5   9999  3.19816E-02  6.03044E+02 -1.00000E+00  9.65938E-02
      21    -1     0     0   502   501  0.000000000E+00  0.000000000E+00  4.148992791E+02  4.148992791E+02  0.000000000E+00  0.00000E+00  9.000E+00
       2    -1     0     0   501     0  0.000000000E+00  0.000000000E+00 -2.546423867E+03  2.546423867E+03  0.000000000E+00  0.00000E+00  9.000E+00
      25     1     1     2     0     0  2.951472291E+02  1.576552756E+02  9.239481147E+01  3.689564662E+02  1.250000000E+02  0.00000E+00  9.000E+00
      25     1     1     2     0     0  1.736819840E+02 -5.369450478E+02 -4.940073378E+02  7.603575907E+02  1.250000000E+02  0.00000E+00  9.000E+00
       2     1     1     2   502     0 -4.688292131E+02  3.792897722E+02 -1.729912062E+03  1.832009090E+03  2.157918644E-05  0.00000E+00  9.000E+00
#rwgt            2          13   1.5322930182425896E-003           5       29591           0
</event>
<event>
      5   9999  3.19816E-02  1.57979E+02 -1.00000E+00  1.15509E-01
       1    -1     0     0   502     0  0.000000000E+00  0.000000000E+00  1.288002146E+03  1.288002146E+03  0.000000000E+00  0.00000E+00  9.000E+00
      21    -1     0     0   501   502  0.000000000E+00  0.000000000E+00 -8.075095508E+02  8.075095508E+02  0.000000000E+00  0.00000E+00  9.000E+00
      25     1     1     2     0     0  4.429702489E+02  5.389322622E+01  2.288585238E+02  5.168446045E+02  1.250000000E+02  0.00000E+00  9.000E+00
      25     1     1     2     0     0 -6.007781586E+02 -6.123524476E+01 -5.103500343E+02  8.004787995E+02  1.250000000E+02  0.00000E+00  9.000E+00
       1     1     1     2   501     0  1.578079096E+02  7.342018536E+00  7.619841053E+02  7.781882924E+02  1.078959322E-05  0.00000E+00  9.000E+00
#rwgt            1           1   3.2173068264426410E-002           5       29610           0
</event>
<event>
      5   9999  3.19816E-02  8.10498E+00 -1.00000E+00  2.06933E-01
      21    -1     0     0   502   501  0.000000000E+00  0.000000000E+00  6.640711719E+02  6.640711719E+02  0.000000000E+00  0.00000E+00  9.000E+00
      21    -1     0     0   511   502  0.000000000E+00  0.000000000E+00 -4.076978910E+02  4.076978910E+02  0.000000000E+00  0.00000E+00  9.000E+00
      25     1     1     2     0     0 -1.517948830E+02 -3.020213366E+02  4.091735204E+02  5.452582361E+02  1.250000000E+02  0.00000E+00  9.000E+00
      25     1     1     2     0     0  1.515286992E+02  3.101219472E+02  6.350561486E+00  3.671537804E+02  1.250000000E+02  0.00000E+00  9.000E+00
      21     1     1     2   511   501  2.661837838E-01 -8.100610639E+00 -1.591508010E+02  1.593570463E+02  1.907348633E-06  0.00000E+00  9.000E+00
#rwgt            1           1   2.7425173951373286E-002           5       29691           0
</event>
<event>
      5   9999  3.19816E-02  1.03142E+02 -1.00000E+00  1.23227E-01
      21    -1     0     0   512   501  0.000000000E+00  0.000000000E+00  5.214790527E+02  5.214790527E+02  0.000000000E+00  0.00000E+00  9.000E+00
      21    -1     0     0   501   502  0.000000000E+00  0.000000000E+00 -5.567408884E+02  5.567408884E+02  0.000000000E+00  0.00000E+00  9.000E+00
      25     1     1     2     0     0 -1.387010547E+02  1.601459446E+01 -4.474544588E+02  4.851133295E+02  1.250000000E+02  0.00000E+00  9.000E+00
      25     1     1     2     0     0  6.724504882E+01  5.836535984E+01 -1.447208484E+01  1.541520453E+02  1.250000000E+02  0.00000E+00  9.000E+00
      21     1     1     2   512   502  7.145600584E+01 -7.437995430E+01  4.266647079E+02  4.389545663E+02  5.394796609E-06  0.00000E+00  9.000E+00
#rwgt            1           1   2.4076773061141685E-002           5       29979           0
</event>
<event>
      5   9999  3.19816E-02  1.04362E+02 -1.00000E+00  1.23000E-01
      21    -1     0     0   502   501  0.000000000E+00  0.000000000E+00  5.889462545E+02  5.889462545E+02  0.000000000E+00  0.00000E+00  9.000E+00
      21    -1     0     0   501   511  0.000000000E+00  0.000000000E+00 -8.686564607E+02  8.686564607E+02  0.000000000E+00  0.00000E+00  9.000E+00
      25     1     1     2     0     0 -3.483416682E+02 -6.791766331E+01  2.306935093E+02  4.413606484E+02  1.250000000E+02  0.00000E+00  9.000E+00
      25     1     1     2     0     0  3.927127040E+02  1.623775583E+02  5.039184331E+01  4.458184352E+02  1.250000000E+02  0.00000E+00  9.000E+00
      21     1     1     2   502   511 -4.437103586E+01 -9.445989501E+01 -5.607955588E+02  5.704236315E+02  1.078959322E-05  0.00000E+00  9.000E+00
#rwgt            1           1   2.5112765913180301E-002           5       30048           0
</event>
<event>
      5   9999  3.19816E-02  8.11278E+01 -1.00000E+00  1.28056E-01
      21    -1     0     0   502   512  0.000000000E+00  0.000000000E+00  2.174597030E+02  2.174597030E+02  0.000000000E+00  0.00000E+00  9.000E+00
      21    -1     0     0   501   502  0.000000000E+00  0.000000000E+00 -1.834216423E+03  1.834216423E+03  0.000000000E+00  0.00000E+00  9.000E+00
      25     1     1     2     0     0  6.106588169E+01 -2.995944590E+00 -1.202021133E+03  1.210048686E+03  1.250000000E+02  0.00000E+00  9.000E+00
      25     1     1     2     0     0 -1.382350562E+02  2.802869123E+01 -6.055937848E+02  6.342423594E+02  1.250000000E+02  0.00000E+00  9.000E+00
      21     1     1     2   501   512  7.716917449E+01 -2.503274664E+01  1.908581980E+02  2.073850806E+02  1.009274029E-05  0.00000E+00  9.000E+00
#rwgt            1           1   9.5409993491251094E-002           5       30143           0
</event>
<event>
      5   9999  3.19816E-02  1.34927E+01 -1.00000E+00  1.81829E-01
      21    -1     0     0   502   511  0.000000000E+00  0.000000000E+00  1.717256988E+03  1.717256988E+03  0.000000000E+00  0.00000E+00  9.000E+00
      21    -1     0     0   501   502  0.000000000E+00  0.000000000E+00 -4.683719152E+02  4.683719152E+02  0.000000000E+00  0.00000E+00  9.000E+00
      25     1     1     2     0     0  6.591055153E+01 -5.235444102E+02  1.310980955E+03  1.418710335E+03  1.250000000E+02  0.00000E+00  9.000E+00
      25     1     1     2     0     0 -7.248563166E+01  5.353266655E+02 -2.286790276E+02  5.997898826E+02  1.250000000E+02  0.00000E+00  9.000E+00
      21     1     1     2   501   511  6.575080130E+00 -1.178225525E+01  1.665831458E+02  1.671286860E+02  3.814697266E-06  0.00000E+00  9.000E+00
#rwgt            1           1   3.0734551154006900E-002           5       30206           0
</event>
<event>
      5   9999  3.19816E-02  4.75973E+01 -1.00000E+00  1.40307E-01
      21    -1     0     0   502   501  0.000000000E+00  0.000000000E+00  3.675717585E+02  3.675717585E+02  0.000000000E+00  0.00000E+00  9.000E+00
      21    -1     0     0   512   502  0.000000000E+00  0.000000000E+00 -3.137247794E+02  3.137247794E+02  0.000000000E+00  0.00000E+00  9.000E+00
      25     1     1     2     0     0 -2.375006698E+02 -1.311943656E+02  1.659735301E+02  3.417466055E+02  1.250000000E+02  0.00000E+00  9.000E+00
      25     1     1     2     0     0  1.926372658E+02  1.470933869E+02 -9.963581912E+01  2.903409669E+02  1.250000000E+02  0.00000E+00  9.000E+00
      21     1     1     2   512   501  4.486340402E+01 -1.589902130E+01 -1.249073188E+01  4.920896546E+01  9.386548846E-07  0.00000E+00  9.000E+00
#rwgt            1           1   2.6085389821504643E-002           5       30607           0
</event>
<event>
      5   9999  3.19816E-02  1.58742E+02 -1.00000E+00  1.15427E-01
      21    -1     0     0   502   501  0.000000000E+00  0.000000000E+00  6.282933733E+02  6.282933733E+02  0.000000000E+00  0.00000E+00  9.000E+00
      21    -1     0     0   511   502  0.000000000E+00  0.000000000E+00 -2.327353770E+02  2.327353770E+02  0.000000000E+00  0.00000E+00  9.000E+00
      25     1     1     2     0     0  1.963869686E+02 -1.149528334E+02  1.577964070E+02  3.038201794E+02  1.250000000E+02  0.00000E+00  9.000E+00
      25     1     1     2     0     0 -3.211659160E+02  1.682379631E+01  1.565274356E+02  3.788884055E+02  1.250000000E+02  0.00000E+00  9.000E+00
      21     1     1     2   511   501  1.247789474E+02  9.812903711E+01  8.123415374E+01  1.783201654E+02  9.536743164E-07  0.00000E+00  9.000E+00
#rwgt            1           1   2.6161002912781398E-002           5       30655           0
</event>
<event>
      5   9999  3.19816E-02  1.18978E+02 -1.00000E+00  1.20526E-01
      21    -1     0     0   512   501  0.000000000E+00  0.000000000E+00  1.115168283E+03  1.115168283E+03  0.000000000E+00  0.00000E+00  9.000E+00
      21    -1     0     0   501   502  0.000000000E+00  0.000000000E+00 -2.941363790E+02  2.941363790E+02  0.000000000E+00  0.00000E+00  9.000E+00
      25     1     1     2     0     0  2.963493623E+02  1.470859549E+02 -5.921317075E+01  3.585922786E+02  1.250000000E+02  0.00000E+00  9.000E+00
      25     1     1     2     0     0 -4.142428405E+02 -1.310605681E+02  7.355293075E+02  8.633668777E+02  1.250000000E+02  0.00000E+00  9.000E+00
      21     1     1     2   512   502  1.178934782E+02 -1.602538676E+01  1.447157673E+02  1.873455058E+02  1.907348633E-06  0.00000E+00  9.000E+00
#rwgt            1           1   2.8861292634849153E-002           5       30714           0
</event>
<event>
      5   9999  3.19816E-02  3.15864E+01 -1.00000E+00  1.51502E-01
      21    -1     0     0   502   501  0.000000000E+00  0.000000000E+00  7.814491619E+02  7.814491619E+02  0.000000000E+00  0.00000E+00  9.000E+00
      21    -1     0     0   501   511  0.000000000E+00  0.000000000E+00 -1.348356267E+02  1.348356267E+02  0.000000000E+00  0.00000E+00  9.000E+00
      25     1     1     2     0     0 -2.423590795E+02 -5.293936995E+01  2.381295364E+02  3.658841024E+02  1.250000000E+02  0.00000E+00  9.000E+00
      25     1     1     2     0     0  2.108658417E+02  5.051463005E+01  4.397317804E+02  5.059695344E+02  1.250000000E+02  0.00000E+00  9.000E+00
      21     1     1     2   502   511  3.149323781E+01  2.424739907E+00 -3.124778160E+01  4.443115175E+01  6.743495762E-07  0.00000E+00  9.000E+00
#rwgt            1           1   2.8278665933421945E-002           5       30842           0
</event>
<event>
      5   9999  3.19816E-02  4.14381E+01 -1.00000E+00  1.43895E-01
      21    -1     0     0   502   501  0.000000000E+00  0.000000000E+00  4.488788149E+02  4.488788149E+02  0.000000000E+00  0.00000E+00  9.000E+00
      21    -1     0     0   501   512  0.000000000E+00  0.000000000E+00 -1.174685489E+02  1.174685489E+02  0.000000000E+00  0.00000E+00  9.000E+00
      25     1     1     2     0     0 -1.176751225E+02  1.800181541E+01  3.045658696E+02  3.500812316E+02  1.250000000E+02  0.00000E+00  9.000E+00
      25     1     1     2     0     0  1.043878843E+02  2.124825057E+01  4.608512818E+01  1.705788896E+02  1.250000000E+02  0.00000E+00  9.000E+00
      21     1     1     2   502   512  1.328723826E+01 -3.925006598E+01 -1.924073174E+01  4.568724262E+01  6.307962682E-07  0.00000E+00  9.000E+00
#rwgt            1           1   3.1379352717538930E-002           5       30940           0
</event>
<event>
      5   9999  3.19816E-02  8.14044E+01 -1.00000E+00  1.27985E-01
      21    -1     0     0   502   501  0.000000000E+00  0.000000000E+00  1.190957725E+03  1.190957725E+03  0.000000000E+00  0.00000E+00  9.000E+00
      21    -1     0     0   511   502  0.000000000E+00  0.000000000E+00 -1.862111887E+02  1.862111887E+02  0.000000000E+00  0.00000E+00  9.000E+00
      25     1     1     2     0     0  5.653005326E+01  2.376376056E+02  4.968334980E+01  2.788560807E+02  1.250000000E+02  0.00000E+00  9.000E+00
      25     1     1     2     0     0 -6.449126750E+01 -1.566233938E+02  9.882361971E+02  1.010408725E+03  1.250000000E+02  0.00000E+00  9.000E+00
      21     1     1     2   511   501  7.961214248E+00 -8.101421178E+01 -3.317301088E+01  8.790410737E+01  1.719260824E-06  0.00000E+00  9.000E+00
#rwgt            1           1   3.1934956609174857E-002           5       31085           0
</event>
<event>
      5   9999  3.19816E-02  1.40544E+02 -1.00000E+00  1.17525E-01
      21    -1     0     0   512   501  0.000000000E+00  0.000000000E+00  1.975216999E+03  1.975216999E+03  0.000000000E+00  0.00000E+00  9.000E+00
      21    -1     0     0   501   502  0.000000000E+00  0.000000000E+00 -1.417754912E+02  1.417754912E+02  0.000000000E+00  0.00000E+00  9.000E+00
      25     1     1     2     0     0  1.611540068E+01  2.675711835E+02  9.595071085E+02  1.004058233E+03  1.250000000E+02  0.00000E+00  9.000E+00
      25     1     1     2     0     0  4.040541534E+01 -3.962489763E+02  2.801586619E+02  5.027521503E+02  1.250000000E+02  0.00000E+00  9.000E+00
      21     1     1     2   512   502 -5.652081602E+01  1.286777928E+02  5.937757377E+02  6.101821070E+02  0.000000000E+00  0.00000E+00  9.000E+00
#rwgt            2          11   2.2125951872259608E-003           5       31258           0
</event>
<event>
      5   9999  3.19816E-02  5.03699E+02 -1.00000E+00  9.87612E-02
      21    -1     0     0   511   501  0.000000000E+00  0.000000000E+00  2.800846177E+03  2.800846177E+03  0.000000000E+00  0.00000E+00  9.000E+00
      21    -1     0     0   501   502  0.000000000E+00  0.000000000E+00 -5.341321586E+02  5.341321586E+02  0.000000000E+00  0.00000E+00  9.000E+00
      25     1     1     2     0     0  5.191515473E+02 -4.085606367E+02  5.066401276E+02  8.418725211E+02  1.250000000E+02  0.00000E+00  9.000E+00
      25     1     1     2     0     0 -5.462701783E+02 -9.440739052E+01 -9.028617074E+01  5.754132912E+02  1.250000000E+02  0.00000E+00  9.000E+00
      21     1     1     2   511   502  2.711863095E+01  5.029680272E+02  1.850360062E+03  1.917692524E+03  0.000000000E+00  0.00000E+00  9.000E+00
#rwgt            1           1   2.4439285690476525E-002           5       31278           0
</event>
<event>
      5   9999  3.19816E-02  2.07081E+01 -1.00000E+00  1.65132E-01
      21    -1     0     0   502   501  0.000000000E+00  0.000000000E+00  2.406909495E+02  2.406909495E+02  0.000000000E+00  0.00000E+00  9.000E+00
      21    -1     0     0   501   512  0.000000000E+00  0.000000000E+00 -6.927661956E+02  6.927661956E+02  0.000000000E+00  0.00000E+00  9.000E+00
      25     1     1     2     0     0 -2.454246332E+02 -3.428221421E+01 -1.489068675E+02  3.149710717E+02  1.250000000E+02  0.00000E+00  9.000E+00
      25     1     1     2     0     0  2.653248744E+02  4.000973651E+01  1.808696689E+01  2.965640005E+02  1.250000000E+02  0.00000E+00  9.000E+00
      21     1     1     2   502   512 -1.990024118E+01 -5.727522297E+00 -3.212553455E+02  3.219220731E+02  3.814697266E-06  0.00000E+00  9.000E+00
#rwgt            1           1   2.5472468981091387E-002           5       31349           0
</event>
<event>
      5   9999  3.19816E-02  1.43503E+01 -1.00000E+00  1.79215E-01
      21    -1     0     0   502   511  0.000000000E+00  0.000000000E+00  3.370664730E+01  3.370664730E+01  0.000000000E+00  0.00000E+00  9.000E+00
      21    -1     0     0   501   502  0.000000000E+00  0.000000000E+00 -3.098259473E+03  3.098259473E+03  0.000000000E+00  0.00000E+00  9.000E+00
      25     1     1     2     0     0 -1.924368788E+02 -1.652533914E+02 -1.534885821E+03  1.560717822E+03  1.250000000E+02  0.00000E+00  9.000E+00
      25     1     1     2     0     0  1.988218973E+02  1.524018814E+02 -1.531411474E+03  1.556792402E+03  1.250000000E+02  0.00000E+00  9.000E+00
      21     1     1     2   501   511 -6.385018510E+00  1.285151003E+01  1.744469284E+00  1.445589653E+01  9.142077953E-07  0.00000E+00  9.000E+00
#rwgt            1           1   2.6117431499335004E-002           5       31472           0
</event>
<event>
      5   9999  3.19816E-02  3.18276E+02 -1.00000E+00  1.04764E-01
       2    -1     0     0   502     0  0.000000000E+00  0.000000000E+00  1.517661602E+03  1.517661602E+03  0.000000000E+00  0.00000E+00  9.000E+00
      21    -1     0     0   501   502  0.000000000E+00  0.000000000E+00 -4.890768436E+02  4.890768436E+02  0.000000000E+00  0.00000E+00  9.000E+00
      25     1     1     2     0     0 -5.530387158E+01  7.218298073E+01 -3.467281454E+02  3.796239030E+02  1.250000000E+02  0.00000E+00  9.000E+00
      25     1     1     2     0     0  3.023441213E+02 -2.728585290E+02  3.432556648E+02  5.470952348E+02  1.250000000E+02  0.00000E+00  9.000E+00
       2     1     1     2   501     0 -2.470402497E+02  2.006755483E+02  1.032057239E+03  1.080019308E+03  1.525878906E-05  0.00000E+00  9.000E+00
#rwgt            1           1   2.4305046992323727E-002           5       31638           0
</event>
<event>
      5   9999  3.19816E-02  6.62041E+01 -1.00000E+00  1.32459E-01
      -2    -1     0     0     0   501  0.000000000E+00  0.000000000E+00  9.855552431E+02  9.855552431E+02  0.000000000E+00  0.00000E+00  9.000E+00
      21    -1     0     0   501   502  0.000000000E+00  0.000000000E+00 -1.881492153E+02  1.881492153E+02  0.000000000E+00  0.00000E+00  9.000E+00
      25     1     1     2     0     0  5.735152014E+01 -2.819012186E+01 -1.348757723E+02  1.946801320E+02  1.250000000E+02  0.00000E+00  9.000E+00
      25     1     1     2     0     0 -1.918021277E+01 -2.590177327E+01  1.679354437E+02  2.118161837E+02  1.250000000E+02  0.00000E+00  9.000E+00
      -2     1     1     2     0   502 -3.817130737E+01  5.409189513E+01  7.643463563E+02  7.672081427E+02  0.000000000E+00  0.00000E+00  9.000E+00
#rwgt            1           1   2.5877381254351645E-002           5       31673           0
</event>
<event>
      5   9999  3.19816E-02  2.58761E+02 -1.00000E+00  1.07722E-01
      21    -1     0     0   502   501  0.000000000E+00  0.000000000E+00  2.168191573E+02  2.168191573E+02  0.000000000E+00  0.00000E+00  9.000E+00
       2    -1     0     0   501     0  0.000000000E+00  0.000000000E+00 -1.677443590E+03  1.677443590E+03  0.000000000E+00  0.00000E+00  9.000E+00
      25     1     1     2     0     0 -2.891162360E+02 -1.206834008E+02 -7.734615027E+01  3.460637341E+02  1.250000000E+02  0.00000E+00  9.000E+00
      25     1     1     2     0     0  3.928715419E+02 -1.163656015E+02 -9.731095311E+02  1.063229120E+03  1.250000000E+02  0.00000E+00  9.000E+00
       2     1     1     2   502     0 -1.037553059E+02  2.370490023E+02 -4.101687517E+02  4.849698938E+02  5.394796609E-06  0.00000E+00  9.000E+00
#rwgt            2          13   1.0479215888382131E-003           5       31781           0
</event>
<event>
      5   9999  3.19816E-02  6.20442E+01 -1.00000E+00  1.33930E-01
      21    -1     0     0   502   511  0.000000000E+00  0.000000000E+00  3.689059582E+02  3.689059582E+02  0.000000000E+00  0.00000E+00  9.000E+00
      21    -1     0     0   501   502  0.000000000E+00  0.000000000E+00 -2.116274869E+03  2.116274869E+03  0.000000000E+00  0.00000E+00  9.000E+00
      25     1     1     2     0     0  4.027184146E+02 -5.345868690E+02 -1.616220768E+03  1.753784426E+03  1.250000000E+02  0.00000E+00  9.000E+00
      25     1     1     2     0     0 -3.413317350E+02  5.435954930E+02 -9.857331248E+01  6.613207326E+02  1.250000000E+02  0.00000E+00  9.000E+00
      21     1     1     2   501   511 -6.138667962E+01 -9.008624086E+00 -3.257482993E+01  7.007566830E+01  4.768371582E-07  0.00000E+00  9.000E+00
#rwgt            1           1   3.2998144493000085E-002           5       31800           0
</event>
<event>
      5   9999  3.19816E-02  1.53983E+02 -1.00000E+00  1.15944E-01
      21    -1     0     0   502   501  0.000000000E+00  0.000000000E+00  2.095973854E+02  2.095973854E+02  0.000000000E+00  0.00000E+00  9.000E+00
      21    -1     0     0   512   502  0.000000000E+00  0.000000000E+00 -1.753331407E+03  1.753331407E+03  0.000000000E+00  0.00000E+00  9.000E+00
      25     1     1     2     0     0  2.193212529E+02  3.870086582E+02 -9.048956623E+02  1.016040685E+03  1.250000000E+02  0.00000E+00  9.000E+00
      25     1     1     2     0     0 -9.098851734E+01 -4.721058654E+02 -3.147932016E+02  5.881178608E+02  1.250000000E+02  0.00000E+00  9.000E+00
      21     1     1     2   512   501 -1.283327356E+02  8.509720721E+01 -3.240451575E+02  3.587702465E+02  3.814697266E-06  0.00000E+00  9.000E+00
#rwgt            2          11   4.2066217423255845E-003           5       32130           0
</event>
<event>
      5   9999  3.19816E-02  4.39213E+01 -1.00000E+00  1.42365E-01
      21    -1     0     0   502   501  0.000000000E+00  0.000000000E+00  4.875836268E+02  4.875836268E+02  0.000000000E+00  0.00000E+00  9.000E+00
      21    -1     0     0   501   511  0.000000000E+00  0.000000000E+00 -1.286119799E+03  1.286119799E+03  0.000000000E+00  0.00000E+00  9.000E+00
      25     1     1     2     0     0  5.212215005E+01  4.597927902E+02 -2.334619053E+02  5.331562525E+02  1.250000000E+02  0.00000E+00  9.000E+00
      25     1     1     2     0     0 -2.843494519E+01 -4.967791812E+02  1.418172973E+02  5.322924448E+02  1.250000000E+02  0.00000E+00  9.000E+00
      21     1     1     2   502   511 -2.368720487E+01  3.698639105E+01 -7.068915641E+02  7.082547283E+02  7.629394531E-06  0.00000E+00  9.000E+00
#rwgt            1           1   3.0184742095381047E-002           5       32150           0
</event>
<event>
      5   9999  3.19816E-02  6.07375E+01 -1.00000E+00  1.34420E-01
       2    -1     0     0   502     0  0.000000000E+00  0.000000000E+00  1.638898150E+03  1.638898150E+03  0.000000000E+00  0.00000E+00  9.000E+00
      21    -1     0     0   501   502  0.000000000E+00  0.000000000E+00 -6.503397910E+02  6.503397910E+02  0.000000000E+00  0.00000E+00  9.000E+00
      25     1     1     2     0     0  3.931168319E+01 -1.641237964E+02  6.089568450E+02  6.441548479E+02  1.250000000E+02  0.00000E+00  9.000E+00
      25     1     1     2     0     0 -6.765005042E+01  2.178451463E+02 -6.050333022E+02  6.585767486E+02  1.250000000E+02  0.00000E+00  9.000E+00
       2     1     1     2   501     0  2.833836723E+01 -5.372134988E+01  9.846348159E+02  9.865063442E+02  1.078959322E-05  0.00000E+00  9.000E+00
#rwgt            1           1   2.8186068404145299E-002           5       32265           0
</event>
<event>
      5   9999  3.19816E-02  4.60542E+01 -1.00000E+00  1.41144E-01
      21    -1     0     0   511   501  0.000000000E+00  0.000000000E+00  1.566060607E+02  1.566060607E+02  0.000000000E+00  0.00000E+00  9.000E+00
      21    -1     0     0   501   502  0.000000000E+00  0.000000000E+00 -6.619256718E+02  6.619256718E+02  0.000000000E+00  0.00000E+00  9.000E+00
      25     1     1     2     0     0  2.363137460E+01  1.668794158E+02 -1.393238025E+01  2.103004815E+02  1.250000000E+02  0.00000E+00  9.000E+00
      25     1     1     2     0     0  1.124262830E+01 -1.969591680E+02 -5.081269042E+02  5.592291671E+02  1.250000000E+02  0.00000E+00  9.000E+00
      21     1     1     2   511   502 -3.487400290E+01  3.007975215E+01  1.673967336E+01  4.900208395E+01  5.331201500E-07  0.00000E+00  9.000E+00
#rwgt            1           1   2.7457624714311332E-002           5       32381           0
</event>
<event>
      5   9999  3.19816E-02  2.16756E+02 -1.00000E+00  1.10391E-01
      21    -1     0     0   502   512  0.000000000E+00  0.000000000E+00  1.001907991E+03  1.001907991E+03  0.000000000E+00  0.00000E+00  9.000E+00
      21    -1     0     0   501   502  0.000000000E+00  0.000000000E+00 -2.065419413E+02  2.065419413E+02  0.000000000E+00  0.00000E+00  9.000E+00
      25     1     1     2     0     0  1.537572104E+02 -1.573955809E+02  3.538353199E+02  4.350161862E+02  1.250000000E+02  0.00000E+00  9.000E+00
      25     1     1     2     0     0  1.097136582E+01  1.651338445E+01 -1.182153377E+02  1.731846668E+02  1.250000000E+02  0.00000E+00  9.000E+00
      21     1     1     2   501   512 -1.647285762E+02  1.408821964E+02  5.597460675E+02  6.002490793E+02  1.078959322E-05  0.00000E+00  9.000E+00
#rwgt            1           1   2.5510326292853693E-002           5       32483           0
</event>
<event>
      5   9999  3.19816E-02  7.73898E+01 -1.00000E+00  1.29051E-01
      21    -1     0     0   502   501  0.000000000E+00  0.000000000E+00  1.343205951E+02  1.343205951E+02  0.000000000E+00  0.00000E+00  9.000E+00
      21    -1     0     0   511   502  0.000000000E+00  0.000000000E+00 -5.293073638E+02  5.293073638E+02  0.000000000E+00  0.00000E+00  9.000E+00
      25     1     1     2     0     0  1.675581403E+02 -2.695143825E+01 -1.063887152E+01  2.110457202E+02  1.250000000E+02  0.00000E+00  9.000E+00
      25     1     1     2     0     0 -9.882578344E+01 -8.616048074E+00 -2.851601025E+02  3.267752375E+02  1.250000000E+02  0.00000E+00  9.000E+00
      21     1     1     2   511   501 -6.873235691E+01  3.556748632E+01 -9.918779460E+01  1.258070013E+02  1.348699152E-06  0.00000E+00  9.000E+00
#rwgt            1           1   2.7172708971759409E-002           5       32542           0
</event>
<event>
      5   9999  3.19816E-02  3.61228E+01 -1.00000E+00  1.47641E-01
      21    -1     0     0   512   501  0.000000000E+00  0.000000000E+00  1.376457245E+02  1.376457245E+02  0.000000000E+00  0.00000E+00  9.000E+00
      21    -1     0     0   501   502  0.000000000E+00  0.000000000E+00 -1.503817741E+03  1.503817741E+03  0.000000000E+00  0.00000E+00  9.000E+00
      25     1     1     2     0     0  8.013278981E+01 -4.161500681E+01 -1.428927288E+03  1.437223458E+03  1.250000000E+02  0.00000E+00  9.000E+00
      25     1     1     2     0     0 -4.538971054E+01  3.172679868E+01  5.856728707E+00  1.368434026E+02  1.250000000E+02  0.00000E+00  9.000E+00
      21     1     1     2   512   502 -3.474307927E+01  9.888208136E+00  5.689854280E+01  6.739660519E+01  1.168007728E-06  0.00000E+00  9.000E+00
#rwgt            1           1   3.3985277702963584E-002           5       32634           0
</event>
<event>
      5   9999  3.19816E-02  5.13996E+01 -1.00000E+00  1.38395E-01
      21    -1     0     0   502   501  0.000000000E+00  0.000000000E+00  1.113260451E+03  1.113260451E+03  0.000000000E+00  0.00000E+00  9.000E+00
      21    -1     0     0   511   502  0.000000000E+00  0.000000000E+00 -3.345690717E+02  3.345690717E+02  0.000000000E+00  0.00000E+00  9.000E+00
      25     1     1     2     0     0 -2.654071439E+01  1.770947570E+02 -1.821816021E+02  2.843977823E+02  1.250000000E+02  0.00000E+00  9.000E+00
      25     1     1     2     0     0  7.388847375E+01 -1.970974281E+02  1.040359189E+03  1.068774600E+03  1.250000000E+02  0.00000E+00  9.000E+00
      21     1     1     2   511   501 -4.734775937E+01  2.000267118E+01 -7.948620741E+01  9.465714099E+01  0.000000000E+00  0.00000E+00  9.000E+00
#rwgt            1           1   2.3976931231954775E-002           5       32745           0
</event>
<event>
      5   9999  3.19816E-02  7.94667E+01 -1.00000E+00  1.28490E-01
      21    -1     0     0   502   501  0.000000000E+00  0.000000000E+00  1.207099465E+02  1.207099465E+02  0.000000000E+00  0.00000E+00  9.000E+00
       1    -1     0     0   501     0  0.000000000E+00  0.000000000E+00 -1.477717695E+03  1.477717695E+03  0.000000000E+00  0.00000E+00  9.000E+00
      25     1     1     2     0     0 -2.292129981E+02 -2.344447954E+02 -6.424514285E+02  7.320326485E+02  1.250000000E+02  0.00000E+00  9.000E+00
      25     1     1     2     0     0  1.674332030E+02  2.844269239E+02 -3.642334311E+02  5.071721057E+02  1.250000000E+02  0.00000E+00  9.000E+00
       1     1     1     2   502     0  6.177979516E+01 -4.998212850E+01 -3.503228889E+02  3.592228873E+02  3.814697266E-06  0.00000E+00  9.000E+00
#rwgt            1           1   2.4419689732314669E-002           5       32917           0
</event>
<event>
      5   9999  3.19816E-02  1.03053E+01 -1.00000E+00  1.94259E-01
      21    -1     0     0   502   501  0.000000000E+00  0.000000000E+00  2.323652148E+01  2.323652148E+01  0.000000000E+00  0.00000E+00  9.000E+00
      21    -1     0     0   511   502  0.000000000E+00  0.000000000E+00 -1.462198833E+03  1.462198833E+03  0.000000000E+00  0.00000E+00  9.000E+00
      25     1     1     2     0     0 -9.446740230E+01  1.417621543E+01 -9.992759713E+02  1.011584165E+03  1.250000000E+02  0.00000E+00  9.000E+00
      25     1     1     2     0     0  9.431162181E+01 -2.448038027E+01 -3.579527228E+02  3.914704622E+02  1.250000000E+02  0.00000E+00  9.000E+00
      21     1     1     2   511   501  1.557804941E-01  1.030416484E+01 -8.173361757E+01  8.238072785E+01  1.651812370E-06  0.00000E+00  9.000E+00
#rwgt            1           1   3.3645294156999080E-002           5       33041           0
</event>
<event>
      5   9999  3.19816E-02  1.28788E+02 -1.00000E+00  1.19080E-01
      21    -1     0     0   502   501  0.000000000E+00  0.000000000E+00  9.311030962E+01  9.311030962E+01  0.000000000E+00  0.00000E+00  9.000E+00
       2    -1     0     0   501     0  0.000000000E+00  0.000000000E+00 -3.251538532E+03  3.251538532E+03  0.000000000E+00  0.00000E+00  9.000E+00
      25     1     1     2     0     0 -5.992216119E+01 -2.357071577E+02 -7.944721755E+02  8.402140009E+02  1.250000000E+02  0.00000E+00  9.000E+00
      25     1     1     2     0     0  1.715782887E+02  1.715255906E+02 -2.042341173E+02  3.408763882E+02  1.250000000E+02  0.00000E+00  9.000E+00
       2     1     1     2   502     0 -1.116561275E+02  6.418156714E+01 -2.159721929E+03  2.163558452E+03  0.000000000E+00  0.00000E+00  9.000E+00
#rwgt            1           1   3.2518816014398669E-002           5       33238           0
</event>
<event>
      5   9999  3.19816E-02  1.63412E+02 -1.00000E+00  1.14938E-01
      -1    -1     0     0     0   501  0.000000000E+00  0.000000000E+00  1.054474433E+02  1.054474433E+02  0.000000000E+00  0.00000E+00  9.000E+00
      21    -1     0     0   501   502  0.000000000E+00  0.000000000E+00 -2.608611391E+03  2.608611391E+03  0.000000000E+00  0.00000E+00  9.000E+00
      25     1     1     2     0     0 -3.194727507E+02 -3.534546686E+02 -8.826101373E+02  1.010751550E+03  1.250000000E+02  0.00000E+00  9.000E+00
      25     1     1     2     0     0  1.699506683E+02  2.875260291E+02 -1.003586474E+03  1.065065846E+03  1.250000000E+02  0.00000E+00  9.000E+00
      -1     1     1     2     0   502  1.495220823E+02  6.592863945E+01 -6.169673365E+02  6.382414377E+02  7.629394531E-06  0.00000E+00  9.000E+00
#rwgt            1           1   3.0349426591691275E-002           5       33346           0
</event>
<event>
      5   9999  3.19816E-02  3.86505E+02 -1.00000E+00  1.02136E-01
      21    -1     0     0   511   501  0.000000000E+00  0.000000000E+00  1.087332727E+03  1.087332727E+03  0.000000000E+00  0.00000E+00  9.000E+00
      21    -1     0     0   501   502  0.000000000E+00  0.000000000E+00 -5.829922556E+02  5.829922556E+02  0.000000000E+00  0.00000E+00  9.000E+00
      25     1     1     2     0     0  2.428409827E+00  3.923036990E+02 -3.820423482E+02  5.616844713E+02  1.250000000E+02  0.00000E+00  9.000E+00
      25     1     1     2     0     0 -1.082083588E+02 -2.055501610E+01  6.129634820E+02  6.352013758E+02  1.250000000E+02  0.00000E+00  9.000E+00
      21     1     1     2   511   502  1.057799490E+02 -3.717486829E+02  2.734193379E+02  4.734391357E+02  3.814697266E-06  0.00000E+00  9.000E+00
#rwgt            2          11   2.8077628597931452E-003           5       33483           0
</event>
<event>
      5   9999  3.19816E-02  2.11081E+02 -1.00000E+00  1.10802E-01
      21    -1     0     0   512   501  0.000000000E+00  0.000000000E+00  7.441281336E+02  7.441281336E+02  0.000000000E+00  0.00000E+00  9.000E+00
      21    -1     0     0   501   502  0.000000000E+00  0.000000000E+00 -2.446325820E+02  2.446325820E+02  0.000000000E+00  0.00000E+00  9.000E+00
      25     1     1     2     0     0  6.684692218E+01 -8.537094130E+01 -1.092966608E+02  1.983115445E+02  1.250000000E+02  0.00000E+00  9.000E+00
      25     1     1     2     0     0  7.180349419E+01  2.445292872E+02  2.730593529E+02  3.938739955E+02  1.250000000E+02  0.00000E+00  9.000E+00
      21     1     1     2   512   502 -1.386504164E+02 -1.591583459E+02  3.357328595E+02  3.965751757E+02  3.814697266E-06  0.00000E+00  9.000E+00
#rwgt            1           1   2.9764596061727055E-002           5       33503           0
</event>
<event>
      5   9999  3.19816E-02  1.75649E+02 -1.00000E+00  1.13740E-01
      21    -1     0     0   502   501  0.000000000E+00  0.000000000E+00  4.040386374E+02  4.040386374E+02  0.000000000E+00  0.00000E+00  9.000E+00
       2    -1     0     0   501     0  0.000000000E+00  0.000000000E+00 -1.856526411E+02  1.856526411E+02  0.000000000E+00  0.00000E+00  9.000E+00
      25     1     1     2     0     0 -1.590869685E+02  5.014793602E+01  8.772158089E+01  2.261494081E+02  1.250000000E+02  0.00000E+00  9.000E+00
      25     1     1     2     0     0  4.922027164E+01  8.689878913E+01  8.874209851E+01  1.829595440E+02  1.250000000E+02  0.00000E+00  9.000E+00
       2     1     1     2   502     0  1.098666969E+02 -1.370467252E+02  4.192231691E+01  1.805823264E+02  1.846782373E-06  0.00000E+00  9.000E+00
#rwgt            1           1   2.6307933449626852E-002           5       33549           0
</event>
<event>
      5   9999  3.19816E-02  2.16458E+01 -1.00000E+00  1.63584E-01
      21    -1     0     0   502   511  0.000000000E+00  0.000000000E+00  1.452701258E+02  1.452701258E+02  0.000000000E+00  0.00000E+00  9.000E+00
      21    -1     0     0   501   502  0.000000000E+00  0.000000000E+00 -6.853089232E+02  6.853089232E+02  0.000000000E+00  0.00000E+00  9.000E+00
      25     1     1     2     0     0  1.065674308E+02 -1.735107855E+02 -4.835233832E+02  5.393352131E+02  1.250000000E+02  0.00000E+00  9.000E+00
      25     1     1     2     0     0 -1.237632245E+02  1.866578848E+02 -6.984508692E+01  2.658229446E+02  1.250000000E+02  0.00000E+00  9.000E+00
      21     1     1     2   501   511  1.719579370E+01 -1.314709937E+01  1.332967268E+01  2.542089134E+01  5.331201500E-07  0.00000E+00  9.000E+00
#rwgt            1           1   2.7248046674914237E-002           5       33607           0
</event>
<event>
      5   9999  3.19816E-02  2.36937E+01 -1.00000E+00  1.60517E-01
      21    -1     0     0   502   501  0.000000000E+00  0.000000000E+00  1.813153728E+03  1.813153728E+03  0.000000000E+00  0.00000E+00  9.000E+00
      21    -1     0     0   512   502  0.000000000E+00  0.000000000E+00 -2.359535111E+03  2.359535111E+03  0.000000000E+00  0.00000E+00  9.000E+00
      25     1     1     2     0     0  1.454275261E+02 -3.161283828E+02  1.587456208E+03  1.629947401E+03  1.250000000E+02  0.00000E+00  9.000E+00
      25     1     1     2     0     0 -1.411195398E+02  2.928295865E+02  5.603153767E+01  3.527441345E+02  1.250000000E+02  0.00000E+00  9.000E+00
      21     1     1     2   512   501 -4.307986302E+00  2.329879634E+01 -2.189869128E+03  2.189997304E+03  4.315837288E-05  0.00000E+00  9.000E+00
#rwgt            1           1   3.3102680860487677E-002           5       33760           0
</event>
<event>
      5   9999  3.19816E-02  1.67495E+02 -1.00000E+00  1.14526E-01
      21    -1     0     0   511   501  0.000000000E+00  0.000000000E+00  5.153358996E+02  5.153358996E+02  0.000000000E+00  0.00000E+00  9.000E+00
      21    -1     0     0   501   502  0.000000000E+00  0.000000000E+00 -2.489581386E+02  2.489581386E+02  0.000000000E+00  0.00000E+00  9.000E+00
      25     1     1     2     0     0 -2.379069123E+02 -6.129413135E+01  1.637029244E+00  2.756525881E+02  1.250000000E+02  0.00000E+00  9.000E+00
      25     1     1     2     0     0  9.157489367E+01  1.427888316E+02  5.046704184E+01  2.166714884E+02  1.250000000E+02  0.00000E+00  9.000E+00
      21     1     1     2   511   502  1.463320186E+02 -8.149470021E+01  2.142736900E+02  2.719699617E+02  2.697398305E-06  0.00000E+00  9.000E+00
#rwgt            1           1   2.6424336009268915E-002           5       33977           0
</event>
<event>
      5   9999  3.19816E-02  1.08989E+02 -1.00000E+00  1.22170E-01
      21    -1     0     0   502   501  0.000000000E+00  0.000000000E+00  1.143323759E+03  1.143323759E+03  0.000000000E+00  0.00000E+00  9.000E+00
      21    -1     0     0   512   502  0.000000000E+00  0.000000000E+00 -5.357314752E+01  5.357314752E+01  0.000000000E+00  0.00000E+00  9.000E+00
      25     1     1     2     0     0 -1.048508437E+02  1.386680746E+02  4.369432651E+02  4.865870438E+02  1.250000000E+02  0.00000E+00  9.000E+00
      25     1     1     2     0     0  1.420888444E+01 -7.814870605E+01  5.075139008E+02  5.286818251E+02  1.250000000E+02  0.00000E+00  9.000E+00
      21     1     1     2   512   501  9.064195926E+01 -6.051936851E+01  1.452934460E+02  1.816280380E+02  2.697398305E-06  0.00000E+00  9.000E+00
#rwgt            2          11   3.2302391729617684E-003           5       34270           0
</event>
<event>
      5   9999  3.19816E-02  1.19320E+01 -1.00000E+00  1.87288E-01
      21    -1     0     0   502   501  0.000000000E+00  0.000000000E+00  2.089757185E+02  2.089757185E+02  0.000000000E+00  0.00000E+00  9.000E+00
      21    -1     0     0   511   502  0.000000000E+00  0.000000000E+00 -5.006009298E+02  5.006009298E+02  0.000000000E+00  0.00000E+00  9.000E+00
      25     1     1     2     0     0  8.825756516E+01  1.978754096E+02  5.815269747E+01  2.568089012E+02  1.250000000E+02  0.00000E+00  9.000E+00
      25     1     1     2     0     0 -8.667682009E+01 -2.097022413E+02 -2.779650226E+02  3.799703342E+02  1.250000000E+02  0.00000E+00  9.000E+00
      21     1     1     2   511   501 -1.580745062E+00  1.182683164E+01 -7.181288621E+01  7.279741291E+01  9.536743164E-07  0.00000E+00  9.000E+00
#rwgt            1           1   2.8498426367246168E-002           5       34290           0
</event>
<event>
      5   9999  3.19816E-02  1.77124E+01 -1.00000E+00  1.70843E-01
       2    -1     0     0   502     0  0.000000000E+00  0.000000000E+00  1.402492431E+03  1.402492431E+03  0.000000000E+00  0.00000E+00  9.000E+00
      21    -1     0     0   501   502  0.000000000E+00  0.000000000E+00 -3.311732724E+02  3.311732724E+02  0.000000000E+00  0.00000E+00  9.000E+00
      25     1     1     2     0     0  1.032821527E+01 -3.400789195E+02  1.231353656E+03  1.283595408E+03  1.250000000E+02  0.00000E+00  9.000E+00
      25     1     1     2     0     0 -2.606790541E+01  3.482024422E+02 -1.888934043E+02  4.162093159E+02  1.250000000E+02  0.00000E+00  9.000E+00
       2     1     1     2   501     0  1.573969014E+01 -8.123522674E+00  2.885890626E+01  3.386097956E+01  4.768371582E-07  0.00000E+00  9.000E+00
#rwgt            1           1   3.0766612605136818E-002           5       34531           0
</event>
<event>
      5   9999  3.19816E-02  4.57472E+01 -1.00000E+00  1.41315E-01
      21    -1     0     0   502   501  0.000000000E+00  0.000000000E+00  7.198911493E+01  7.198911493E+01  0.000000000E+00  0.00000E+00  9.000E+00
      21    -1     0     0   511   502  0.000000000E+00  0.000000000E+00 -1.138544289E+03  1.138544289E+03  0.000000000E+00  0.00000E+00  9.000E+00
      25     1     1     2     0     0 -9.310106687E+01 -3.561998678E+01 -5.374727566E+02  5.607482110E+02  1.250000000E+02  0.00000E+00  9.000E+00
      25     1     1     2     0     0  8.808785668E+01  8.109168916E+01 -6.725499997E+01  1.856975163E+02  1.250000000E+02  0.00000E+00  9.000E+00
      21     1     1     2   511   501  5.013210198E+00 -4.547170237E+01 -4.618274173E+02  4.640876764E+02  0.000000000E+00  0.00000E+00  9.000E+00
#rwgt            2          11   8.4460762573539713E-004           5       34841           0
</event>
<event>
      5   9999  3.19816E-02  6.56148E+01 -1.00000E+00  1.32660E-01
      -2    -1     0     0     0   501  0.000000000E+00  0.000000000E+00  6.893542009E+02  6.893542009E+02  0.000000000E+00  0.00000E+00  9.000E+00
      21    -1     0     0   501   502  0.000000000E+00  0.000000000E+00 -2.304079824E+02  2.304079824E+02  0.000000000E+00  0.00000E+00  9.000E+00
      25     1     1     2     0     0  1.674873395E+02  1.751643850E+02  1.475361930E+02  3.100427372E+02  1.250000000E+02  0.00000E+00  9.000E+00
      25     1     1     2     0     0 -2.330991731E+02 -1.757894098E+02  2.800777832E+01  3.188206028E+02  1.250000000E+02  0.00000E+00  9.000E+00
      -2     1     1     2     0   502  6.561183368E+01  6.250248585E-01  2.834022471E+02  2.908988433E+02  0.000000000E+00  0.00000E+00  9.000E+00
#rwgt            1           1   2.5530181921807366E-002           5       34861           0
</event>
<event>
      5   9999  3.19816E-02  7.73171E+01 -1.00000E+00  1.29071E-01
      21    -1     0     0   502   501  0.000000000E+00  0.000000000E+00  1.677763896E+02  1.677763896E+02  0.000000000E+00  0.00000E+00  9.000E+00
      21    -1     0     0   511   502  0.000000000E+00  0.000000000E+00 -7.862762874E+02  7.862762874E+02  0.000000000E+00  0.00000E+00  9.000E+00
      25     1     1     2     0     0 -7.349162589E+01 -2.362052410E+02 -1.316469574E+02  3.068384858E+02  1.250000000E+02  0.00000E+00  9.000E+00
      25     1     1     2     0     0  9.055056685E+01  3.116169335E+02 -3.771458213E+02  5.129995019E+02  1.250000000E+02  0.00000E+00  9.000E+00
      21     1     1     2   511   501 -1.705894097E+01 -7.541169252E+01 -1.097071191E+02  1.342146893E+02  1.907348633E-06  0.00000E+00  9.000E+00
#rwgt            1           1   2.7556721507116265E-002           5       34930           0
</event>
<event>
      5   9999  3.19816E-02  6.80254E+01 -1.00000E+00  1.31853E-01
      21    -1     0     0   512   501  0.000000000E+00  0.000000000E+00  7.011055078E+02  7.011055078E+02  0.000000000E+00  0.00000E+00  9.000E+00
      21    -1     0     0   501   502  0.000000000E+00  0.000000000E+00 -2.182544436E+02  2.182544436E+02  0.000000000E+00  0.00000E+00  9.000E+00
      25     1     1     2     0     0  2.283855582E+02  1.417987789E+02 -2.025935618E+01  2.971570265E+02  1.250000000E+02  0.00000E+00  9.000E+00
      25     1     1     2     0     0 -2.535847782E+02 -7.861292084E+01  3.657165778E+02  4.688910815E+02  1.250000000E+02  0.00000E+00  9.000E+00
      21     1     1     2   512   502  2.519921996E+01 -6.318585808E+01  1.373938426E+02  1.533118434E+02  1.907348633E-06  0.00000E+00  9.000E+00
#rwgt            1           1   2.8819188859316492E-002           5       34970           0
</event>
<event>
      5   9999  3.19816E-02  6.41299E+01 -1.00000E+00  1.33176E-01
      21    -1     0     0   511   501  0.000000000E+00  0.000000000E+00  9.551479035E+01  9.551479035E+01  0.000000000E+00  0.00000E+00  9.000E+00
      21    -1     0     0   501   502  0.000000000E+00  0.000000000E+00 -1.892063550E+03  1.892063550E+03  0.000000000E+00  0.00000E+00  9.000E+00
      25     1     1     2     0     0 -2.317727273E+02  1.824472151E+02 -7.095215920E+02  7.784930783E+02  1.250000000E+02  0.00000E+00  9.000E+00
      25     1     1     2     0     0  1.888998413E+02 -1.347548712E+02 -1.110078136E+03  1.140938427E+03  1.250000000E+02  0.00000E+00  9.000E+00
      21     1     1     2   511   502  4.287288603E+01 -4.769234392E+01  2.305096842E+01  6.814683536E+01  1.390207266E-06  0.00000E+00  9.000E+00
#rwgt            1           1   2.6658787013586722E-002           5       35044           0
</event>
<event>
      5   9999  3.19816E-02  9.18353E+01 -1.00000E+00  1.25515E-01
      21    -1     0     0   512   501  0.000000000E+00  0.000000000E+00  3.945036094E+02  3.945036094E+02  0.000000000E+00  0.00000E+00  9.000E+00
      21    -1     0     0   501   502  0.000000000E+00  0.000000000E+00 -1.805747454E+03  1.805747454E+03  0.000000000E+00  0.00000E+00  9.000E+00
      25     1     1     2     0     0 -1.048240259E+02 -2.094988491E+02 -1.627575440E+03  1.649092070E+03  1.250000000E+02  0.00000E+00  9.000E+00
      25     1     1     2     0     0  1.822922880E+02  2.588181405E+02  2.789031637E+02  4.400332747E+02  1.250000000E+02  0.00000E+00  9.000E+00
      21     1     1     2   512   502 -7.746826205E+01 -4.931929141E+01 -6.257156881E+01  1.111257187E+02  1.168007728E-06  0.00000E+00  9.000E+00
#rwgt            1           1   3.0277950099473934E-002           5       35106           0
</event>
<event>
      5   9999  3.19816E-02  4.58670E+01 -1.00000E+00  1.41248E-01
      21    -1     0     0   502   501  0.000000000E+00  0.000000000E+00  2.056031659E+01  2.056031659E+01  0.000000000E+00  0.00000E+00  9.000E+00
      21    -1     0     0   511   502  0.000000000E+00  0.000000000E+00 -2.794673039E+03  2.794673039E+03  0.000000000E+00  0.00000E+00  9.000E+00
      25     1     1     2     0     0  2.988211927E+01 -1.744634434E+02 -1.503896476E+03  1.519427538E+03  1.250000000E+02  0.00000E+00  9.000E+00
      25     1     1     2     0     0 -4.820830964E+01  1.324167041E+02 -7.396133261E+02  7.632241458E+02  1.250000000E+02  0.00000E+00  9.000E+00
      21     1     1     2   511   501  1.832619037E+01  4.204673927E+01 -5.306029206E+02  5.325816716E+02  7.629394531E-06  0.00000E+00  9.000E+00
#rwgt            1           1   4.4589493218771994E-002           5       35227           0
</event>
<event>
      5   9999  3.19816E-02  5.69344E+01 -1.00000E+00  1.35932E-01
      21    -1     0     0   502   501  0.000000000E+00  0.000000000E+00  1.583436170E+03  1.583436170E+03  0.000000000E+00  0.00000E+00  9.000E+00
      21    -1     0     0   501   512  0.000000000E+00  0.000000000E+00 -2.453026061E+02  2.453026061E+02  0.000000000E+00  0.00000E+00  9.000E+00
      25     1     1     2     0     0  3.532688688E+01 -2.254994540E+02  1.259000678E+03  1.285614912E+03  1.250000000E+02  0.00000E+00  9.000E+00
      25     1     1     2     0     0 -6.538918322E+01  1.771488251E+02  2.650891587E+02  3.486469756E+02  1.250000000E+02  0.00000E+00  9.000E+00
      21     1     1     2   502   512  3.006229634E+01  4.835062896E+01 -1.859562729E+02  1.944768892E+02  2.697398305E-06  0.00000E+00  9.000E+00
#rwgt            1           1   3.7531564298041262E-002           5       35275           0
</event>
<event>
      5   9999  3.19816E-02  1.27692E+02 -1.00000E+00  1.19234E-01
      21    -1     0     0   502   501  0.000000000E+00  0.000000000E+00  5.837085985E+02  5.837085985E+02  0.000000000E+00  0.00000E+00  9.000E+00
       2    -1     0     0   501     0  0.000000000E+00  0.000000000E+00 -3.875654121E+03  3.875654121E+03  0.000000000E+00  0.00000E+00  9.000E+00
      25     1     1     2     0     0  3.876306246E+02 -9.906176282E+01 -2.256437676E+03  2.295039590E+03  1.250000000E+02  0.00000E+00  9.000E+00
      25     1     1     2     0     0 -4.839638221E+02  1.524601908E+01  4.503589662E+02  6.729796584E+02  1.250000000E+02  0.00000E+00  9.000E+00
       2     1     1     2   502     0  9.633319758E+01  8.381574375E+01 -1.485866813E+03  1.491343471E+03  2.157918644E-05  0.00000E+00  9.000E+00
#rwgt            1           1   7.3520981771713692E-002           5       35359           0
</event>
<event>
      5   9999  3.19816E-02  9.46436E+01 -1.00000E+00  1.24913E-01
      21    -1     0     0   511   501  0.000000000E+00  0.000000000E+00  2.834167540E+03  2.834167540E+03  0.000000000E+00  0.00000E+00  9.000E+00
      21    -1     0     0   501   502  0.000000000E+00  0.000000000E+00 -7.969664712E+01  7.969664712E+01  0.000000000E+00  0.00000E+00  9.000E+00
      25     1     1     2     0     0 -7.616339942E+01  9.922701168E+01  7.166737588E+01  1.908090040E+02  1.250000000E+02  0.00000E+00  9.000E+00
      25     1     1     2     0     0  4.804187167E+01 -8.857841808E+00  2.150774769E+02  2.535148987E+02  1.250000000E+02  0.00000E+00  9.000E+00
      21     1     1     2   511   502  2.812152775E+01 -9.036916987E+01  2.467726040E+03  2.469540284E+03  4.315837288E-05  0.00000E+00  9.000E+00
#rwgt            1           1   3.0504389527536972E-002           5       35447           0
</event>
<event>
      5   9999  3.19816E-02  1.03661E+02 -1.00000E+00  1.23130E-01
      21    -1     0     0   512   501  0.000000000E+00  0.000000000E+00  3.369797637E+02  3.369797637E+02  0.000000000E+00  0.00000E+00  9.000E+00
      21    -1     0     0   501   502  0.000000000E+00  0.000000000E+00 -3.981492540E+02  3.981492540E+02  0.000000000E+00  0.00000E+00  9.000E+00
      25     1     1     2     0     0  4.132694468E+01 -4.279471148E+01 -3.244879713E+02  3.527842785E+02  1.250000000E+02  0.00000E+00  9.000E+00
      25     1     1     2     0     0  5.213826097E+01  8.762505236E+01  2.127964892E+02  2.670278897E+02  1.250000000E+02  0.00000E+00  9.000E+00
      21     1     1     2   512   502 -9.346520565E+01 -4.483034088E+01  5.052199175E+01  1.153168495E+02  1.651812370E-06  0.00000E+00  9.000E+00
#rwgt            1           1   2.7070175806739247E-002           5       35506           0
</event>
<event>
      5   9999  3.19816E-02  1.39355E+01 -1.00000E+00  1.80449E-01
      21    -1     0     0   502   501  0.000000000E+00  0.000000000E+00  3.916309347E+02  3.916309347E+02  0.000000000E+00  0.00000E+00  9.000E+00
      21    -1     0     0   511   502  0.000000000E+00  0.000000000E+00 -3.147531965E+02  3.147531965E+02  0.000000000E+00  0.00000E+00  9.000E+00
      25     1     1     2     0     0 -1.856988617E+02 -9.673589675E+01 -1.889054183E+02  3.084674343E+02  1.250000000E+02  0.00000E+00  9.000E+00
      25     1     1     2     0     0  1.970937821E+02  1.047579836E+02  2.791252562E+02  3.786239595E+02  1.250000000E+02  0.00000E+00  9.000E+00
      21     1     1     2   511   501 -1.139492042E+01 -8.022086816E+00 -1.334209977E+01  1.929273735E+01  3.769728732E-07  0.00000E+00  9.000E+00
#rwgt            1           1   2.8521338469979052E-002           5       35597           0
</event>
<event>
      5   9999  3.19816E-02  5.88265E+02 -1.00000E+00  9.68868E-02
      21    -1     0     0   502   501  0.000000000E+00  0.000000000E+00  1.048210825E+03  1.048210825E+03  0.000000000E+00  0.00000E+00  9.000E+00
       1    -1     0     0   501     0  0.000000000E+00  0.000000000E+00 -1.250789375E+03  1.250789375E+03  0.000000000E+00  0.00000E+00  9.000E+00
      25     1     1     2     0     0  2.250391591E+02  2.432495962E+02  8.100740800E+02  8.841142484E+02  1.250000000E+02  0.00000E+00  9.000E+00
      25     1     1     2     0     0 -1.129298207E+02  3.342335270E+02 -5.557069830E+02  6.700003328E+02  1.250000000E+02  0.00000E+00  9.000E+00
       1     1     1     2   502     0 -1.121093384E+02 -5.774831231E+02 -4.569456463E+02  7.448856187E+02  9.344061824E-06  0.00000E+00  9.000E+00
#rwgt            2          12   3.7907958095703746E-004           5       35849           0
</event>
<event>
      5   9999  3.19816E-02  3.98661E+02 -1.00000E+00  1.01729E-01
      21    -1     0     0   502   501  0.000000000E+00  0.000000000E+00  1.142055435E+03  1.142055435E+03  0.000000000E+00  0.00000E+00  9.000E+00
      21    -1     0     0   511   502  0.000000000E+00  0.000000000E+00 -3.202342725E+03  3.202342725E+03  0.000000000E+00  0.00000E+00  9.000E+00
      25     1     1     2     0     0  4.110941233E+02  1.367953992E+03 -8.206130413E+01  1.436194820E+03  1.250000000E+02  0.00000E+00  9.000E+00
      25     1     1     2     0     0 -2.074199338E+02 -1.710660049E+03 -1.684744758E+03  2.413166122E+03  1.250000000E+02  0.00000E+00  9.000E+00
      21     1     1     2   511   501 -2.036741895E+02  3.427060567E+02 -2.934812279E+02  4.950372186E+02  0.000000000E+00  0.00000E+00  9.000E+00
#rwgt            1           1   1.1794628257953412E-002           5       35883           0
</event>
<event>
      5   9999  3.19816E-02  1.10824E+02 -1.00000E+00  1.21853E-01
      21    -1     0     0   502   512  0.000000000E+00  0.000000000E+00  8.844979207E+02  8.844979207E+02  0.000000000E+00  0.00000E+00  9.000E+00
      21    -1     0     0   501   502  0.000000000E+00  0.000000000E+00 -1.598540229E+02  1.598540229E+02  0.000000000E+00  0.00000E+00  9.000E+00
      25     1     1     2     0     0 -3.068385023E+01 -7.065869819E+01  1.199534593E+02  1.895995324E+02  1.250000000E+02  0.00000E+00  9.000E+00
      25     1     1     2     0     0  6.762674665E+01 -3.382643238E+01 -7.629122098E+01  1.648118770E+02  1.250000000E+02  0.00000E+00  9.000E+00
      21     1     1     2   501   512 -3.694289642E+01  1.044851306E+02  6.809816595E+02  6.899405342E+02  1.078959322E-05  0.00000E+00  9.000E+00
#rwgt            1           1   2.8871373511352244E-002           5       35954           0
</event>
<event>
      5   9999  3.19816E-02  7.86278E+00 -1.00000E+00  2.08658E-01
      21    -1     0     0   502   511  0.000000000E+00  0.000000000E+00  2.761564870E+02  2.761564870E+02  0.000000000E+00  0.00000E+00  9.000E+00
      21    -1     0     0   501   502  0.000000000E+00  0.000000000E+00 -1.136618175E+03  1.136618175E+03  0.000000000E+00  0.00000E+00  9.000E+00
      25     1     1     2     0     0  3.506375338E+02  3.849149020E+02 -2.696407554E+02  5.995308990E+02  1.250000000E+02  0.00000E+00  9.000E+00
      25     1     1     2     0     0 -3.427801788E+02 -3.852070177E+02 -6.001427482E+02  8.010486974E+02  1.250000000E+02  0.00000E+00  9.000E+00
      21     1     1     2   501   511 -7.857354981E+00  2.921156146E-01  9.321816010E+00  1.219506509E+01  2.384185791E-07  0.00000E+00  9.000E+00
#rwgt            1           1   3.3016929839636847E-002           5       35996           0
</event>
<event>
      5   9999  3.19816E-02  3.87916E+01 -1.00000E+00  1.45671E-01
      21    -1     0     0   502   512  0.000000000E+00  0.000000000E+00  4.799219769E+02  4.799219769E+02  0.000000000E+00  0.00000E+00  9.000E+00
      21    -1     0     0   501   502  0.000000000E+00  0.000000000E+00 -7.127611294E+02  7.127611294E+02  0.000000000E+00  0.00000E+00  9.000E+00
      25     1     1     2     0     0 -6.019880908E+01 -2.803201855E+02 -2.592402496E+02  4.062435353E+02  1.250000000E+02  0.00000E+00  9.000E+00
      25     1     1     2     0     0  4.266825877E+01  2.457157388E+02 -3.276206758E+02  4.302988634E+02  1.250000000E+02  0.00000E+00  9.000E+00
      21     1     1     2   501   512  1.753055031E+01  3.460444672E+01  3.540217728E+02  3.561407075E+02  5.394796609E-06  0.00000E+00  9.000E+00
#rwgt            1           1   2.7552269540995718E-002           5       36288           0
</event>
<event>
      5   9999  3.19816E-02  2.51886E+01 -1.00000E+00  1.58507E-01
      21    -1     0     0   502   501  0.000000000E+00  0.000000000E+00  4.506093787E+02  4.506093787E+02  0.000000000E+00  0.00000E+00  9.000E+00
       2    -1     0     0   501     0  0.000000000E+00  0.000000000E+00 -8.444588587E+02  8.444588587E+02  0.000000000E+00  0.00000E+00  9.000E+00
      25     1     1     2     0     0  2.479758714E+02  1.556040225E+02 -7.540785033E+01  3.271329829E+02  1.250000000E+02  0.00000E+00  9.000E+00
      25     1     1     2     0     0 -2.230814249E+02 -1.594423079E+02  2.545005012E+02  3.944396998E+02  1.250000000E+02  0.00000E+00  9.000E+00
       2     1     1     2   502     0 -2.489444650E+01  3.838285430E+00 -5.729421308E+02  5.734955546E+02  7.629394531E-06  0.00000E+00  9.000E+00
#rwgt            1           1   2.8423829228321925E-002           5       36436           0
</event>
<event>
      5   9999  3.19816E-02  1.37792E+01 -1.00000E+00  1.80929E-01
      21    -1     0     0   511   501  0.000000000E+00  0.000000000E+00  2.093157073E+02  2.093157073E+02  0.000000000E+00  0.00000E+00  9.000E+00
      21    -1     0     0   501   502  0.000000000E+00  0.000000000E+00 -3.356793492E+02  3.356793492E+02  0.000000000E+00  0.00000E+00  9.000E+00
      25     1     1     2     0     0  1.745410062E+01  5.871270774E+01  6.300236512E+01  1.527943902E+02  1.250000000E+02  0.00000E+00  9.000E+00
      25     1     1     2     0     0 -2.089539823E+01 -4.537019804E+01 -2.746218107E+02  3.058385382E+02  1.250000000E+02  0.00000E+00  9.000E+00
      21     1     1     2   511   502  3.441297606E+00 -1.334250970E+01  8.525580365E+01  8.636212799E+01  1.348699152E-06  0.00000E+00  9.000E+00
#rwgt            1           1   2.8269895907012552E-002           5       36577           0
</event>
<event>
      5   9999  3.19816E-02  1.40527E+02 -1.00000E+00  1.17528E-01
      21    -1     0     0   502   512  0.000000000E+00  0.000000000E+00  1.076394132E+02  1.076394132E+02  0.000000000E+00  0.00000E+00  9.000E+00
      21    -1     0     0   501   502  0.000000000E+00  0.000000000E+00 -2.772207268E+03  2.772207268E+03  0.000000000E+00  0.00000E+00  9.000E+00
      25     1     1     2     0     0 -2.355603615E+02  1.624194696E+02 -1.923502292E+03  1.948680281E+03  1.250000000E+02  0.00000E+00  9.000E+00
      25     1     1     2     0     0  3.472119670E+02 -7.708693026E+01 -6.809069055E+02  7.783044126E+02  1.250000000E+02  0.00000E+00  9.000E+00
      21     1     1     2   501   512 -1.116516055E+02 -8.533253934E+01 -6.015865695E+01  1.528619877E+02  5.179777380E-06  0.00000E+00  9.000E+00
#rwgt            2          11   8.7471392696937510E-003           5       36952           0
</event>
<event>
      5   9999  3.19816E-02  2.41545E+02 -1.00000E+00  1.08743E-01
       1    -1     0     0   502     0  0.000000000E+00  0.000000000E+00  5.519943256E+02  5.519943256E+02  0.000000000E+00  0.00000E+00  9.000E+00
      21    -1     0     0   501   502  0.000000000E+00  0.000000000E+00 -4.131045388E+02  4.131045388E+02  0.000000000E+00  0.00000E+00  9.000E+00
      25     1     1     2     0     0  2.165783055E+02  2.195220288E+01 -2.672522411E+02  3.666562722E+02  1.250000000E+02  0.00000E+00  9.000E+00
      25     1     1     2     0     0  1.881424408E+01 -7.612050003E+01  2.869168970E+01  1.503213869E+02  1.250000000E+02  0.00000E+00  9.000E+00
       1     1     1     2   501     0 -2.353925496E+02  5.416829714E+01  3.774503382E+02  4.481212053E+02  5.394796609E-06  0.00000E+00  9.000E+00
#rwgt            1           1   2.7032669888824849E-002           5       36972           0
</event>
<event>
      5   9999  3.19816E-02  7.45518E+01 -1.00000E+00  1.29850E-01
      21    -1     0     0   502   501  0.000000000E+00  0.000000000E+00  3.100766953E+03  3.100766953E+03  0.000000000E+00  0.00000E+00  9.000E+00
      21    -1     0     0   501   511  0.000000000E+00  0.000000000E+00 -2.282184640E+02  2.282184640E+02  0.000000000E+00  0.00000E+00  9.000E+00
      25     1     1     2     0     0  3.120277195E+02 -8.433792896E+01  2.792381804E+01  3.476764640E+02  1.250000000E+02  0.00000E+00  9.000E+00
      25     1     1     2     0     0 -2.404469009E+02  6.350159524E+01  2.883724515E+03  2.897126032E+03  1.250000000E+02  0.00000E+00  9.000E+00
      21     1     1     2   502   511 -7.158081854E+01  2.083633371E+01 -3.909984428E+01  8.418292112E+01  2.567846683E-06  0.00000E+00  9.000E+00
#rwgt            1           1   4.6582349295195231E-002           5       37020           0
</event>
<event>
      5   9999  3.19816E-02  9.45626E+01 -1.00000E+00  1.24930E-01
      21    -1     0     0   502   512  0.000000000E+00  0.000000000E+00  5.490965572E+02  5.490965572E+02  0.000000000E+00  0.00000E+00  9.000E+00
      21    -1     0     0   501   502  0.000000000E+00  0.000000000E+00 -1.338849387E+03  1.338849387E+03  0.000000000E+00  0.00000E+00  9.000E+00
      25     1     1     2     0     0  3.801698713E+02 -3.050234614E+02 -8.891496573E+02  1.021655791E+03  1.250000000E+02  0.00000E+00  9.000E+00
      25     1     1     2     0     0 -4.742533122E+02  2.955162381E+02 -1.563986588E+02  5.935752620E+02  1.250000000E+02  0.00000E+00  9.000E+00
      21     1     1     2   501   512  9.408344096E+01  9.507223288E+00  2.557954860E+02  2.727148911E+02  3.814697266E-06  0.00000E+00  9.000E+00
#rwgt            1           1   3.4949564620466021E-002           5       37145           0
</event>
<event>
      5   9999  3.19816E-02  2.47998E+01 -1.00000E+00  1.59013E-01
      21    -1     0     0   502   501  0.000000000E+00  0.000000000E+00  3.725950883E+03  3.725950883E+03  0.000000000E+00  0.00000E+00  9.000E+00
      21    -1     0     0   511   502  0.000000000E+00  0.000000000E+00 -1.719657332E+02  1.719657332E+02  0.000000000E+00  0.00000E+00  9.000E+00
      25     1     1     2     0     0 -4.061378445E+02 -4.128664895E+02  2.930358616E+03  2.989654379E+03  1.250000000E+02  0.00000E+00  9.000E+00
      25     1     1     2     0     0  4.071545488E+02  3.880875333E+02  6.523020152E+02  8.703503198E+02  1.250000000E+02  0.00000E+00  9.000E+00
      21     1     1     2   511   501 -1.016704256E+00  2.477895614E+01 -2.867548066E+01  3.791191826E+01  7.539457465E-07  0.00000E+00  9.000E+00
#rwgt            1           1   2.6281380819571480E-002           5       37221           0
</event>
<event>
      5   9999  3.19816E-02  8.39337E+01 -1.00000E+00  1.27349E-01
      21    -1     0     0   512   501  0.000000000E+00  0.000000000E+00  1.467957613E+03  1.467957613E+03  0.000000000E+00  0.00000E+00  9.000E+00
      21    -1     0     0   501   502  0.000000000E+00  0.000000000E+00 -1.623234526E+02  1.623234526E+02  0.000000000E+00  0.00000E+00  9.000E+00
      25     1     1     2     0     0 -2.413114213E+02 -6.511228221E+01  2.626802805E+01  2.806881199E+02  1.250000000E+02  0.00000E+00  9.000E+00
      25     1     1     2     0     0  2.917969949E+02  1.321649858E+02  9.746426738E+02  1.033521365E+03  1.250000000E+02  0.00000E+00  9.000E+00
      21     1     1     2   512   502 -5.048557359E+01 -6.705270358E+01  3.047234583E+02  3.160715809E+02  0.000000000E+00  0.00000E+00  9.000E+00
#rwgt            1           1   3.6311358577432173E-002           5       37375           0
</event>
<event>
      5   9999  3.19816E-02  1.80111E+01 -1.00000E+00  1.70212E-01
      21    -1     0     0   502   501  0.000000000E+00  0.000000000E+00  1.366577082E+02  1.366577082E+02  0.000000000E+00  0.00000E+00  9.000E+00
      21    -1     0     0   511   502  0.000000000E+00  0.000000000E+00 -2.713898886E+02  2.713898886E+02  0.000000000E+00  0.00000E+00  9.000E+00
      25     1     1     2     0     0 -9.140003227E+01  3.989806165E+01 -1.556177185E+01  1.606642150E+02  1.250000000E+02  0.00000E+00  9.000E+00
      25     1     1     2     0     0  1.090032456E+02 -3.608684102E+01 -5.152370237E+01  1.773799863E+02  1.250000000E+02  0.00000E+00  9.000E+00
      21     1     1     2   511   501 -1.760321334E+01 -3.811220621E+00 -6.764670623E+01  7.000339553E+01  9.536743164E-07  0.00000E+00  9.000E+00
#rwgt            1           1   2.8254008051158245E-002           5       37459           0
</event>
<event>
      5   9999  3.19816E-02  3.27421E+01 -1.00000E+00  1.50447E-01
      21    -1     0     0   502   501  0.000000000E+00  0.000000000E+00  4.496805421E+01  4.496805421E+01  0.000000000E+00  0.00000E+00  9.000E+00
      21    -1     0     0   501   512  0.000000000E+00  0.000000000E+00 -9.303303116E+02  9.303303116E+02  0.000000000E+00  0.00000E+00  9.000E+00
      25     1     1     2     0     0  3.334689888E+01  1.062699667E+02 -4.408999502E+02  4.716175225E+02  1.250000000E+02  0.00000E+00  9.000E+00
      25     1     1     2     0     0 -6.450436206E+01 -1.163327498E+02 -2.683269129E+02  3.245280475E+02  1.250000000E+02  0.00000E+00  9.000E+00
      21     1     1     2   502   512  3.115746318E+01  1.006278315E+01 -1.761353943E+02  1.791527958E+02  0.000000000E+00  0.00000E+00  9.000E+00
#rwgt            1           1   2.4927173470212022E-002           5       37571           0
</event>
<event>
      5   9999  3.19816E-02  1.23611E+02 -1.00000E+00  1.19824E-01
      21    -1     0     0   502   501  0.000000000E+00  0.000000000E+00  3.973783720E+02  3.973783720E+02  0.000000000E+00  0.00000E+00  9.000E+00
      21    -1     0     0   501   511  0.000000000E+00  0.000000000E+00 -4.255594683E+02  4.255594683E+02  0.000000000E+00  0.00000E+00  9.000E+00
      25     1     1     2     0     0  8.890375256E+00 -3.262036508E+02 -1.434423259E+02  3.777413949E+02  1.250000000E+02  0.00000E+00  9.000E+00
      25     1     1     2     0     0 -9.528670908E+01  2.377996210E+02  1.424036432E+02  3.186408861E+02  1.250000000E+02  0.00000E+00  9.000E+00
      21     1     1     2   502   511  8.639633382E+01  8.840402982E+01 -2.714241365E+01  1.265555594E+02  1.719260824E-06  0.00000E+00  9.000E+00
#rwgt            1           1   2.8442833743640105E-002           5       37613           0
</event>
<event>
      5   9999  3.19816E-02  3.26552E+01 -1.00000E+00  1.50525E-01
      21    -1     0     0   502   501  0.000000000E+00  0.000000000E+00  4.308017976E+02  4.308017976E+02  0.000000000E+00  0.00000E+00  9.000E+00
      21    -1     0     0   512   502  0.000000000E+00  0.000000000E+00 -4.483037852E+02  4.483037852E+02  0.000000000E+00  0.00000E+00  9.000E+00
      25     1     1     2     0     0 -2.870167866E+02 -1.740300490E+02  1.811826351E+02  4.013941218E+02  1.250000000E+02  0.00000E+00  9.000E+00
      25     1     1     2     0     0  3.182339998E+02  1.836137439E+02 -1.438497552E+02  4.138896443E+02  1.250000000E+02  0.00000E+00  9.000E+00
      21     1     1     2   512   501 -3.121721325E+01 -9.583694860E+00 -5.483486738E+01  6.382181673E+01  0.000000000E+00  0.00000E+00  9.000E+00
#rwgt            1           1   2.8501483833396277E-002           5       37647           0
</event>
<event>
      5   9999  3.19816E-02  1.31806E+02 -1.00000E+00  1.18664E-01
       1    -1     0     0   502     0  0.000000000E+00  0.000000000E+00  2.104107693E+03  2.104107693E+03  0.000000000E+00  0.00000E+00  9.000E+00
      21    -1     0     0   501   502  0.000000000E+00  0.000000000E+00 -1.228163757E+02  1.228163757E+02  0.000000000E+00  0.00000E+00  9.000E+00
      25     1     1     2     0     0 -1.311883597E+02 -1.259337184E+02  3.826204699E+02  4.416934583E+02  1.250000000E+02  0.00000E+00  9.000E+00
      25     1     1     2     0     0  2.438374495E+02  5.750138419E+01  1.266010140E+02  3.072717489E+02  1.250000000E+02  0.00000E+00  9.000E+00
       1     1     1     2   501     0 -1.126490898E+02  6.843233417E+01  1.472069833E+03  1.477958861E+03  2.157918644E-05  0.00000E+00  9.000E+00
#rwgt            2          17   6.1927484873604657E-004           5       37870           0
</event>
<event>
      5   9999  3.19816E-02  1.87427E+01 -1.00000E+00  1.68730E-01
      21    -1     0     0   502   501  0.000000000E+00  0.000000000E+00  3.145349606E+02  3.145349606E+02  0.000000000E+00  0.00000E+00  9.000E+00
      21    -1     0     0   501   511  0.000000000E+00  0.000000000E+00 -1.974638088E+02  1.974638088E+02  0.000000000E+00  0.00000E+00  9.000E+00
      25     1     1     2     0     0  7.137293673E+01 -1.095502656E+02  2.084775643E+01  1.820851058E+02  1.250000000E+02  0.00000E+00  9.000E+00
      25     1     1     2     0     0 -7.961786509E+01  1.263820452E+02  1.670820774E+02  2.566180944E+02  1.250000000E+02  0.00000E+00  9.000E+00
      21     1     1     2   502   511  8.244928366E+00 -1.683177959E+01 -7.085868206E+01  7.329556925E+01  9.536743164E-07  0.00000E+00  9.000E+00
#rwgt            1           1   2.6757050447035646E-002           5       37919           0
</event>
<event>
      5   9999  3.19816E-02  7.46236E+01 -1.00000E+00  1.29829E-01
      21    -1     0     0   502   501  0.000000000E+00  0.000000000E+00  2.553477362E+02  2.553477362E+02  0.000000000E+00  0.00000E+00  9.000E+00
      21    -1     0     0   512   502  0.000000000E+00  0.000000000E+00 -1.527966236E+03  1.527966236E+03  0.000000000E+00  0.00000E+00  9.000E+00
      25     1     1     2     0     0 -3.824456720E+02 -3.542545031E+02 -3.708462880E+02  6.518534454E+02  1.250000000E+02  0.00000E+00  9.000E+00
      25     1     1     2     0     0  4.266517764E+02  4.143752601E+02 -8.213049001E+02  1.021716856E+03  1.250000000E+02  0.00000E+00  9.000E+00
      21     1     1     2   512   501 -4.420610439E+01 -6.012075702E+01 -8.046731218E+01  1.097436714E+02  2.132480600E-06  0.00000E+00  9.000E+00
#rwgt            1           1   3.1789305458988303E-002           5       38065           0
</event>
<event>
      5   9999  3.19816E-02  6.77687E+01 -1.00000E+00  1.31937E-01
      21    -1     0     0   502   501  0.000000000E+00  0.000000000E+00  5.787364487E+02  5.787364487E+02  0.000000000E+00  0.00000E+00  9.000E+00
      21    -1     0     0   511   502  0.000000000E+00  0.000000000E+00 -6.040543334E+02  6.040543334E+02  0.000000000E+00  0.00000E+00  9.000E+00
      25     1     1     2     0     0 -8.408102784E+01  3.774823833E+02 -3.322511831E+02  5.249556339E+02  1.250000000E+02  0.00000E+00  9.000E+00
      25     1     1     2     0     0  1.506760606E+02 -3.649245421E+02  3.772390834E+02  5.601852575E+02  1.250000000E+02  0.00000E+00  9.000E+00
      21     1     1     2   511   501 -6.659503278E+01 -1.255784115E+01 -7.030578488E+01  9.764989070E+01  0.000000000E+00  0.00000E+00  9.000E+00
#rwgt            2          11   4.3456985002769165E-003           5       38170           0
</event>
<event>
      5   9999  3.19816E-02  1.41292E+02 -1.00000E+00  1.17432E-01
       2    -1     0     0   502     0  0.000000000E+00  0.000000000E+00  9.348662887E+02  9.348662887E+02  0.000000000E+00  0.00000E+00  9.000E+00
      21    -1     0     0   501   502  0.000000000E+00  0.000000000E+00 -1.974499870E+02  1.974499870E+02  0.000000000E+00  0.00000E+00  9.000E+00
      25     1     1     2     0     0 -6.353358294E+01 -1.150464356E+02  2.771456059E+02  3.312202973E+02  1.250000000E+02  0.00000E+00  9.000E+00
      25     1     1     2     0     0 -7.508402566E+01  1.424086607E+02 -9.733381381E+01  2.258687868E+02  1.250000000E+02  0.00000E+00  9.000E+00
       2     1     1     2   501     0  1.386176086E+02 -2.736222513E+01  5.576045096E+02  5.752271916E+02  7.629394531E-06  0.00000E+00  9.000E+00
#rwgt            2          18   7.5071060536226121E-004           5       38250           0
</event>
<event>
      5   9999  3.19816E-02  1.33880E+02 -1.00000E+00  1.18385E-01
      21    -1     0     0   502   501  0.000000000E+00  0.000000000E+00  7.184133204E+02  7.184133204E+02  0.000000000E+00  0.00000E+00  9.000E+00
      21    -1     0     0   501   511  0.000000000E+00  0.000000000E+00 -9.371290764E+02  9.371290764E+02  0.000000000E+00  0.00000E+00  9.000E+00
      25     1     1     2     0     0 -2.068303659E+02 -4.523534541E+02  4.192434172E+02  6.624141382E+02  1.250000000E+02  0.00000E+00  9.000E+00
      25     1     1     2     0     0  2.230376112E+02  3.194580321E+02 -7.692743767E+01  4.163436573E+02  1.250000000E+02  0.00000E+00  9.000E+00
      21     1     1     2   502   511 -1.620724524E+01  1.328954220E+02 -5.610317356E+02  5.767846013E+02  1.321449896E-05  0.00000E+00  9.000E+00
#rwgt            1           1   2.9565726274248472E-002           5       38269           0
</event>
<event>
      5   9999  3.19816E-02  9.16020E+01 -1.00000E+00  1.25566E-01
      21    -1     0     0   502   501  0.000000000E+00  0.000000000E+00  6.564121815E+02  6.564121815E+02  0.000000000E+00  0.00000E+00  9.000E+00
       1    -1     0     0   501     0  0.000000000E+00  0.000000000E+00 -1.815428302E+03  1.815428302E+03  0.000000000E+00  0.00000E+00  9.000E+00
      25     1     1     2     0     0  3.196805104E+01  7.776166389E+01  5.736571194E+02  5.931073455E+02  1.250000000E+02  0.00000E+00  9.000E+00
      25     1     1     2     0     0 -4.434921944E+01  1.299977315E+01  1.000893260E+01  1.336451499E+02  1.250000000E+02  0.00000E+00  9.000E+00
       1     1     1     2   502     0  1.238116840E+01 -9.076143704E+01 -1.742682172E+03  1.745087988E+03  3.051757812E-05  0.00000E+00  9.000E+00
#rwgt            1           1   3.0068068908259082E-002           5       38351           0
</event>
<event>
      5   9999  3.19816E-02  1.48752E+02 -1.00000E+00  1.16538E-01
      21    -1     0     0   502   511  0.000000000E+00  0.000000000E+00  4.535046714E+02  4.535046714E+02  0.000000000E+00  0.00000E+00  9.000E+00
      21    -1     0     0   501   502  0.000000000E+00  0.000000000E+00 -5.850262208E+02  5.850262208E+02  0.000000000E+00  0.00000E+00  9.000E+00
      25     1     1     2     0     0 -1.924987283E+02  8.834477653E+01 -9.805455235E+01  2.647645278E+02  1.250000000E+02  0.00000E+00  9.000E+00
      25     1     1     2     0     0  3.405165651E+02 -7.358314244E+01 -2.947229102E+02  4.731306413E+02  1.250000000E+02  0.00000E+00  9.000E+00
      21     1     1     2   501   511 -1.480178369E+02 -1.476163408E+01  2.612559131E+02  3.006357231E+02  3.814697266E-06  0.00000E+00  9.000E+00
#rwgt            1           1   2.5139443722716145E-002           5       38437           0
</event>
<event>
      5   9999  3.19816E-02  4.21792E+01 -1.00000E+00  1.43426E-01
      21    -1     0     0   502   501  0.000000000E+00  0.000000000E+00  4.512810353E+02  4.512810353E+02  0.000000000E+00  0.00000E+00  9.000E+00
      21    -1     0     0   512   502  0.000000000E+00  0.000000000E+00 -2.732575442E+02  2.732575442E+02  0.000000000E+00  0.00000E+00  9.000E+00
      25     1     1     2     0     0 -2.192941993E+02  1.328575590E+02  2.461185344E+02  3.767497973E+02  1.250000000E+02  0.00000E+00  9.000E+00
      25     1     1     2     0     0  2.482008636E+02 -1.021413411E+02 -4.433516281E+01  2.993779032E+02  1.250000000E+02  0.00000E+00  9.000E+00
      21     1     1     2   512   501 -2.890666432E+01 -3.071621794E+01 -2.375988042E+01  4.841087899E+01  1.011524364E-06  0.00000E+00  9.000E+00
#rwgt            1           1   2.5183046139852162E-002           5       38497           0
</event>
<event>
      5   9999  3.19816E-02  1.01425E+02 -1.00000E+00  1.23552E-01
      21    -1     0     0   511   501  0.000000000E+00  0.000000000E+00  3.318605243E+02  3.318605243E+02  0.000000000E+00  0.00000E+00  9.000E+00
      21    -1     0     0   501   502  0.000000000E+00  0.000000000E+00 -1.652739878E+02  1.652739878E+02  0.000000000E+00  0.00000E+00  9.000E+00
      25     1     1     2     0     0  2.366412059E+01  6.910299968E+01 -2.726671821E+01  1.473217197E+02  1.250000000E+02  0.00000E+00  9.000E+00
      25     1     1     2     0     0  7.636118516E+01 -8.589427223E+01  5.627096718E+01  1.788862162E+02  1.250000000E+02  0.00000E+00  9.000E+00
      21     1     1     2   511   502 -1.000253057E+02  1.679127254E+01  1.375822876E+02  1.709265763E+02  2.697398305E-06  0.00000E+00  9.000E+00
#rwgt            1           1   5.5405177027207493E-002           5       38641           0
</event>
<event>
      5   9999  3.19816E-02  3.61356E+01 -1.00000E+00  1.47631E-01
      21    -1     0     0   512   501  0.000000000E+00  0.000000000E+00  4.186230638E+02  4.186230638E+02  0.000000000E+00  0.00000E+00  9.000E+00
      21    -1     0     0   501   502  0.000000000E+00  0.000000000E+00 -8.161622387E+02  8.161622387E+02  0.000000000E+00  0.00000E+00  9.000E+00
      25     1     1     2     0     0  1.731741502E+01  1.918850452E+02 -7.550972155E+02  7.892506372E+02  1.250000000E+02  0.00000E+00  9.000E+00
      25     1     1     2     0     0  1.434952089E+01 -1.744786305E+02  3.463232772E+02  4.076929158E+02  1.250000000E+02  0.00000E+00  9.000E+00
      21     1     1     2   512   502 -3.166693591E+01 -1.740641470E+01  1.123476343E+01  3.784174959E+01  7.444617746E-07  0.00000E+00  9.000E+00
#rwgt            1           1   1.9145898919852924E-002           5       38694           0
</event>
<event>
      5   9999  3.19816E-02  1.67789E+02 -1.00000E+00  1.14497E-01
      21    -1     0     0   502   501  0.000000000E+00  0.000000000E+00  5.551669851E+02  5.551669851E+02  0.000000000E+00  0.00000E+00  9.000E+00
      21    -1     0     0   511   502  0.000000000E+00  0.000000000E+00 -4.788887082E+02  4.788887082E+02  0.000000000E+00  0.00000E+00  9.000E+00
      25     1     1     2     0     0  3.492132553E+02 -6.494483283E+01 -1.182236922E+02  3.946765389E+02  1.250000000E+02  0.00000E+00  9.000E+00
      25     1     1     2     0     0 -2.746593293E+02 -8.537054652E+01  3.058076993E+02  4.380287963E+02  1.250000000E+02  0.00000E+00  9.000E+00
      21     1     1     2   511   501 -7.455392601E+01  1.503153793E+02 -1.113057302E+02  2.013503582E+02  2.336015456E-06  0.00000E+00  9.000E+00
#rwgt            1           1   3.1560407235288974E-002           5       38833           0
</event>
<event>
      5   9999  3.19816E-02  6.32981E+01 -1.00000E+00  1.33473E-01
      21    -1     0     0   512   501  0.000000000E+00  0.000000000E+00  8.111190489E+02  8.111190489E+02  0.000000000E+00  0.00000E+00  9.000E+00
      21    -1     0     0   501   502  0.000000000E+00  0.000000000E+00 -8.812884749E+02  8.812884749E+02  0.000000000E+00  0.00000E+00  9.000E+00
      25     1     1     2     0     0  2.799618249E+02 -2.237432365E+02 -6.781173357E+02  7.771150367E+02  1.250000000E+02  0.00000E+00  9.000E+00
      25     1     1     2     0     0 -2.938947428E+02  1.619975781E+02  5.927677916E+01  3.629821920E+02  1.250000000E+02  0.00000E+00  9.000E+00
      21     1     1     2   512   502  1.393291792E+01  6.174565846E+01  5.486711305E+02  5.523102950E+02  7.629394531E-06  0.00000E+00  9.000E+00
#rwgt            1           1   2.8786686357124780E-002           5       38915           0
</event>
<event>
      5   9999  3.19816E-02  1.96474E+02 -1.00000E+00  1.11930E-01
      21    -1     0     0   502   501  0.000000000E+00  0.000000000E+00  9.205957370E+02  9.205957370E+02  0.000000000E+00  0.00000E+00  9.000E+00
      21    -1     0     0   501   511  0.000000000E+00  0.000000000E+00 -5.487882432E+02  5.487882432E+02  0.000000000E+00  0.00000E+00  9.000E+00
      25     1     1     2     0     0 -5.869268114E+02 -1.448023749E+01  5.547365465E+02  8.173434989E+02  1.250000000E+02  0.00000E+00  9.000E+00
      25     1     1     2     0     0  3.905159821E+02  9.479907339E+00 -4.634119920E+01  4.127530831E+02  1.250000000E+02  0.00000E+00  9.000E+00
      21     1     1     2   502   511  1.964108293E+02  5.000330147E+00 -1.365878536E+02  2.392873982E+02  1.907348633E-06  0.00000E+00  9.000E+00
#rwgt            1           1   3.0352270531054132E-002           5       39005           0
</event>
<event>
      5   9999  3.19816E-02  4.97612E+01 -1.00000E+00  1.39194E-01
      21    -1     0     0   512   501  0.000000000E+00  0.000000000E+00  7.338619688E+02  7.338619688E+02  0.000000000E+00  0.00000E+00  9.000E+00
      21    -1     0     0   501   502  0.000000000E+00  0.000000000E+00 -6.974087089E+02  6.974087089E+02  0.000000000E+00  0.00000E+00  9.000E+00
      25     1     1     2     0     0 -3.930553635E+02 -5.645978720E+01  3.719994513E+02  5.582909798E+02  1.250000000E+02  0.00000E+00  9.000E+00
      25     1     1     2     0     0  4.343360825E+02  8.424606171E+01 -5.128904065E+02  6.887864695E+02  1.250000000E+02  0.00000E+00  9.000E+00
      21     1     1     2   512   502 -4.128071905E+01 -2.778627451E+01  1.773442150E+02  1.841932284E+02  0.000000000E+00  0.00000E+00  9.000E+00
#rwgt            1           1   2.4688693528260541E-002           5       39061           0
</event>
<event>
      5   9999  3.19816E-02  4.98539E+01 -1.00000E+00  1.39148E-01
      21    -1     0     0   511   501  0.000000000E+00  0.000000000E+00  5.225551112E+02  5.225551112E+02  0.000000000E+00  0.00000E+00  9.000E+00
      21    -1     0     0   501   502  0.000000000E+00  0.000000000E+00 -1.404921239E+02  1.404921239E+02  0.000000000E+00  0.00000E+00  9.000E+00
      25     1     1     2     0     0  1.532094003E+02  1.290428862E+02  1.646334554E+02  2.878443354E+02  1.250000000E+02  0.00000E+00  9.000E+00
      25     1     1     2     0     0 -1.369098829E+02 -1.761569436E+02  1.769636442E+02  3.109931127E+02  1.250000000E+02  0.00000E+00  9.000E+00
      21     1     1     2   511   502 -1.629951742E+01  4.711405742E+01  4.046588764E+01  6.420978692E+01  9.536743164E-07  0.00000E+00  9.000E+00
#rwgt            1           1   2.7466289075001947E-002           5       39227           0
</event>
<event>
      5   9999  3.19816E-02  1.37893E+01 -1.00000E+00  1.80897E-01
      21    -1     0     0   502   512  0.000000000E+00  0.000000000E+00  2.805306805E+03  2.805306805E+03  0.000000000E+00  0.00000E+00  9.000E+00
      21    -1     0     0   501   502  0.000000000E+00  0.000000000E+00 -2.067700937E+02  2.067700937E+02  0.000000000E+00  0.00000E+00  9.000E+00
      25     1     1     2     0     0 -5.843998464E+02  2.702340065E+02  1.216431065E+03  1.381983768E+03  1.250000000E+02  0.00000E+00  9.000E+00
      25     1     1     2     0     0  5.925126195E+02 -2.590837882E+02  7.512959294E+02  9.991327175E+02  1.250000000E+02  0.00000E+00  9.000E+00
      21     1     1     2   501   512 -8.112773150E+00 -1.115021829E+01  6.308097168E+02  6.309604134E+02  1.078959322E-05  0.00000E+00  9.000E+00
#rwgt            1           1   2.8609452777220407E-002           5       39328           0
</event>
<event>
      5   9999  3.19816E-02  2.98520E+01 -1.00000E+00  1.53189E-01
      21    -1     0     0   502   501  0.000000000E+00  0.000000000E+00  3.307794752E+02  3.307794752E+02  0.000000000E+00  0.00000E+00  9.000E+00
      21    -1     0     0   501   511  0.000000000E+00  0.000000000E+00 -2.189750233E+03  2.189750233E+03  0.000000000E+00  0.00000E+00  9.000E+00
      25     1     1     2     0     0  3.806330954E+02 -2.421221763E+02 -1.215852315E+03  1.302853236E+03  1.250000000E+02  0.00000E+00  9.000E+00
      25     1     1     2     0     0 -3.542418222E+02  2.281707825E+02  1.187087017E+02  4.552646817E+02  1.250000000E+02  0.00000E+00  9.000E+00
      21     1     1     2   502   511 -2.639127319E+01  1.395139378E+01 -7.618271443E+02  7.624117906E+02  0.000000000E+00  0.00000E+00  9.000E+00
#rwgt            1           1   3.1815240322002697E-002           5       39535           0
</event>
<event>
      5   9999  3.19816E-02  9.81591E+01 -1.00000E+00  1.24192E-01
      21    -1     0     0   502   512  0.000000000E+00  0.000000000E+00  9.104295270E+02  9.104295270E+02  0.000000000E+00  0.00000E+00  9.000E+00
      21    -1     0     0   501   502  0.000000000E+00  0.000000000E+00 -4.879906306E+02  4.879906306E+02  0.000000000E+00  0.00000E+00  9.000E+00
      25     1     1     2     0     0  4.164597205E+02  2.962880675E+02 -2.048337715E+02  5.646301371E+02  1.250000000E+02  0.00000E+00  9.000E+00
      25     1     1     2     0     0 -3.302354786E+02 -2.493776647E+02  4.118958924E+02  5.970995873E+02  1.250000000E+02  0.00000E+00  9.000E+00
      21     1     1     2   501   512 -8.622424196E+01 -4.691040273E+01  2.153767754E+02  2.366904332E+02  2.697398305E-06  0.00000E+00  9.000E+00
#rwgt            1           1   3.2522458310630130E-002           5       39703           0
</event>
<event>
      5   9999  3.19816E-02  4.47530E+01 -1.00000E+00  1.41880E-01
      21    -1     0     0   502   501  0.000000000E+00  0.000000000E+00  3.942659898E+02  3.942659898E+02  0.000000000E+00  0.00000E+00  9.000E+00
      21    -1     0     0   511   502  0.000000000E+00  0.000000000E+00 -1.925529234E+02  1.925529234E+02  0.000000000E+00  0.00000E+00  9.000E+00
      25     1     1     2     0     0  1.271491927E+02  6.527989375E+01  2.978430661E+02  3.532192998E+02  1.250000000E+02  0.00000E+00  9.000E+00
      25     1     1     2     0     0 -1.075077030E+02 -2.506746791E+01 -8.632469328E+01  1.877850815E+02  1.250000000E+02  0.00000E+00  9.000E+00
      21     1     1     2   511   501 -1.964148966E+01 -4.021242584E+01 -9.805306440E+00  4.581453200E+01  2.920019320E-07  0.00000E+00  9.000E+00
#rwgt            1           1   2.9095084849318342E-002           5       39781           0
</event>
<event>
      5   9999  3.19816E-02  2.62818E+01 -1.00000E+00  1.57141E-01
      21    -1     0     0   502   512  0.000000000E+00  0.000000000E+00  3.516888816E+02  3.516888816E+02  0.000000000E+00  0.00000E+00  9.000E+00
      21    -1     0     0   501   502  0.000000000E+00  0.000000000E+00 -1.380351864E+03  1.380351864E+03  0.000000000E+00  0.00000E+00  9.000E+00
      25     1     1     2     0     0  1.231233755E+01  3.869371165E+02  1.663311965E+02  4.395031203E+02  1.250000000E+02  0.00000E+00  9.000E+00
      25     1     1     2     0     0 -2.523926023E+01 -4.098199926E+02 -1.190972148E+03  1.265949882E+03  1.250000000E+02  0.00000E+00  9.000E+00
      21     1     1     2   501   512  1.292692268E+01  2.288287607E+01 -4.022030559E+00  2.658774299E+01  2.980232239E-07  0.00000E+00  9.000E+00
#rwgt            1           1   2.5803186875038533E-002           5       39897           0
</event>
<event>
      5   9999  3.19816E-02  1.83329E+01 -1.00000E+00  1.69549E-01
      21    -1     0     0   502   511  0.000000000E+00  0.000000000E+00  5.188556616E+02  5.188556616E+02  0.000000000E+00  0.00000E+00  9.000E+00
      21    -1     0     0   501   502  0.000000000E+00  0.000000000E+00 -4.606833569E+02  4.606833569E+02  0.000000000E+00  0.00000E+00  9.000E+00
      25     1     1     2     0     0 -2.015543216E+02  6.803220409E+01  3.513300050E+02  4.293137521E+02  1.250000000E+02  0.00000E+00  9.000E+00
      25     1     1     2     0     0  2.014857464E+02 -8.636495744E+01 -3.829289840E+02  4.586011542E+02  1.250000000E+02  0.00000E+00  9.000E+00
      21     1     1     2   501   511  6.857521554E-02  1.833275335E+01  8.977128372E+01  9.162411215E+01  9.536743164E-07  0.00000E+00  9.000E+00
#rwgt            1           1   2.5741195245772803E-002           5       40069           0
</event>
<event>
      5   9999  3.19816E-02  2.99430E+01 -1.00000E+00  1.53097E-01
      21    -1     0     0   502   501  0.000000000E+00  0.000000000E+00  3.964323758E+02  3.964323758E+02  0.000000000E+00  0.00000E+00  9.000E+00
      21    -1     0     0   501   512  0.000000000E+00  0.000000000E+00 -2.857361533E+02  2.857361533E+02  0.000000000E+00  0.00000E+00  9.000E+00
      25     1     1     2     0     0 -6.723891440E+01  1.926722827E+01 -4.199874728E+01  1.492688597E+02  1.250000000E+02  0.00000E+00  9.000E+00
      25     1     1     2     0     0  8.929582617E+01 -3.951760064E+01  3.230722680E+02  3.599112053E+02  1.250000000E+02  0.00000E+00  9.000E+00
      21     1     1     2   502   512 -2.205691177E+01  2.025037237E+01 -1.703772983E+02  1.729884641E+02  2.697398305E-06  0.00000E+00  9.000E+00
#rwgt            1           1   3.0150111821961301E-002           5       40165           0
</event>
<event>
      5   9999  3.19816E-02  4.93488E+01 -1.00000E+00  1.39401E-01
      21    -1     0     0   502   511  0.000000000E+00  0.000000000E+00  4.786338119E+02  4.786338119E+02  0.000000000E+00  0.00000E+00  9.000E+00
      21    -1     0     0   501   502  0.000000000E+00  0.000000000E+00 -5.380077469E+02  5.380077469E+02  0.000000000E+00  0.00000E+00  9.000E+00
      25     1     1     2     0     0  1.264817026E+02 -3.555922500E+02 -6.638008165E+01  4.030816103E+02  1.250000000E+02  0.00000E+00  9.000E+00
      25     1     1     2     0     0 -8.605923343E+01  3.272845302E+02 -1.919010016E+02  4.086225028E+02  1.250000000E+02  0.00000E+00  9.000E+00
      21     1     1     2   501   511 -4.042246912E+01  2.830771977E+01  1.989071482E+02  2.049374457E+02  2.697398305E-06  0.00000E+00  9.000E+00
#rwgt            1           1   2.9799141889466790E-002           5       40241           0
</event>
<event>
      5   9999  3.19816E-02  1.27484E+01 -1.00000E+00  1.84307E-01
      21    -1     0     0   502   512  0.000000000E+00  0.000000000E+00  2.307706846E+02  2.307706846E+02  0.000000000E+00  0.00000E+00  9.000E+00
      21    -1     0     0   501   502  0.000000000E+00  0.000000000E+00 -4.611919971E+02  4.611919971E+02  0.000000000E+00  0.00000E+00  9.000E+00
      25     1     1     2     0     0 -1.470559933E+02  2.256032681E+02 -2.346524856E+02  3.784297673E+02  1.250000000E+02  0.00000E+00  9.000E+00
      25     1     1     2     0     0  1.364319284E+02 -2.326496437E+02 -5.788750358E+00  2.973180745E+02  1.250000000E+02  0.00000E+00  9.000E+00
      21     1     1     2   501   512  1.062406497E+01  7.046375596E+00  1.001992352E+01  1.621483990E+01  2.920019320E-07  0.00000E+00  9.000E+00
#rwgt            1           1   2.7699997725181419E-002           5       40350           0
</event>
<event>
      5   9999  3.19816E-02  5.19542E+01 -1.00000E+00  1.38132E-01
      21    -1     0     0   502   501  0.000000000E+00  0.000000000E+00  3.956802940E+02  3.956802940E+02  0.000000000E+00  0.00000E+00  9.000E+00
      21    -1     0     0   501   511  0.000000000E+00  0.000000000E+00 -1.428474081E+02  1.428474081E+02  0.000000000E+00  0.00000E+00  9.000E+00
      25     1     1     2     0     0 -1.273170451E+02  1.875496368E+00  2.047063024E+02  2.715562883E+02  1.250000000E+02  0.00000E+00  9.000E+00
      25     1     1     2     0     0  1.611541975E+02  3.754895823E+01  2.121303304E+01  2.084600499E+02  1.250000000E+02  0.00000E+00  9.000E+00
      21     1     1     2   502   511 -3.383715242E+01 -3.942445460E+01  2.691355048E+01  5.851136389E+01  5.840038640E-07  0.00000E+00  9.000E+00
#rwgt            1           1   2.6355253244342267E-002           5       40636           0
</event>
<event>
      5   9999  3.19816E-02  3.11998E+01 -1.00000E+00  1.51866E-01
      21    -1     0     0   502   512  0.000000000E+00  0.000000000E+00  2.727828925E+02  2.727828925E+02  0.000000000E+00  0.00000E+00  9.000E+00
      21    -1     0     0   501   502  0.000000000E+00  0.000000000E+00 -2.455368045E+02  2.455368045E+02  0.000000000E+00  0.00000E+00  9.000E+00
      25     1     1     2     0     0  1.310720360E+02  1.411656078E+02 -1.931404063E+01  2.304466091E+02  1.250000000E+02  0.00000E+00  9.000E+00
      25     1     1     2     0     0 -1.258328909E+02 -1.719223364E+02  2.167354751E+01  2.479636038E+02  1.250000000E+02  0.00000E+00  9.000E+00
      21     1     1     2   501   512 -5.239145186E+00  3.075672856E+01  2.488658113E+01  3.990948402E+01  6.743495762E-07  0.00000E+00  9.000E+00
#rwgt            1           1   2.9711696889244271E-002           5       40720           0
</event>
<event>
      5   9999  3.19816E-02  1.68322E+02 -1.00000E+00  1.14444E-01
      21    -1     0     0   502   501  0.000000000E+00  0.000000000E+00  2.434026789E+02  2.434026789E+02  0.000000000E+00  0.00000E+00  9.000E+00
      21    -1     0     0   501   511  0.000000000E+00  0.000000000E+00 -5.311087150E+02  5.311087150E+02  0.000000000E+00  0.00000E+00  9.000E+00
      25     1     1     2     0     0  1.117263623E+02  1.920309860E+02 -2.106695511E+02  3.307043081E+02  1.250000000E+02  0.00000E+00  9.000E+00
      25     1     1     2     0     0  5.305533268E+01 -1.576904834E+02  7.076450407E+01  2.198039397E+02  1.250000000E+02  0.00000E+00  9.000E+00
      21     1     1     2   502   511 -1.647816950E+02 -3.434050267E+01 -1.478009890E+02  2.240031462E+02  1.907348633E-06  0.00000E+00  9.000E+00
#rwgt            1           1   2.8679050209359513E-002           5       40816           0
</event>
<event>
      5   9999  3.19816E-02  6.65712E+01 -1.00000E+00  1.32335E-01
      21    -1     0     0   512   501  0.000000000E+00  0.000000000E+00  1.708243149E+02  1.708243149E+02  0.000000000E+00  0.00000E+00  9.000E+00
      21    -1     0     0   501   502  0.000000000E+00  0.000000000E+00 -1.995895126E+03  1.995895126E+03  0.000000000E+00  0.00000E+00  9.000E+00
      25     1     1     2     0     0 -3.694921506E+02 -1.496295332E+02 -5.037690883E+02  6.544629409E+02  1.250000000E+02  0.00000E+00  9.000E+00
      25     1     1     2     0     0  3.031695002E+02  1.553768953E+02 -1.377897551E+03  1.424879078E+03  1.250000000E+02  0.00000E+00  9.000E+00
      21     1     1     2   512   502  6.632265045E+01 -5.747362151E+00  5.659582822E+01  8.737742218E+01  2.132480600E-06  0.00000E+00  9.000E+00
#rwgt            2          11   3.4555405471155994E-003           5       40906           0
</event>
<event>
      5   9999  3.19816E-02  7.07700E+01 -1.00000E+00  1.30981E-01
      21    -1     0     0   502   511  0.000000000E+00  0.000000000E+00  1.749749951E+02  1.749749951E+02  0.000000000E+00  0.00000E+00  9.000E+00
      21    -1     0     0   501   502  0.000000000E+00  0.000000000E+00 -5.180788698E+02  5.180788698E+02  0.000000000E+00  0.00000E+00  9.000E+00
      25     1     1     2     0     0 -1.379698861E+02  1.642826875E+02 -1.856912550E+02  3.100495655E+02  1.250000000E+02  0.00000E+00  9.000E+00
      25     1     1     2     0     0  1.997008580E+02 -1.296751176E+02 -1.586274292E+02  3.122238461E+02  1.250000000E+02  0.00000E+00  9.000E+00
      21     1     1     2   501   511 -6.173097187E+01 -3.460756996E+01  1.214809514E+00  7.078045316E+01  7.151005000E-07  0.00000E+00  9.000E+00
#rwgt            1           1   2.4403612034221138E-002           5       41001           0
</event>
<event>
      5   9999  3.19816E-02  1.67815E+01 -1.00000E+00  1.72912E-01
      21    -1     0     0   502   512  0.000000000E+00  0.000000000E+00  1.409831018E+03  1.409831018E+03  0.000000000E+00  0.00000E+00  9.000E+00
      21    -1     0     0   501   502  0.000000000E+00  0.000000000E+00 -2.204657877E+02  2.204657877E+02  0.000000000E+00  0.00000E+00  9.000E+00
      25     1     1     2     0     0 -1.850630094E+02 -2.908134710E+02 -6.666863360E+00  3.667291091E+02  1.250000000E+02  0.00000E+00  9.000E+00
      25     1     1     2     0     0  1.818966544E+02  3.072935856E+02  1.040813623E+03  1.107444689E+03  1.250000000E+02  0.00000E+00  9.000E+00
      21     1     1     2   501   512  3.166354938E+00 -1.648011459E+01  1.552184703E+02  1.561230076E+02  1.907348633E-06  0.00000E+00  9.000E+00
#rwgt            1           1   2.5187486614105293E-002           5       41057           0
</event>
<event>
      5   9999  3.19816E-02  9.58102E+01 -1.00000E+00  1.24670E-01
      21    -1     0     0   502   511  0.000000000E+00  0.000000000E+00  4.882257629E+02  4.882257629E+02  0.000000000E+00  0.00000E+00  9.000E+00
      21    -1     0     0   501   502  0.000000000E+00  0.000000000E+00 -7.170392645E+02  7.170392645E+02  0.000000000E+00  0.00000E+00  9.000E+00
      25     1     1     2     0     0  1.962665217E+02  4.556406041E+02 -1.617946373E+02  5.365924080E+02  1.250000000E+02  0.00000E+00  9.000E+00
      25     1     1     2     0     0 -2.919826294E+02 -4.598846111E+02 -9.912673552E+01  5.676255994E+02  1.250000000E+02  0.00000E+00  9.000E+00
      21     1     1     2   501   511  9.571610765E+01  4.244007014E+00  3.210787119E+01  1.010470200E+02  2.236564522E-06  0.00000E+00  9.000E+00
#rwgt            1           1   3.0848552728507127E-002           5       41275           0
</event>
<event>
      5   9999  3.19816E-02  2.89365E+02 -1.00000E+00  1.06104E-01
      21    -1     0     0   512   501  0.000000000E+00  0.000000000E+00  5.287842456E+02  5.287842456E+02  0.000000000E+00  0.00000E+00  9.000E+00
      21    -1     0     0   501   502  0.000000000E+00  0.000000000E+00 -8.865323779E+02  8.865323779E+02  0.000000000E+00  0.00000E+00  9.000E+00
      25     1     1     2     0     0  5.835536532E+00  2.317920269E+02 -8.117283339E+01  2.756367648E+02  1.250000000E+02  0.00000E+00  9.000E+00
      25     1     1     2     0     0 -2.901055244E+02 -2.858551603E+02 -5.804862167E+02  7.200441902E+02  1.250000000E+02  0.00000E+00  9.000E+00
      21     1     1     2   512   502  2.842699879E+02  5.406313343E+01  3.039109178E+02  4.196356686E+02  1.009274029E-05  0.00000E+00  9.000E+00
#rwgt            1           1   2.8942767770017318E-002           5       41375           0
</event>
<event>
      5   9999  3.19816E-02  1.40311E+02 -1.00000E+00  1.17555E-01
      21    -1     0     0   502   501  0.000000000E+00  0.000000000E+00  8.536575447E+01  8.536575447E+01  0.000000000E+00  0.00000E+00  9.000E+00
      21    -1     0     0   511   502  0.000000000E+00  0.000000000E+00 -1.722206697E+03  1.722206697E+03  0.000000000E+00  0.00000E+00  9.000E+00
      25     1     1     2     0     0 -7.935412524E+01  1.379974663E+02 -1.365364908E+02  2.441466592E+02  1.250000000E+02  0.00000E+00  9.000E+00
      25     1     1     2     0     0  2.192304934E+02 -1.490303969E+02 -1.131245471E+03  1.168594619E+03  1.250000000E+02  0.00000E+00  9.000E+00
      21     1     1     2   511   501 -1.398763681E+02  1.103293062E+01 -3.690589805E+02  3.948311728E+02  0.000000000E+00  0.00000E+00  9.000E+00
#rwgt            1           1   3.1999886413515172E-002           5       41425           0
</event>
<event>
      5   9999  3.19816E-02  1.02907E+02 -1.00000E+00  1.23271E-01
      21    -1     0     0   512   501  0.000000000E+00  0.000000000E+00  1.111967284E+03  1.111967284E+03  0.000000000E+00  0.00000E+00  9.000E+00
      21    -1     0     0   501   502  0.000000000E+00  0.000000000E+00 -2.409783155E+02  2.409783155E+02  0.000000000E+00  0.00000E+00  9.000E+00
      25     1     1     2     0     0 -3.981676468E+02  2.024044031E+02  1.483214069E+02  4.869591945E+02  1.250000000E+02  0.00000E+00  9.000E+00
      25     1     1     2     0     0  2.957728756E+02 -1.921502773E+02  5.720098196E+02  6.835375313E+02  1.250000000E+02  0.00000E+00  9.000E+00
      21     1     1     2   512   502  1.023947712E+02 -1.025412583E+01  1.506577423E+02  1.824488739E+02  2.697398305E-06  0.00000E+00  9.000E+00
#rwgt            1           1   3.0135801255471974E-002           5       41500           0
</event>
<event>
      5   9999  3.19816E-02  3.17018E+01 -1.00000E+00  1.51394E-01
      21    -1     0     0   502   511  0.000000000E+00  0.000000000E+00  1.394843951E+03  1.394843951E+03  0.000000000E+00  0.00000E+00  9.000E+00
      21    -1     0     0   501   502  0.000000000E+00  0.000000000E+00 -1.653843891E+02  1.653843891E+02  0.000000000E+00  0.00000E+00  9.000E+00
      25     1     1     2     0     0  5.347437423E+01 -1.408610592E+02  1.267498654E+03  1.282528435E+03  1.250000000E+02  0.00000E+00  9.000E+00
      25     1     1     2     0     0 -7.851808514E+01  1.214235083E+02 -9.429066487E+01  2.131302127E+02  1.250000000E+02  0.00000E+00  9.000E+00
      21     1     1     2   501   511  2.504371092E+01  1.943755085E+01  5.625157280E+01  6.456969322E+01  1.348699152E-06  0.00000E+00  9.000E+00
#rwgt            1           1   2.8201126022456752E-002           5       41597           0
</event>
<event>
      5   9999  3.19816E-02  3.00999E+01 -1.00000E+00  1.52940E-01
      21    -1     0     0   502   501  0.000000000E+00  0.000000000E+00  9.617015106E+02  9.617015106E+02  0.000000000E+00  0.00000E+00  9.000E+00
      21    -1     0     0   501   512  0.000000000E+00  0.000000000E+00 -5.856569968E+01  5.856569968E+01  0.000000000E+00  0.00000E+00  9.000E+00
      25     1     1     2     0     0  1.514891303E+02 -1.242381111E+02  4.924253529E+02  5.445105996E+02  1.250000000E+02  0.00000E+00  9.000E+00
      25     1     1     2     0     0 -1.285471088E+02  1.047529909E+02  3.781403973E+02  4.314078214E+02  1.250000000E+02  0.00000E+00  9.000E+00
      21     1     1     2   502   512 -2.294202149E+01  1.948512025E+01  3.257006070E+01  4.434878933E+01  6.743495762E-07  0.00000E+00  9.000E+00
#rwgt            1           1   2.8215517341487747E-002           5       41771           0
</event>
<event>
      5   9999  3.19816E-02  2.90397E+01 -1.00000E+00  1.54028E-01
      21    -1     0     0   511   501  0.000000000E+00  0.000000000E+00  2.140128042E+02  2.140128042E+02  0.000000000E+00  0.00000E+00  9.000E+00
      21    -1     0     0   501   502  0.000000000E+00  0.000000000E+00 -1.040577707E+03  1.040577707E+03  0.000000000E+00  0.00000E+00  9.000E+00
      25     1     1     2     0     0 -1.962074740E+02  1.997301155E+02 -3.249934706E+02  4.468056040E+02  1.250000000E+02  0.00000E+00  9.000E+00
      25     1     1     2     0     0  2.019768531E+02 -1.712692532E+02 -6.200911827E+02  6.857593464E+02  1.250000000E+02  0.00000E+00  9.000E+00
      21     1     1     2   511   502 -5.769379120E+00 -2.846086222E+01  1.185197501E+02  1.220255611E+02  4.473129043E-06  0.00000E+00  9.000E+00
#rwgt            1           1   1.0358758497420238E-002           5       41861           0
</event>
<event>
      5   9999  3.19816E-02  1.50911E+02 -1.00000E+00  1.16290E-01
      21    -1     0     0   512   501  0.000000000E+00  0.000000000E+00  2.865437871E+02  2.865437871E+02  0.000000000E+00  0.00000E+00  9.000E+00
      21    -1     0     0   501   502  0.000000000E+00  0.000000000E+00 -1.221952744E+03  1.221952744E+03  0.000000000E+00  0.00000E+00  9.000E+00
      25     1     1     2     0     0 -2.966898344E+02 -2.225064791E+02 -6.858403397E+02  7.896429336E+02  1.250000000E+02  0.00000E+00  9.000E+00
      25     1     1     2     0     0  3.469755531E+02  3.647926993E+02 -2.271253674E+02  5.662832157E+02  1.250000000E+02  0.00000E+00  9.000E+00
      21     1     1     2   512   502 -5.028571870E+01 -1.422862202E+02 -2.244324988E+01  1.525703818E+02  2.172096629E-06  0.00000E+00  9.000E+00
#rwgt            1           1   2.3959068326227122E-002           5       42028           0
</event>
<event>
      5   9999  3.19816E-02  1.46467E+02 -1.00000E+00  1.16805E-01
      21    -1     0     0   502   501  0.000000000E+00  0.000000000E+00  2.141151916E+03  2.141151916E+03  0.000000000E+00  0.00000E+00  9.000E+00
      21    -1     0     0   511   502  0.000000000E+00  0.000000000E+00 -1.153751867E+02  1.153751867E+02  0.000000000E+00  0.00000E+00  9.000E+00
      25     1     1     2     0     0  1.501653019E+02  2.200443252E+02  1.476594784E+03  1.505631522E+03  1.250000000E+02  0.00000E+00  9.000E+00
      25     1     1     2     0     0 -7.105131429E+00 -2.514524995E+02  5.343444794E+02  6.036786107E+02  1.250000000E+02  0.00000E+00  9.000E+00
      21     1     1     2   511   501 -1.430601705E+02  3.140817430E+01  1.483746531E+01  1.472169697E+02  3.903080355E-06  0.00000E+00  9.000E+00
#rwgt            1           1   3.1678879512895934E-002           5       42091           0
</event>
<event>
      5   9999  3.19816E-02  6.22686E+01 -1.00000E+00  1.33848E-01
      21    -1     0     0   502   512  0.000000000E+00  0.000000000E+00  3.988393913E+02  3.988393913E+02  0.000000000E+00  0.00000E+00  9.000E+00
      21    -1     0     0   501   502  0.000000000E+00  0.000000000E+00 -1.158808218E+02  1.158808218E+02  0.000000000E+00  0.00000E+00  9.000E+00
      25     1     1     2     0     0  6.004655211E+01 -1.678215296E+01  2.592683516E+02  2.945034927E+02  1.250000000E+02  0.00000E+00  9.000E+00
      25     1     1     2     0     0  1.560400122E+00  7.728960152E+00 -3.966972107E+01  1.313805862E+02  1.250000000E+02  0.00000E+00  9.000E+00
      21     1     1     2   501   512 -6.160695223E+01  9.053192812E+00  6.335993892E+01  8.883613411E+01  0.000000000E+00  0.00000E+00  9.000E+00
#rwgt            1           1   2.9718943708039465E-002           5       42137           0
</event>
<event>
      5   9999  3.19816E-02  7.37679E+01 -1.00000E+00  1.30078E-01
      21    -1     0     0   502   501  0.000000000E+00  0.000000000E+00  1.817483728E+03  1.817483728E+03  0.000000000E+00  0.00000E+00  9.000E+00
      21    -1     0     0   511   502  0.000000000E+00  0.000000000E+00 -4.439413309E+02  4.439413309E+02  0.000000000E+00  0.00000E+00  9.000E+00
      25     1     1     2     0     0 -5.516147086E+02 -1.926074944E+02  7.835458608E+02  9.853656933E+02  1.250000000E+02  0.00000E+00  9.000E+00
      25     1     1     2     0     0  5.276876985E+02  1.228278673E+02  8.444828903E+02  1.011097099E+03  1.250000000E+02  0.00000E+00  9.000E+00
      21     1     1     2   511   501  2.392701017E+01  6.977962710E+01 -2.544863541E+02  2.649622663E+02  8.946258087E-06  0.00000E+00  9.000E+00
#rwgt            1           1   2.7244693748996109E-002           5       42175           0
</event>
<event>
      5   9999  3.19816E-02  2.11436E+02 -1.00000E+00  1.10776E-01
      21    -1     0     0   502   512  0.000000000E+00  0.000000000E+00  1.967002885E+03  1.967002885E+03  0.000000000E+00  0.00000E+00  9.000E+00
      21    -1     0     0   501   502  0.000000000E+00  0.000000000E+00 -3.018406493E+02  3.018406493E+02  0.000000000E+00  0.00000E+00  9.000E+00
      25     1     1     2     0     0 -3.214852942E+02  5.743584081E+01  9.577347820E+02  1.019574707E+03  1.250000000E+02  0.00000E+00  9.000E+00
      25     1     1     2     0     0  4.296263472E+02 -2.391247296E+02 -3.731103739E+00  5.073444152E+02  1.250000000E+02  0.00000E+00  9.000E+00
      21     1     1     2   501   512 -1.081410530E+02  1.816888888E+02  7.111585577E+02  7.419244125E+02  1.078959322E-05  0.00000E+00  9.000E+00
#rwgt            1           1   2.9402499086897137E-002           5       42319           0
</event>
<event>
      5   9999  3.19816E-02  2.55193E+01 -1.00000E+00  1.58085E-01
      21    -1     0     0   502   501  0.000000000E+00  0.000000000E+00  3.922601746E+02  3.922601746E+02  0.000000000E+00  0.00000E+00  9.000E+00
       1    -1     0     0   501     0  0.000000000E+00  0.000000000E+00 -1.478404618E+02  1.478404618E+02  0.000000000E+00  0.00000E+00  9.000E+00
      25     1     1     2     0     0  8.144144788E+01 -1.081317919E+00  2.840849748E+02  3.208787179E+02  1.250000000E+02  0.00000E+00  9.000E+00
      25     1     1     2     0     0 -6.086479029E+01  1.617548856E+01 -8.745596094E+01  1.650445826E+02  1.250000000E+02  0.00000E+00  9.000E+00
       1     1     1     2   502     0 -2.057665759E+01 -1.509417064E+01  4.779069896E+01  5.417733596E+01  0.000000000E+00  0.00000E+00  9.000E+00
#rwgt            1           1   2.7843666821662505E-002           5       42401           0
</event>
<event>
      5   9999  3.55124E-02  1.27836E+02 -1.00000E+00  1.19214E-01
      21    -1     0     0   502   501  0.000000000E+00  0.000000000E+00  1.690978175E+03  1.690978175E+03  0.000000000E+00  0.00000E+00  9.000E+00
      21    -1     0     0   501   511  0.000000000E+00  0.000000000E+00 -9.293050282E+02  9.293050282E+02  0.000000000E+00  0.00000E+00  9.000E+00
      25     1     1     2     0     0  4.868554977E+01 -1.708110522E+02  8.562136103E+01  2.334581671E+02  1.250000000E+02  0.00000E+00  9.000E+00
      25     1     1     2     0     0 -1.702754997E+02  1.313403178E+02  1.516473141E+03  1.536736741E+03  1.250000000E+02  0.00000E+00  9.000E+00
      21     1     1     2   502   511  1.215899499E+02  3.947073442E+01 -8.404213551E+02  8.500882948E+02  0.000000000E+00  0.00000E+00  9.000E+00
#rwgt            1           1   3.2429067355948318E-002           5       42528           0
</event>
<event>
      5   9999  3.19816E-02  5.29044E+01 -1.00000E+00  1.37691E-01
       2    -1     0     0   502     0  0.000000000E+00  0.000000000E+00  3.183653142E+02  3.183653142E+02  0.000000000E+00  0.00000E+00  9.000E+00
      21    -1     0     0   501   502  0.000000000E+00  0.000000000E+00 -4.495347546E+02  4.495347546E+02  0.000000000E+00  0.00000E+00  9.000E+00
      25     1     1     2     0     0 -4.843847657E+01  1.120942694E+01 -3.033919099E+01  1.379036032E+02  1.250000000E+02  0.00000E+00  9.000E+00
      25     1     1     2     0     0  7.064283124E+01 -5.922856188E+01 -3.459586932E+02  3.792240097E+02  1.250000000E+02  0.00000E+00  9.000E+00
       2     1     1     2   501     0 -2.220435467E+01  4.801913493E+01  2.451284438E+02  2.507724559E+02  5.394796609E-06  0.00000E+00  9.000E+00
#rwgt            1           1   2.9499598644099949E-002           5       42585           0
</event>
<event>
      5   9999  3.19816E-02  8.13447E+01 -1.00000E+00  1.28000E-01
      21    -1     0     0   502   501  0.000000000E+00  0.000000000E+00  7.591469491E+02  7.591469491E+02  0.000000000E+00  0.00000E+00  9.000E+00
      21    -1     0     0   501   511  0.000000000E+00  0.000000000E+00 -3.700462236E+02  3.700462236E+02  0.000000000E+00  0.00000E+00  9.000E+00
      25     1     1     2     0     0 -3.367074250E+02  7.051237361E+01 -4.248353619E+01  3.684748780E+02  1.250000000E+02  0.00000E+00  9.000E+00
      25     1     1     2     0     0  4.097650237E+02 -3.474160836E+01  4.964627754E+02  6.566693547E+02  1.250000000E+02  0.00000E+00  9.000E+00
      21     1     1     2   502   511 -7.305759871E+01 -3.577076525E+01 -6.487851371E+01  1.040489400E+02  2.523185073E-06  0.00000E+00  9.000E+00
#rwgt            1           1   3.3233670065075549E-002           5       42654           0
</event>
<event>
      5   9999  3.19816E-02  1.30337E+02 -1.00000E+00  1.18864E-01
      21    -1     0     0   502   501  0.000000000E+00  0.000000000E+00  7.475986517E+02  7.475986517E+02  0.000000000E+00  0.00000E+00  9.000E+00
      21    -1     0     0   501   512  0.000000000E+00  0.000000000E+00 -5.916588630E+02  5.916588630E+02  0.000000000E+00  0.00000E+00  9.000E+00
      25     1     1     2     0     0 -1.946847846E+02 -4.118310107E+02 -3.326975212E+02  5.777712240E+02  1.250000000E+02  0.00000E+00  9.000E+00
      25     1     1     2     0     0  1.831234348E+02  2.820075743E+02  5.158660254E+02  6.283352772E+02  1.250000000E+02  0.00000E+00  9.000E+00
      21     1     1     2   502   512  1.156134985E+01  1.298234364E+02 -2.722871563E+01  1.331510135E+02  1.348699152E-06  0.00000E+00  9.000E+00
#rwgt            1           1   2.6538927098627325E-002           5       42764           0
</event>
<event>
      5   9999  3.19816E-02  5.51001E+02 -1.00000E+00  9.76683E-02
       2    -1     0     0   502     0  0.000000000E+00  0.000000000E+00  3.227997446E+03  3.227997446E+03  0.000000000E+00  0.00000E+00  9.000E+00
      21    -1     0     0   501   502  0.000000000E+00  0.000000000E+00 -7.566216391E+02  7.566216391E+02  0.000000000E+00  0.00000E+00  9.000E+00
      25     1     1     2     0     0 -5.712774945E+02  1.661811254E+02 -2.876238772E+02  6.725523302E+02  1.250000000E+02  0.00000E+00  9.000E+00
      25     1     1     2     0     0  1.061970556E+03  8.446184379E+01  9.915561155E+02  1.460727146E+03  1.250000000E+02  0.00000E+00  9.000E+00
       2     1     1     2   501     0 -4.906930616E+02 -2.506429692E+02  1.767443568E+03  1.851339608E+03  2.157918644E-05  0.00000E+00  9.000E+00
#rwgt            1           1   4.3215143334694506E-002           5       42850           0
</event>
<event>
      5   9999  3.19816E-02  2.26199E+01 -1.00000E+00  1.62076E-01
      21    -1     0     0   502   501  0.000000000E+00  0.000000000E+00  9.764791699E+02  9.764791699E+02  0.000000000E+00  0.00000E+00  9.000E+00
      21    -1     0     0   511   502  0.000000000E+00  0.000000000E+00 -2.833032608E+02  2.833032608E+02  0.000000000E+00  0.00000E+00  9.000E+00
      25     1     1     2     0     0  3.139214408E+02  1.172049959E+02  7.953998613E+02  8.721064278E+02  1.250000000E+02  0.00000E+00  9.000E+00
      25     1     1     2     0     0 -2.919224083E+02 -1.224682638E+02 -6.867731694E+01  3.472156995E+02  1.250000000E+02  0.00000E+00  9.000E+00
      21     1     1     2   511   501 -2.199903246E+01  5.263267913E+00 -3.354663529E+01  4.046030348E+01  9.536743164E-07  0.00000E+00  9.000E+00
#rwgt            1           1   3.0446750491201727E-002           5       42949           0
</event>
<event>
      5   9999  3.19816E-02  2.00119E+01 -1.00000E+00  1.66348E-01
      21    -1     0     0   502   512  0.000000000E+00  0.000000000E+00  9.935103921E+01  9.935103921E+01  0.000000000E+00  0.00000E+00  9.000E+00
      21    -1     0     0   501   502  0.000000000E+00  0.000000000E+00 -2.172746548E+03  2.172746548E+03  0.000000000E+00  0.00000E+00  9.000E+00
      25     1     1     2     0     0 -1.493278354E+02 -3.520489234E+02 -5.698260581E+02  6.975413847E+02  1.250000000E+02  0.00000E+00  9.000E+00
      25     1     1     2     0     0  1.692713038E+02  3.503959837E+02 -1.499407086E+03  1.554116060E+03  1.250000000E+02  0.00000E+00  9.000E+00
      21     1     1     2   501   512 -1.994346838E+01  1.652939731E+00 -4.162365059E+00  2.044014246E+01  5.092623082E-07  0.00000E+00  9.000E+00
#rwgt            1           1   2.8853120555860003E-002           5       43202           0
</event>
<event>
      5   9999  3.19816E-02  9.04869E+01 -1.00000E+00  1.25813E-01
      21    -1     0     0   502   511  0.000000000E+00  0.000000000E+00  9.827956442E+01  9.827956442E+01  0.000000000E+00  0.00000E+00  9.000E+00
      21    -1     0     0   501   502  0.000000000E+00  0.000000000E+00 -2.045280975E+03  2.045280975E+03  0.000000000E+00  0.00000E+00  9.000E+00
      25     1     1     2     0     0 -3.225599354E+02 -1.808526841E+01 -1.313449282E+03  1.358361515E+03  1.250000000E+02  0.00000E+00  9.000E+00
      25     1     1     2     0     0  2.944595959E+02 -6.792786271E+01 -6.093065101E+02  6.915201164E+02  1.250000000E+02  0.00000E+00  9.000E+00
      21     1     1     2   501   511  2.810033951E+01  8.601313112E+01 -2.424561853E+01  9.367890810E+01  2.311553887E-06  0.00000E+00  9.000E+00
#rwgt            1           1   3.0538520747539342E-002           5       43406           0
</event>
<event>
      5   9999  3.19816E-02  1.36737E+02 -1.00000E+00  1.18010E-01
      21    -1     0     0   502   501  0.000000000E+00  0.000000000E+00  5.561473389E+02  5.561473389E+02  0.000000000E+00  0.00000E+00  9.000E+00
       2    -1     0     0   501     0  0.000000000E+00  0.000000000E+00 -2.198584960E+03  2.198584960E+03  0.000000000E+00  0.00000E+00  9.000E+00
      25     1     1     2     0     0  3.818738001E+02 -6.504569406E+02  7.121780598E+01  7.678663990E+02  1.250000000E+02  0.00000E+00  9.000E+00
      25     1     1     2     0     0 -5.152065280E+02  6.201336291E+02 -1.170606200E+03  1.426866273E+03  1.250000000E+02  0.00000E+00  9.000E+00
       2     1     1     2   502     0  1.333327279E+02  3.032331152E+01 -5.430492267E+02  5.599996269E+02  1.321449896E-05  0.00000E+00  9.000E+00
#rwgt            1           1   2.6598761351357331E-002           5       43503           0
</event>
<event>
      5   9999  3.19816E-02  1.24090E+02 -1.00000E+00  1.19754E-01
      21    -1     0     0   502   501  0.000000000E+00  0.000000000E+00  7.145803584E+02  7.145803584E+02  0.000000000E+00  0.00000E+00  9.000E+00
      21    -1     0     0   501   511  0.000000000E+00  0.000000000E+00 -9.018273587E+02  9.018273587E+02  0.000000000E+00  0.00000E+00  9.000E+00
      25     1     1     2     0     0  5.235195148E+02 -3.899806618E+02  3.327726359E+02  7.433170428E+02  1.250000000E+02  0.00000E+00  9.000E+00
      25     1     1     2     0     0 -4.799644210E+02  2.737856726E+02 -4.805210644E+02  7.428660264E+02  1.250000000E+02  0.00000E+00  9.000E+00
      21     1     1     2   502   511 -4.355509380E+01  1.161949893E+02 -3.949857191E+01  1.302246478E+02  2.023048729E-06  0.00000E+00  9.000E+00
#rwgt            1           1   3.2996517983068310E-002           5       43592           0
</event>
<event>
      5   9999  3.19816E-02  6.71092E+01 -1.00000E+00  1.32155E-01
      21    -1     0     0   502   501  0.000000000E+00  0.000000000E+00  4.652444684E+01  4.652444684E+01  0.000000000E+00  0.00000E+00  9.000E+00
      -1    -1     0     0     0   502  0.000000000E+00  0.000000000E+00 -1.261207623E+03  1.261207623E+03  0.000000000E+00  0.00000E+00  9.000E+00
      25     1     1     2     0     0  9.268339968E+01  8.740084404E+01 -3.877075468E+02  4.268152551E+02  1.250000000E+02  0.00000E+00  9.000E+00
      25     1     1     2     0     0 -3.478524631E+01 -1.213339394E+02 -2.923075859E+02  3.420535967E+02  1.250000000E+02  0.00000E+00  9.000E+00
      -1     1     1     2     0   501 -5.789815337E+01  3.393309537E+01 -5.346680435E+02  5.388632182E+02  0.000000000E+00  0.00000E+00  9.000E+00
#rwgt            1           1   4.0573406380193897E-002           5       43646           0
</event>
<event>
      5   9999  3.19816E-02  7.79586E+01 -1.00000E+00  1.28895E-01
      21    -1     0     0   502   501  0.000000000E+00  0.000000000E+00  6.323363805E+02  6.323363805E+02  0.000000000E+00  0.00000E+00  9.000E+00
       2    -1     0     0   501     0  0.000000000E+00  0.000000000E+00 -2.094145970E+03  2.094145970E+03  0.000000000E+00  0.00000E+00  9.000E+00
      25     1     1     2     0     0  2.968512368E+02 -6.225416428E+02  2.442531391E+02  7.422690549E+02  1.250000000E+02  0.00000E+00  9.000E+00
      25     1     1     2     0     0 -2.383717378E+02  5.709887925E+02 -5.856159409E+02  8.610576733E+02  1.250000000E+02  0.00000E+00  9.000E+00
       2     1     1     2   502     0 -5.847949908E+01  5.155285032E+01 -1.120446787E+03  1.123155622E+03  1.525878906E-05  0.00000E+00  9.000E+00
#rwgt            1           1   2.6598345891169755E-002           5       43727           0
</event>
<event>
      5   9999  3.19816E-02  3.60485E+01 -1.00000E+00  1.47699E-01
      21    -1     0     0   502   501  0.000000000E+00  0.000000000E+00  1.219384765E+03  1.219384765E+03  0.000000000E+00  0.00000E+00  9.000E+00
      21    -1     0     0   501   511  0.000000000E+00  0.000000000E+00 -8.739673844E+02  8.739673844E+02  0.000000000E+00  0.00000E+00  9.000E+00
      25     1     1     2     0     0  9.177554137E+02 -1.631217823E+02  1.665272744E+02  9.551125842E+02  1.250000000E+02  0.00000E+00  9.000E+00
      25     1     1     2     0     0 -9.404009881E+02  1.911694707E+02  2.989654753E+02  1.012869755E+03  1.250000000E+02  0.00000E+00  9.000E+00
      21     1     1     2   502   511  2.264557432E+01 -2.804768844E+01 -1.200753695E+02  1.253698099E+02  1.907348633E-06  0.00000E+00  9.000E+00
#rwgt            1           1   3.9174508503306150E-002           5       43870           0
</event>
<event>
      5   9999  3.19816E-02  2.81307E+01 -1.00000E+00  1.55006E-01
      21    -1     0     0   502   501  0.000000000E+00  0.000000000E+00  2.138731761E+02  2.138731761E+02  0.000000000E+00  0.00000E+00  9.000E+00
      21    -1     0     0   512   502  0.000000000E+00  0.000000000E+00 -6.770400544E+02  6.770400544E+02  0.000000000E+00  0.00000E+00  9.000E+00
      25     1     1     2     0     0 -2.439139793E+02 -3.660266803E+01  4.661943694E+01  2.804142587E+02  1.250000000E+02  0.00000E+00  9.000E+00
      25     1     1     2     0     0  2.712106963E+02  4.340152951E+01 -4.921397547E+02  5.772914971E+02  1.250000000E+02  0.00000E+00  9.000E+00
      21     1     1     2   512   501 -2.729671700E+01 -6.798861476E+00 -1.764656055E+01  3.320747470E+01  5.840038640E-07  0.00000E+00  9.000E+00
#rwgt            1           1   2.8187064830738313E-002           5       44038           0
</event>
<event>
      5   9999  3.19816E-02  9.73866E+01 -1.00000E+00  1.24347E-01
      21    -1     0     0   502   511  0.000000000E+00  0.000000000E+00  9.345830949E+02  9.345830949E+02  0.000000000E+00  0.00000E+00  9.000E+00
      21    -1     0     0   501   502  0.000000000E+00  0.000000000E+00 -1.328189922E+03  1.328189922E+03  0.000000000E+00  0.00000E+00  9.000E+00
      25     1     1     2     0     0 -2.521521788E+02 -5.909943009E+02 -3.430567577E+02  7.390317476E+02  1.250000000E+02  0.00000E+00  9.000E+00
      25     1     1     2     0     0  3.216572855E+02  6.592085472E+02 -6.061197120E+02  9.597006946E+02  1.250000000E+02  0.00000E+00  9.000E+00
      21     1     1     2   501   511 -6.950510669E+01 -6.821424631E+01  5.555696421E+02  5.640405752E+02  1.321449896E-05  0.00000E+00  9.000E+00
#rwgt            1           1   2.8575366178501205E-002           5       44172           0
</event>
<event>
      5   9999  3.19816E-02  9.92124E+01 -1.00000E+00  1.23983E-01
      21    -1     0     0   502   512  0.000000000E+00  0.000000000E+00  6.317351988E+02  6.317351988E+02  0.000000000E+00  0.00000E+00  9.000E+00
      21    -1     0     0   501   502  0.000000000E+00  0.000000000E+00 -6.431467006E+02  6.431467006E+02  0.000000000E+00  0.00000E+00  9.000E+00
      25     1     1     2     0     0  4.091182518E+02 -7.968946554E+01  3.242043437E+02  5.426431713E+02  1.250000000E+02  0.00000E+00  9.000E+00
      25     1     1     2     0     0 -4.613968972E+02 -4.631663415E+00 -3.919133163E+02  6.181663179E+02  1.250000000E+02  0.00000E+00  9.000E+00
      21     1     1     2   501   512  5.227864540E+01  8.432112896E+01  5.629747087E+01  1.140724102E+02  1.348699152E-06  0.00000E+00  9.000E+00
#rwgt            1           1   2.9424771528371356E-002           5       44280           0
</event>
<event>
      5   9999  3.19816E-02  1.15675E+02 -1.00000E+00  1.21049E-01
      21    -1     0     0   502   501  0.000000000E+00  0.000000000E+00  2.674298467E+03  2.674298467E+03  0.000000000E+00  0.00000E+00  9.000E+00
      -1    -1     0     0     0   502  0.000000000E+00  0.000000000E+00 -1.645966888E+02  1.645966888E+02  0.000000000E+00  0.00000E+00  9.000E+00
      25     1     1     2     0     0 -1.407714077E+02  1.623065034E+01  1.220643847E+03  1.235182750E+03  1.250000000E+02  0.00000E+00  9.000E+00
      25     1     1     2     0     0  1.949615529E+02 -1.184266366E+02  1.411501933E+03  1.435269167E+03  1.250000000E+02  0.00000E+00  9.000E+00
      -1     1     1     2     0   501 -5.419014526E+01  1.021959862E+02 -1.224440015E+02  1.684432395E+02  5.394796609E-06  0.00000E+00  9.000E+00
#rwgt            1           1   4.1099473619188066E-002           5       44377           0
</event>
<event>
      5   9999  3.19816E-02  6.45318E+01 -1.00000E+00  1.33035E-01
      21    -1     0     0   502   501  0.000000000E+00  0.000000000E+00  7.628977475E+02  7.628977475E+02  0.000000000E+00  0.00000E+00  9.000E+00
      21    -1     0     0   501   511  0.000000000E+00  0.000000000E+00 -4.371676406E+02  4.371676406E+02  0.000000000E+00  0.00000E+00  9.000E+00
      25     1     1     2     0     0  4.078336427E+01 -5.187079595E+02  2.939270907E+01  5.359199207E+02  1.250000000E+02  0.00000E+00  9.000E+00
      25     1     1     2     0     0  1.320184110E+01  4.833532591E+02  3.225077327E+02  5.945089565E+02  1.250000000E+02  0.00000E+00  9.000E+00
      21     1     1     2   502   511 -5.398520537E+01  3.535470039E+01 -2.617033481E+01  6.963651099E+01  1.118282261E-06  0.00000E+00  9.000E+00
#rwgt            1           1   3.1349225767239620E-002           5       44419           0
</event>
<event>
      5   9999  3.19816E-02  3.46561E+01 -1.00000E+00  1.48812E-01
      21    -1     0     0   502   501  0.000000000E+00  0.000000000E+00  2.414609226E+02  2.414609226E+02  0.000000000E+00  0.00000E+00  9.000E+00
      21    -1     0     0   501   512  0.000000000E+00  0.000000000E+00 -1.570636620E+03  1.570636620E+03  0.000000000E+00  0.00000E+00  9.000E+00
      25     1     1     2     0     0  2.477864726E+02 -2.995684429E+02 -9.849904410E+02  1.066288215E+03  1.250000000E+02  0.00000E+00  9.000E+00
      25     1     1     2     0     0 -2.704903126E+02  3.257520107E+02 -4.404113511E+01  4.436710530E+02  1.250000000E+02  0.00000E+00  9.000E+00
      21     1     1     2   502   512  2.270384000E+01 -2.618356782E+01 -3.001441213E+02  3.021382749E+02  0.000000000E+00  0.00000E+00  9.000E+00
#rwgt            1           1   2.9584238823550449E-002           5       44473           0
</event>
<event>
      5   9999  3.19816E-02  4.48664E+01 -1.00000E+00  1.41814E-01
      21    -1     0     0   502   511  0.000000000E+00  0.000000000E+00  4.153745786E+02  4.153745786E+02  0.000000000E+00  0.00000E+00  9.000E+00
      21    -1     0     0   501   502  0.000000000E+00  0.000000000E+00 -2.322727204E+02  2.322727204E+02  0.000000000E+00  0.00000E+00  9.000E+00
      25     1     1     2     0     0  1.428349188E+02 -1.581623824E+02 -9.364504569E+01  2.642187500E+02  1.250000000E+02  0.00000E+00  9.000E+00
      25     1     1     2     0     0 -1.059285317E+02  1.326493937E+02  2.618248741E+02  3.361457722E+02  1.250000000E+02  0.00000E+00  9.000E+00
      21     1     1     2   501   511 -3.690638715E+01  2.551298870E+01  1.492202981E+01  4.728277677E+01  1.685873940E-07  0.00000E+00  9.000E+00
#rwgt            1           1   3.0966485277738195E-002           5       44578           0
</event>
<event>
      5   9999  3.19816E-02  3.43361E+01 -1.00000E+00  1.49076E-01
      21    -1     0     0   502   512  0.000000000E+00  0.000000000E+00  2.770431837E+02  2.770431837E+02  0.000000000E+00  0.00000E+00  9.000E+00
      21    -1     0     0   501   502  0.000000000E+00  0.000000000E+00 -1.118412264E+03  1.118412264E+03  0.000000000E+00  0.00000E+00  9.000E+00
      25     1     1     2     0     0 -2.898675700E+02 -3.146304510E+02 -2.421333778E+02  5.072170162E+02  1.250000000E+02  0.00000E+00  9.000E+00
      25     1     1     2     0     0  2.860135336E+02  3.487495568E+02 -6.655037124E+02  8.136032117E+02  1.250000000E+02  0.00000E+00  9.000E+00
      21     1     1     2   501   512  3.854036330E+00 -3.411910579E+01  6.626800966E+01  7.463522011E+01  2.336015456E-06  0.00000E+00  9.000E+00
#rwgt            1           1   2.9139773605070092E-002           5       44722           0
</event>
<event>
      5   9999  3.19816E-02  9.11410E+01 -1.00000E+00  1.25667E-01
      21    -1     0     0   502   501  0.000000000E+00  0.000000000E+00  1.004636315E+03  1.004636315E+03  0.000000000E+00  0.00000E+00  9.000E+00
      21    -1     0     0   511   502  0.000000000E+00  0.000000000E+00 -4.600222436E+02  4.600222436E+02  0.000000000E+00  0.00000E+00  9.000E+00
      25     1     1     2     0     0 -2.921854182E+02 -2.368614674E+02 -2.726543226E+02  4.810832080E+02  1.250000000E+02  0.00000E+00  9.000E+00
      25     1     1     2     0     0  2.284232288E+02  1.717380273E+02  8.344366780E+02  8.908314605E+02  1.250000000E+02  0.00000E+00  9.000E+00
      21     1     1     2   511   501  6.376218941E+01  6.512344012E+01 -1.716828370E+01  9.274389046E+01  1.305872339E-06  0.00000E+00  9.000E+00
#rwgt            1           1   2.7797089986005857E-002           5       44869           0
</event>
<event>
      5   9999  3.19816E-02  1.92158E+01 -1.00000E+00  1.67815E-01
      21    -1     0     0   502   512  0.000000000E+00  0.000000000E+00  3.496897239E+02  3.496897239E+02  0.000000000E+00  0.00000E+00  9.000E+00
      21    -1     0     0   501   502  0.000000000E+00  0.000000000E+00 -1.680549271E+02  1.680549271E+02  0.000000000E+00  0.00000E+00  9.000E+00
      25     1     1     2     0     0 -1.192552309E+02  8.184169397E+01  1.842734507E+02  2.655213317E+02  1.250000000E+02  0.00000E+00  9.000E+00
      25     1     1     2     0     0  1.049308128E+02 -9.465021060E+01 -5.494241448E+01  1.965014166E+02  1.250000000E+02  0.00000E+00  9.000E+00
      21     1     1     2   501   512  1.432441816E+01  1.280851662E+01  5.230376061E+01  5.572190259E+01  0.000000000E+00  0.00000E+00  9.000E+00
#rwgt            1           1   2.7448787452364034E-002           5       44949           0
</event>
<event>
      5   9999  3.19816E-02  1.47208E+02 -1.00000E+00  1.16718E-01
       1    -1     0     0   502     0  0.000000000E+00  0.000000000E+00  1.442744504E+03  1.442744504E+03  0.000000000E+00  0.00000E+00  9.000E+00
      21    -1     0     0   501   502  0.000000000E+00  0.000000000E+00 -1.270961002E+02  1.270961002E+02  0.000000000E+00  0.00000E+00  9.000E+00
      25     1     1     2     0     0 -2.383232105E+02  9.746702236E+01  1.071665002E+02  3.056262945E+02  1.250000000E+02  0.00000E+00  9.000E+00
      25     1     1     2     0     0  1.027819804E+02 -1.549011337E+02  7.314599702E+02  7.649948920E+02  1.250000000E+02  0.00000E+00  9.000E+00
       1     1     1     2   501     0  1.355412301E+02  5.743411132E+01  4.770219338E+02  4.992194182E+02  7.629394531E-06  0.00000E+00  9.000E+00
#rwgt            1           1   2.8519805952716897E-002           5       45121           0
</event>
<event>
      5   9999  3.19816E-02  1.19022E+01 -1.00000E+00  1.87403E-01
      21    -1     0     0   502   501  0.000000000E+00  0.000000000E+00  1.120401323E+03  1.120401323E+03  0.000000000E+00  0.00000E+00  9.000E+00
      21    -1     0     0   511   502  0.000000000E+00  0.000000000E+00 -1.183289931E+02  1.183289931E+02  0.000000000E+00  0.00000E+00  9.000E+00
      25     1     1     2     0     0 -2.703499389E+01  2.584984641E+02  1.385443313E+02  3.199560572E+02  1.250000000E+02  0.00000E+00  9.000E+00
      25     1     1     2     0     0  3.225343229E+01 -2.691956518E+02  8.491790143E+02  9.001314244E+02  1.250000000E+02  0.00000E+00  9.000E+00
      21     1     1     2   511   501 -5.218438397E+00  1.069718779E+01  1.434898418E+01  1.864283436E+01  1.685873940E-07  0.00000E+00  9.000E+00
#rwgt            1           1   3.1935720531851980E-002           5       45192           0
</event>
<event>
      5   9999  3.19816E-02  2.57582E+01 -1.00000E+00  1.57785E-01
      21    -1     0     0   502   512  0.000000000E+00  0.000000000E+00  1.261884682E+03  1.261884682E+03  0.000000000E+00  0.00000E+00  9.000E+00
      21    -1     0     0   501   502  0.000000000E+00  0.000000000E+00 -1.194828605E+02  1.194828605E+02  0.000000000E+00  0.00000E+00  9.000E+00
      25     1     1     2     0     0 -1.018419726E+02  9.919872138E+01  3.034028497E+00  1.893314000E+02  1.250000000E+02  0.00000E+00  9.000E+00
      25     1     1     2     0     0  8.343553433E+01 -1.172178386E+02  3.214050105E+02  3.736678885E+02  1.250000000E+02  0.00000E+00  9.000E+00
      21     1     1     2   501   512  1.840643823E+01  1.801911725E+01  8.179627820E+02  8.183682535E+02  1.078959322E-05  0.00000E+00  9.000E+00
#rwgt            1           1   2.2981235990378907E-002           5       45398           0
</event>
<event>
      5   9999  3.19816E-02  9.86183E+01 -1.00000E+00  1.24100E-01
       1    -1     0     0   502     0  0.000000000E+00  0.000000000E+00  7.271923761E+02  7.271923761E+02  0.000000000E+00  0.00000E+00  9.000E+00
      21    -1     0     0   501   502  0.000000000E+00  0.000000000E+00 -1.840466641E+02  1.840466641E+02  0.000000000E+00  0.00000E+00  9.000E+00
      25     1     1     2     0     0  3.112733855E+01  4.101871484E+01  1.673709759E+02  2.151499239E+02  1.250000000E+02  0.00000E+00  9.000E+00
      25     1     1     2     0     0  4.887526066E+01 -9.868290174E+01 -1.105059971E+02  1.999091834E+02  1.250000000E+02  0.00000E+00  9.000E+00
       1     1     1     2   501     0 -8.000259922E+01  5.766418690E+01  4.862807333E+02  4.961799330E+02  5.394796609E-06  0.00000E+00  9.000E+00
#rwgt            1           1   2.5313515000877494E-002           5       45522           0
</event>
<event>
      5   9999  3.19816E-02  4.48441E+01 -1.00000E+00  1.41827E-01
      21    -1     0     0   502   501  0.000000000E+00  0.000000000E+00  1.709629461E+03  1.709629461E+03  0.000000000E+00  0.00000E+00  9.000E+00
      21    -1     0     0   511   502  0.000000000E+00  0.000000000E+00 -1.338115710E+02  1.338115710E+02  0.000000000E+00  0.00000E+00  9.000E+00
      25     1     1     2     0     0  5.666304588E+01  1.685555639E+02  9.003456010E+02  9.262121140E+02  1.250000000E+02  0.00000E+00  9.000E+00
      25     1     1     2     0     0 -3.334949780E+01 -2.068631428E+02  7.726207246E+02  8.102298026E+02  1.250000000E+02  0.00000E+00  9.000E+00
      21     1     1     2   511   501 -2.331354807E+01  3.830757893E+01 -9.714843573E+01  1.069991154E+02  4.862803949E-06  0.00000E+00  9.000E+00
#rwgt            1           1   2.8893354351921700E-002           5       45599           0
</event>
<event>
      5   9999  3.19816E-02  3.97050E+01 -1.00000E+00  1.45040E-01
      21    -1     0     0   502   501  0.000000000E+00  0.000000000E+00  9.706307812E+01  9.706307812E+01  0.000000000E+00  0.00000E+00  9.000E+00
      21    -1     0     0   501   512  0.000000000E+00  0.000000000E+00 -5.183904005E+02  5.183904005E+02  0.000000000E+00  0.00000E+00  9.000E+00
      25     1     1     2     0     0 -1.494535873E+02 -3.047413309E+01 -8.142891267E+01  2.133558421E+02  1.250000000E+02  0.00000E+00  9.000E+00
      25     1     1     2     0     0  1.120996960E+02  4.393414947E+01 -2.940325946E+02  3.414333288E+02  1.250000000E+02  0.00000E+00  9.000E+00
      21     1     1     2   502   512  3.735389130E+01 -1.346001638E+01 -4.586581510E+01  6.066430772E+01  0.000000000E+00  0.00000E+00  9.000E+00
#rwgt            1           1   2.4451000816755095E-002           5       45675           0
</event>
<event>
      5   9999  3.19816E-02  3.56550E+01 -1.00000E+00  1.48007E-01
      21    -1     0     0   502   501  0.000000000E+00  0.000000000E+00  1.253156401E+03  1.253156401E+03  0.000000000E+00  0.00000E+00  9.000E+00
      21    -1     0     0   511   502  0.000000000E+00  0.000000000E+00 -3.749812592E+02  3.749812592E+02  0.000000000E+00  0.00000E+00  9.000E+00
      25     1     1     2     0     0  2.439420144E+02 -2.088177367E+02 -1.465168926E+02  3.744392520E+02  1.250000000E+02  0.00000E+00  9.000E+00
      25     1     1     2     0     0 -2.499161973E+02  2.439687090E+02  1.105122885E+03  1.165718846E+03  1.250000000E+02  0.00000E+00  9.000E+00
      21     1     1     2   511   501  5.974182887E+00 -3.515097229E+01 -8.043085047E+01  8.797956252E+01  1.907348633E-06  0.00000E+00  9.000E+00
#rwgt            1           1   3.1766862625880792E-002           5       45794           0
</event>
<event>
      5   9999  3.19816E-02  1.82123E+02 -1.00000E+00  1.13149E-01
      21    -1     0     0   502   501  0.000000000E+00  0.000000000E+00  7.516574692E+02  7.516574692E+02  0.000000000E+00  0.00000E+00  9.000E+00
      21    -1     0     0   501   512  0.000000000E+00  0.000000000E+00 -8.217541716E+02  8.217541716E+02  0.000000000E+00  0.00000E+00  9.000E+00
      25     1     1     2     0     0 -1.382430580E+02 -2.547237632E+02  3.834802566E+02  4.966663325E+02  1.250000000E+02  0.00000E+00  9.000E+00
      25     1     1     2     0     0 -4.387309103E+01  2.531199927E+02  2.316014007E+02  3.677754581E+02  1.250000000E+02  0.00000E+00  9.000E+00
      21     1     1     2   502   512  1.821161490E+02  1.603770536E+00 -6.851783597E+02  7.089698501E+02  7.629394531E-06  0.00000E+00  9.000E+00
#rwgt            1           1   2.7783691344914804E-002           5       45932           0
</event>
<event>
      5   9999  3.52792E-02  3.55768E+01 -1.00000E+00  1.48069E-01
      21    -1     0     0   511   501  0.000000000E+00  0.000000000E+00  9.138728338E+02  9.138728338E+02  0.000000000E+00  0.00000E+00  9.000E+00
      21    -1     0     0   501   502  0.000000000E+00  0.000000000E+00 -4.037081836E+01  4.037081836E+01  0.000000000E+00  0.00000E+00  9.000E+00
      25     1     1     2     0     0 -6.883164293E+01  4.094094528E+01  3.868367476E+02  4.143448146E+02  1.250000000E+02  0.00000E+00  9.000E+00
      25     1     1     2     0     0  8.829934132E+01 -1.116313545E+01  2.053841757E+02  2.563767714E+02  1.250000000E+02  0.00000E+00  9.000E+00
      21     1     1     2   511   502 -1.946769839E+01 -2.977780982E+01  2.812810921E+02  2.835220662E+02  0.000000000E+00  0.00000E+00  9.000E+00
#rwgt            1           1   9.3078459974855962E-002           5       45968           0
</event>
<event>
      5   9999  3.19816E-02  5.45579E+01 -1.00000E+00  1.36948E-01
      21    -1     0     0   502   501  0.000000000E+00  0.000000000E+00  4.890743839E+02  4.890743839E+02  0.000000000E+00  0.00000E+00  9.000E+00
      21    -1     0     0   501   512  0.000000000E+00  0.000000000E+00 -8.088582122E+02  8.088582122E+02  0.000000000E+00  0.00000E+00  9.000E+00
      25     1     1     2     0     0  6.130690071E+01  3.007790176E+02 -1.672053111E+02  3.712265744E+02  1.250000000E+02  0.00000E+00  9.000E+00
      25     1     1     2     0     0 -1.021334751E+02 -3.369696331E+02  2.948499491E+02  4.759635205E+02  1.250000000E+02  0.00000E+00  9.000E+00
      21     1     1     2   502   512  4.082657442E+01  3.619061554E+01 -4.474284663E+02  4.507425011E+02  0.000000000E+00  0.00000E+00  9.000E+00
#rwgt            1           1   2.6863535970278272E-002           5       46058           0
</event>
<event>
      5   9999  3.19816E-02  6.37579E+00 -1.00000E+00  2.21451E-01
      21    -1     0     0   502   501  0.000000000E+00  0.000000000E+00  1.016690140E+03  1.016690140E+03  0.000000000E+00  0.00000E+00  9.000E+00
      21    -1     0     0   501   511  0.000000000E+00  0.000000000E+00 -4.536119918E+01  4.536119918E+01  0.000000000E+00  0.00000E+00  9.000E+00
      25     1     1     2     0     0  4.723617447E+01 -3.187792942E+01  8.787687411E+02  8.894419368E+02  1.250000000E+02  0.00000E+00  9.000E+00
      25     1     1     2     0     0 -4.219272207E+01  2.797737497E+01  9.583112179E+01  1.654435348E+02  1.250000000E+02  0.00000E+00  9.000E+00
      21     1     1     2   502   511 -5.043452397E+00  3.900554447E+00 -3.270921599E+00  7.165868069E+00  1.397852826E-07  0.00000E+00  9.000E+00
#rwgt            1           1   3.0219754344841858E-002           5       46157           0
</event>
<event>
      5   9999  3.19816E-02  5.23646E+02 -1.00000E+00  9.82852E-02
      21    -1     0     0   502   501  0.000000000E+00  0.000000000E+00  5.034043896E+02  5.034043896E+02  0.000000000E+00  0.00000E+00  9.000E+00
      21    -1     0     0   501   512  0.000000000E+00  0.000000000E+00 -1.276767413E+03  1.276767413E+03  0.000000000E+00  0.00000E+00  9.000E+00
      25     1     1     2     0     0 -1.221831392E+02  1.579013202E+02  3.035441678E+02  3.842207806E+02  1.250000000E+02  0.00000E+00  9.000E+00
      25     1     1     2     0     0 -2.922417854E+02  1.621871917E+02 -5.285390422E+02  6.377213070E+02  1.250000000E+02  0.00000E+00  9.000E+00
      21     1     1     2   502   512  4.144249246E+02 -3.200885119E+02 -5.483681486E+02  7.582297146E+02  7.629394531E-06  0.00000E+00  9.000E+00
#rwgt            1           1   2.7643254304064887E-002           5       46394           0
</event>
<event>
      5   9999  3.19816E-02  1.18581E+01 -1.00000E+00  1.87573E-01
      21    -1     0     0   502   501  0.000000000E+00  0.000000000E+00  2.049110637E+02  2.049110637E+02  0.000000000E+00  0.00000E+00  9.000E+00
      21    -1     0     0   511   502  0.000000000E+00  0.000000000E+00 -1.681816151E+02  1.681816151E+02  0.000000000E+00  0.00000E+00  9.000E+00
      25     1     1     2     0     0 -1.282603593E+01  1.318729326E+02  1.919286627E+01  1.831620694E+02  1.250000000E+02  0.00000E+00  9.000E+00
      25     1     1     2     0     0  3.282084588E+00 -1.248354101E+02  2.000067740E+01  1.778192306E+02  1.250000000E+02  0.00000E+00  9.000E+00
      21     1     1     2   511   501  9.543951340E+00 -7.037522556E+00 -2.464094978E+00  1.211137874E+01  2.779775576E-07  0.00000E+00  9.000E+00
#rwgt            1           1   2.7592000703127423E-002           5       46456           0
</event>
<event>
      5   9999  3.19816E-02  3.19356E+01 -1.00000E+00  1.51177E-01
      21    -1     0     0   502   501  0.000000000E+00  0.000000000E+00  7.013153547E+02  7.013153547E+02  0.000000000E+00  0.00000E+00  9.000E+00
      21    -1     0     0   512   502  0.000000000E+00  0.000000000E+00 -1.406882099E+02  1.406882099E+02  0.000000000E+00  0.00000E+00  9.000E+00
      25     1     1     2     0     0 -6.414399756E+01  2.844789731E+01  6.380591227E+02  6.539634388E+02  1.250000000E+02  0.00000E+00  9.000E+00
      25     1     1     2     0     0  5.765733123E+01  2.821981391E+00 -5.186205520E+01  1.471292092E+02  1.250000000E+02  0.00000E+00  9.000E+00
      21     1     1     2   512   501  6.486666330E+00 -3.126987870E+01 -2.556992265E+01  4.091091661E+01  7.539457465E-07  0.00000E+00  9.000E+00
#rwgt            1           1   2.8158847472415004E-002           5       46598           0
</event>
<event>
      5   9999  3.19816E-02  1.35811E+01 -1.00000E+00  1.81548E-01
      21    -1     0     0   502   501  0.000000000E+00  0.000000000E+00  7.639070944E+02  7.639070944E+02  0.000000000E+00  0.00000E+00  9.000E+00
      21    -1     0     0   511   502  0.000000000E+00  0.000000000E+00 -1.904397964E+02  1.904397964E+02  0.000000000E+00  0.00000E+00  9.000E+00
      25     1     1     2     0     0  2.092560145E+02 -9.846543211E+01 -8.639795359E+00  2.630269320E+02  1.250000000E+02  0.00000E+00  9.000E+00
      25     1     1     2     0     0 -2.216645075E+02  1.039859177E+02  6.050977595E+02  6.646175769E+02  1.250000000E+02  0.00000E+00  9.000E+00
      21     1     1     2   511   501  1.240849309E+01 -5.520485553E+00 -2.299066625E+01  2.670238184E+01  5.840038640E-07  0.00000E+00  9.000E+00
#rwgt            1           1   2.7736691465994532E-002           5       46719           0
</event>
<event>
      5   9999  3.19816E-02  4.98956E+01 -1.00000E+00  1.39127E-01
       2    -1     0     0   502     0  0.000000000E+00  0.000000000E+00  4.415275022E+02  4.415275022E+02  0.000000000E+00  0.00000E+00  9.000E+00
      21    -1     0     0   501   502  0.000000000E+00  0.000000000E+00 -7.202154389E+02  7.202154389E+02  0.000000000E+00  0.00000E+00  9.000E+00
      25     1     1     2     0     0  4.686466443E+02 -1.771621196E+02 -3.159008625E+02  6.053382928E+02  1.250000000E+02  0.00000E+00  9.000E+00
      25     1     1     2     0     0 -4.495728920E+02  1.310561429E+02 -1.402692266E+01  4.848847826E+02  1.250000000E+02  0.00000E+00  9.000E+00
       2     1     1     2   501     0 -1.907375230E+01  4.610597673E+01  5.123984853E+01  7.151986573E+01  9.536743164E-07  0.00000E+00  9.000E+00
#rwgt            1           1   3.3024039397805745E-002           5       46955           0
</event>
<event>
      5   9999  3.19816E-02  3.23861E+02 -1.00000E+00  1.04523E-01
      21    -1     0     0   502   501  0.000000000E+00  0.000000000E+00  1.426810003E+02  1.426810003E+02  0.000000000E+00  0.00000E+00  9.000E+00
      21    -1     0     0   501   511  0.000000000E+00  0.000000000E+00 -1.145938369E+03  1.145938369E+03  0.000000000E+00  0.00000E+00  9.000E+00
      25     1     1     2     0     0 -2.151829700E+02  3.303392007E+01 -4.457730926E+02  5.115990623E+02  1.250000000E+02  0.00000E+00  9.000E+00
      25     1     1     2     0     0 -6.083747686E+01  1.363736920E+02 -1.069920682E+02  2.221965011E+02  1.250000000E+02  0.00000E+00  9.000E+00
      21     1     1     2   502   511  2.760204468E+02 -1.694076120E+02 -4.504922074E+02  5.548238054E+02  9.344061824E-06  0.00000E+00  9.000E+00
#rwgt            2          11   3.3331166135443686E-003           5       47072           0
</event>
<event>
      5   9999  3.19816E-02  7.23053E+01 -1.00000E+00  1.30512E-01
      21    -1     0     0   502   501  0.000000000E+00  0.000000000E+00  4.769549176E+02  4.769549176E+02  0.000000000E+00  0.00000E+00  9.000E+00
      21    -1     0     0   501   512  0.000000000E+00  0.000000000E+00 -4.789995813E+02  4.789995813E+02  0.000000000E+00  0.00000E+00  9.000E+00
      25     1     1     2     0     0 -1.765372513E+01  3.190473132E+02 -2.006021935E+02  3.974532452E+02  1.250000000E+02  0.00000E+00  9.000E+00
      25     1     1     2     0     0 -1.179033781E+01 -3.850860079E+02  2.442357391E+02  4.729760478E+02  1.250000000E+02  0.00000E+00  9.000E+00
      21     1     1     2   502   512  2.944406294E+01  6.603869471E+01 -4.567820939E+01  8.552520596E+01  6.743495762E-07  0.00000E+00  9.000E+00
#rwgt            1           1   2.9554499864435670E-002           5       47107           0
</event>
<event>
      5   9999  3.19816E-02  5.41806E+01 -1.00000E+00  1.37115E-01
      21    -1     0     0   502   511  0.000000000E+00  0.000000000E+00  3.518284275E+02  3.518284275E+02  0.000000000E+00  0.00000E+00  9.000E+00
      21    -1     0     0   501   502  0.000000000E+00  0.000000000E+00 -9.424608783E+02  9.424608783E+02  0.000000000E+00  0.00000E+00  9.000E+00
      25     1     1     2     0     0 -4.613720172E+02 -9.472913476E+01 -4.956609177E+02  6.950845218E+02  1.250000000E+02  0.00000E+00  9.000E+00
      25     1     1     2     0     0  5.117325820E+02  7.474548199E+01 -1.092917729E+02  5.431637085E+02  1.250000000E+02  0.00000E+00  9.000E+00
      21     1     1     2   501   511 -5.036056488E+01  1.998365277E+01  1.432023973E+01  5.604107546E+01  8.920806376E-07  0.00000E+00  9.000E+00
#rwgt            1           1   3.0386420263124544E-002           5       47250           0
</event>
<event>
      5   9999  3.19816E-02  6.80096E+01 -1.00000E+00  1.31858E-01
      21    -1     0     0   502   501  0.000000000E+00  0.000000000E+00  8.123343951E+02  8.123343951E+02  0.000000000E+00  0.00000E+00  9.000E+00
      21    -1     0     0   512   502  0.000000000E+00  0.000000000E+00 -2.886795914E+02  2.886795914E+02  0.000000000E+00  0.00000E+00  9.000E+00
      25     1     1     2     0     0 -4.065102852E+02  6.163962362E+00  2.746986981E+02  5.063328758E+02  1.250000000E+02  0.00000E+00  9.000E+00
      25     1     1     2     0     0  3.709381754E+02  5.180092824E+01  3.110039451E+02  5.026200553E+02  1.250000000E+02  0.00000E+00  9.000E+00
      21     1     1     2   512   501  3.557210977E+01 -5.796489060E+01 -6.204783940E+01  9.206105534E+01  1.507891493E-06  0.00000E+00  9.000E+00
#rwgt            1           1   2.7899884631209858E-002           5       47377           0
</event>
<event>
      5   9999  3.19816E-02  1.16245E+01 -1.00000E+00  1.88491E-01
      21    -1     0     0   511   501  0.000000000E+00  0.000000000E+00  1.133252658E+02  1.133252658E+02  0.000000000E+00  0.00000E+00  9.000E+00
      21    -1     0     0   501   502  0.000000000E+00  0.000000000E+00 -8.478495380E+02  8.478495380E+02  0.000000000E+00  0.00000E+00  9.000E+00
      25     1     1     2     0     0  2.363451381E+02 -1.192550359E+02 -4.268030687E+02  5.175583516E+02  1.250000000E+02  0.00000E+00  9.000E+00
      25     1     1     2     0     0 -2.384917439E+02  1.078304085E+02 -3.163085113E+02  4.291640516E+02  1.250000000E+02  0.00000E+00  9.000E+00
      21     1     1     2   511   502  2.146605806E+00  1.142462741E+01  8.587307793E+00  1.445240060E+01  3.769728732E-07  0.00000E+00  9.000E+00
#rwgt            1           1   2.9365499056233316E-002           5       47441           0
</event>
<event>
      5   9999  3.19816E-02  6.76404E+01 -1.00000E+00  1.31979E-01
      21    -1     0     0   502   501  0.000000000E+00  0.000000000E+00  2.276528664E+03  2.276528664E+03  0.000000000E+00  0.00000E+00  9.000E+00
      21    -1     0     0   512   502  0.000000000E+00  0.000000000E+00 -5.127000009E+01  5.127000009E+01  0.000000000E+00  0.00000E+00  9.000E+00
      25     1     1     2     0     0 -5.275602289E+01  2.000597901E+02  1.436101144E+03  1.456303064E+03  1.250000000E+02  0.00000E+00  9.000E+00
      25     1     1     2     0     0  6.783543112E+01 -2.659979513E+02  6.615512379E+02  7.270705579E+02  1.250000000E+02  0.00000E+00  9.000E+00
      21     1     1     2   512   501 -1.507940823E+01  6.593816127E+01  1.276062815E+02  1.444250419E+02  1.348699152E-06  0.00000E+00  9.000E+00
#rwgt            1           1   7.8373753137415611E-002           5       47703           0
</event>
<event>
      5   9999  3.19816E-02  1.70017E+02 -1.00000E+00  1.14278E-01
      21    -1     0     0   502   501  0.000000000E+00  0.000000000E+00  2.227106345E+02  2.227106345E+02  0.000000000E+00  0.00000E+00  9.000E+00
       2    -1     0     0   501     0  0.000000000E+00  0.000000000E+00 -1.575912898E+03  1.575912898E+03  0.000000000E+00  0.00000E+00  9.000E+00
      25     1     1     2     0     0 -1.925538268E+02  1.983317355E+01 -4.437236721E+02  4.999860280E+02  1.250000000E+02  0.00000E+00  9.000E+00
      25     1     1     2     0     0  3.554934220E+02 -6.837721328E+01 -1.024248353E+03  1.093508439E+03  1.250000000E+02  0.00000E+00  9.000E+00
       2     1     1     2   502     0 -1.629395953E+02  4.854403973E+01  1.147697617E+02  2.051290660E+02  4.473129043E-06  0.00000E+00  9.000E+00
#rwgt            2          13   1.9653085438276803E-004           5       47789           0
</event>
<event>
      5   9999  3.19816E-02  5.10643E+01 -1.00000E+00  1.38556E-01
      21    -1     0     0   502   511  0.000000000E+00  0.000000000E+00  7.369324117E+01  7.369324117E+01  0.000000000E+00  0.00000E+00  9.000E+00
      21    -1     0     0   501   502  0.000000000E+00  0.000000000E+00 -1.918965759E+03  1.918965759E+03  0.000000000E+00  0.00000E+00  9.000E+00
      25     1     1     2     0     0  2.941967876E+02 -3.273156950E+00 -1.234011637E+03  1.274743968E+03  1.250000000E+02  0.00000E+00  9.000E+00
      25     1     1     2     0     0 -2.951114377E+02  5.432929505E+01 -5.389304152E+02  6.293754248E+02  1.250000000E+02  0.00000E+00  9.000E+00
      21     1     1     2   501   511  9.146501342E-01 -5.105613810E+01 -7.233046536E+01  8.853960719E+01  0.000000000E+00  0.00000E+00  9.000E+00
#rwgt            1           1   2.9002308156579837E-002           5       47853           0
</event>
<event>
      5   9999  3.19816E-02  2.48749E+02 -1.00000E+00  1.08305E-01
      21    -1     0     0   502   501  0.000000000E+00  0.000000000E+00  6.385950690E+01  6.385950690E+01  0.000000000E+00  0.00000E+00  9.000E+00
       2    -1     0     0   501     0  0.000000000E+00  0.000000000E+00 -3.231571093E+03  3.231571093E+03  0.000000000E+00  0.00000E+00  9.000E+00
      25     1     1     2     0     0 -2.292153258E+02  9.932416626E+01 -3.437339888E+02  4.429255137E+02  1.250000000E+02  0.00000E+00  9.000E+00
      25     1     1     2     0     0  5.052246607E+01  7.372174942E+01 -1.076878677E+03  1.087786790E+03  1.250000000E+02  0.00000E+00  9.000E+00
       2     1     1     2   502     0  1.786928598E+02 -1.730459157E+02 -1.747098921E+03  1.764718296E+03  3.737624730E-05  0.00000E+00  9.000E+00
#rwgt            2          13   1.8654782823437858E-003           5       47987           0
</event>
<event>
      5   9999  3.19816E-02  3.61055E+01 -1.00000E+00  1.47654E-01
      21    -1     0     0   511   501  0.000000000E+00  0.000000000E+00  4.865101896E+02  4.865101896E+02  0.000000000E+00  0.00000E+00  9.000E+00
      21    -1     0     0   501   502  0.000000000E+00  0.000000000E+00 -5.433659209E+02  5.433659209E+02  0.000000000E+00  0.00000E+00  9.000E+00
      25     1     1     2     0     0 -4.132089481E+01  4.203973029E+02  1.645189749E+02  4.702475962E+02  1.250000000E+02  0.00000E+00  9.000E+00
      25     1     1     2     0     0  5.025571728E+01 -4.553798362E+02 -2.203147882E+02  5.235074386E+02  1.250000000E+02  0.00000E+00  9.000E+00
      21     1     1     2   511   502 -8.934822469E+00  3.498253331E+01 -1.059918016E+00  3.612107578E+01  3.332000937E-08  0.00000E+00  9.000E+00
#rwgt            1           1   2.5704802768330370E-002           5       48021           0
</event>
<event>
      5   9999  3.19816E-02  5.86046E+01 -1.00000E+00  1.35252E-01
      21    -1     0     0   502   512  0.000000000E+00  0.000000000E+00  6.859761426E+02  6.859761426E+02  0.000000000E+00  0.00000E+00  9.000E+00
      21    -1     0     0   501   502  0.000000000E+00  0.000000000E+00 -1.319994085E+03  1.319994085E+03  0.000000000E+00  0.00000E+00  9.000E+00
      25     1     1     2     0     0  8.748781018E+02  1.406620487E+02 -1.270533821E+02  9.038611989E+02  1.250000000E+02  0.00000E+00  9.000E+00
      25     1     1     2     0     0 -8.879259047E+02 -1.977956577E+02 -4.914692990E+02  1.041490569E+03  1.250000000E+02  0.00000E+00  9.000E+00
      21     1     1     2   501   512  1.304780293E+01  5.713360899E+01 -1.549526089E+01  6.061845880E+01  1.369610464E-06  0.00000E+00  9.000E+00
#rwgt            1           1   2.6656323350854924E-002           5       48203           0
</event>
<event>
      5   9999  3.19816E-02  4.67379E+01 -1.00000E+00  1.40768E-01
      21    -1     0     0   502   501  0.000000000E+00  0.000000000E+00  9.250232870E+02  9.250232870E+02  0.000000000E+00  0.00000E+00  9.000E+00
       3    -1     0     0   501     0  0.000000000E+00  0.000000000E+00 -1.106160336E+02  1.106160336E+02  0.000000000E+00  0.00000E+00  9.000E+00
      25     1     1     2     0     0  1.172355436E+02  4.360550117E+01  7.825416151E+02  8.022730157E+02  1.250000000E+02  0.00000E+00  9.000E+00
      25     1     1     2     0     0 -9.668880288E+01 -8.558485803E+01  5.712328884E+00  1.798085738E+02  1.250000000E+02  0.00000E+00  9.000E+00
       3     1     1     2   502     0 -2.054674076E+01  4.197935686E+01  2.615330940E+01  5.355773101E+01  1.066240300E-06  0.00000E+00  9.000E+00
#rwgt            1           1   2.2572123137605982E-002           5       48319           0
</event>
<event>
      5   9999  3.19816E-02  4.62075E+01 -1.00000E+00  1.41059E-01
      21    -1     0     0   502   501  0.000000000E+00  0.000000000E+00  6.969328654E+01  6.969328654E+01  0.000000000E+00  0.00000E+00  9.000E+00
      21    -1     0     0   511   502  0.000000000E+00  0.000000000E+00 -1.024922370E+03  1.024922370E+03  0.000000000E+00  0.00000E+00  9.000E+00
      25     1     1     2     0     0  1.458430678E+02 -1.409872651E+02 -3.758958721E+02  4.450509139E+02  1.250000000E+02  0.00000E+00  9.000E+00
      25     1     1     2     0     0 -1.114056524E+02  1.101782105E+02 -2.671633382E+02  3.339935729E+02  1.250000000E+02  0.00000E+00  9.000E+00
      21     1     1     2   511   501 -3.443741535E+01  3.080905457E+01 -3.121698730E+02  3.155711695E+02  3.814697266E-06  0.00000E+00  9.000E+00
#rwgt            1           1   2.9918811807181294E-002           5       48400           0
</event>
<event>
      5   9999  3.47391E-02  7.23519E+01 -1.00000E+00  1.30498E-01
       2    -1     0     0   502     0  0.000000000E+00  0.000000000E+00  1.496844338E+03  1.496844338E+03  0.000000000E+00  0.00000E+00  9.000E+00
      21    -1     0     0   501   502  0.000000000E+00  0.000000000E+00 -2.816578591E+02  2.816578591E+02  0.000000000E+00  0.00000E+00  9.000E+00
      25     1     1     2     0     0 -1.546063134E+02 -2.253582341E+02 -1.345751231E+02  3.292793792E+02  1.250000000E+02  0.00000E+00  9.000E+00
      25     1     1     2     0     0  1.282924951E+02  1.579610397E+02  2.451658918E+02  3.422600895E+02  1.250000000E+02  0.00000E+00  9.000E+00
       2     1     1     2   501     0  2.631381832E+01  6.739719444E+01  1.104595710E+03  1.106962728E+03  1.525878906E-05  0.00000E+00  9.000E+00
#rwgt            1           1   3.1607726096134957E-002           5       48470           0
</event>
<event>
      5   9999  3.19816E-02  2.07749E+02 -1.00000E+00  1.11050E-01
      21    -1     0     0   502   501  0.000000000E+00  0.000000000E+00  3.048318591E+02  3.048318591E+02  0.000000000E+00  0.00000E+00  9.000E+00
      21    -1     0     0   501   511  0.000000000E+00  0.000000000E+00 -6.851006871E+02  6.851006871E+02  0.000000000E+00  0.00000E+00  9.000E+00
      25     1     1     2     0     0  1.453649661E+02 -1.145973064E+02 -3.565368108E+02  4.207220145E+02  1.250000000E+02  0.00000E+00  9.000E+00
      25     1     1     2     0     0 -3.093002480E+02 -1.301496879E+01  7.028823221E+01  3.411765941E+02  1.250000000E+02  0.00000E+00  9.000E+00
      21     1     1     2   502   511  1.639352818E+02  1.276122752E+02 -9.402024940E+01  2.280339376E+02  4.672030912E-06  0.00000E+00  9.000E+00
#rwgt            1           1   3.0369456041984391E-002           5       48527           0
</event>
<event>
      5   9999  3.19816E-02  4.09251E+01 -1.00000E+00  1.44227E-01
      21    -1     0     0   502   512  0.000000000E+00  0.000000000E+00  5.033387547E+02  5.033387547E+02  0.000000000E+00  0.00000E+00  9.000E+00
      21    -1     0     0   501   502  0.000000000E+00  0.000000000E+00 -4.759566963E+02  4.759566963E+02  0.000000000E+00  0.00000E+00  9.000E+00
      25     1     1     2     0     0 -2.074541408E+02 -3.065577307E+02 -2.042118319E+02  4.408427555E+02  1.250000000E+02  0.00000E+00  9.000E+00
      25     1     1     2     0     0  2.480281365E+02  3.119068027E+02  1.440080245E+02  4.417772303E+02  1.250000000E+02  0.00000E+00  9.000E+00
      21     1     1     2   501   512 -4.057399573E+01 -5.349071972E+00  8.758586573E+01  9.667546522E+01  1.348699152E-06  0.00000E+00  9.000E+00
#rwgt            1           1   2.9576113045916272E-002           5       48559           0
</event>
<event>
      5   9999  3.19816E-02  9.83995E+01 -1.00000E+00  1.24144E-01
      21    -1     0     0   502   501  0.000000000E+00  0.000000000E+00  2.033392460E+03  2.033392460E+03  0.000000000E+00  0.00000E+00  9.000E+00
      21    -1     0     0   501   511  0.000000000E+00  0.000000000E+00 -4.475288483E+02  4.475288483E+02  0.000000000E+00  0.00000E+00  9.000E+00
      25     1     1     2     0     0  6.057370859E+01 -1.096399833E+02 -3.012775084E+02  3.494041173E+02  1.250000000E+02  0.00000E+00  9.000E+00
      25     1     1     2     0     0 -3.706131077E+00  1.899427582E+02  1.981902780E+03  1.994907421E+03  1.250000000E+02  0.00000E+00  9.000E+00
      21     1     1     2   502   511 -5.686757751E+01 -8.030277489E+01 -9.476166031E+01  1.366097701E+02  0.000000000E+00  0.00000E+00  9.000E+00
#rwgt            1           1   2.9146372617150185E-002           5       48696           0
</event>
<event>
      5   9999  3.19816E-02  4.72280E+01 -1.00000E+00  1.40504E-01
      21    -1     0     0   502   501  0.000000000E+00  0.000000000E+00  1.081797078E+03  1.081797078E+03  0.000000000E+00  0.00000E+00  9.000E+00
      21    -1     0     0   501   512  0.000000000E+00  0.000000000E+00 -5.828617555E+01  5.828617555E+01  0.000000000E+00  0.00000E+00  9.000E+00
      25     1     1     2     0     0  1.004060100E+02 -5.548669925E+01  1.336275097E+02  2.159663214E+02  1.250000000E+02  0.00000E+00  9.000E+00
      25     1     1     2     0     0 -6.444190594E+01  2.487515972E+01  8.511170703E+02  8.630161065E+02  1.250000000E+02  0.00000E+00  9.000E+00
      21     1     1     2   502   512 -3.596410407E+01  3.061153953E+01  3.876632253E+01  6.110082566E+01  9.536743164E-07  0.00000E+00  9.000E+00
#rwgt            1           1   2.7342556481565625E-002           5       48779           0
</event>
<event>
      5   9999  3.19816E-02  9.73344E+01 -1.00000E+00  1.24358E-01
      21    -1     0     0   502   511  0.000000000E+00  0.000000000E+00  8.133037156E+02  8.133037156E+02  0.000000000E+00  0.00000E+00  9.000E+00
      21    -1     0     0   501   502  0.000000000E+00  0.000000000E+00 -2.228137918E+02  2.228137918E+02  0.000000000E+00  0.00000E+00  9.000E+00
      25     1     1     2     0     0  2.415567307E+01  2.348306391E+02  3.514786327E+02  4.414647832E+02  1.250000000E+02  0.00000E+00  9.000E+00
      25     1     1     2     0     0 -2.003587305E+00 -3.296107374E+02  1.779700704E+01  3.529716505E+02  1.250000000E+02  0.00000E+00  9.000E+00
      21     1     1     2   501   511 -2.215208576E+01  9.478009834E+01  2.212142841E+02  2.416810738E+02  0.000000000E+00  0.00000E+00  9.000E+00
#rwgt            1           1   2.8688666836026288E-002           5       48963           0
</event>
<event>
      5   9999  3.19816E-02  1.70506E+02 -1.00000E+00  1.14230E-01
      21    -1     0     0   502   501  0.000000000E+00  0.000000000E+00  4.875333088E+02  4.875333088E+02  0.000000000E+00  0.00000E+00  9.000E+00
      21    -1     0     0   512   502  0.000000000E+00  0.000000000E+00 -2.282161452E+02  2.282161452E+02  0.000000000E+00  0.00000E+00  9.000E+00
      25     1     1     2     0     0  5.646089910E+01 -4.577708190E+01  2.238743156E+02  2.665109445E+02  1.250000000E+02  0.00000E+00  9.000E+00
      25     1     1     2     0     0 -2.234043777E+02  1.110507415E+01  8.781966822E+01  2.708692171E+02  1.250000000E+02  0.00000E+00  9.000E+00
      21     1     1     2   512   501  1.669434786E+02  3.467200776E+01 -5.237682023E+01  1.783692924E+02  4.264961200E-06  0.00000E+00  9.000E+00
#rwgt            1           1   2.7400089739082978E-002           5       49063           0
</event>
<event>
      5   9999  3.19816E-02  9.64882E+01 -1.00000E+00  1.24530E-01
      21    -1     0     0   502   501  0.000000000E+00  0.000000000E+00  6.800259473E+02  6.800259473E+02  0.000000000E+00  0.00000E+00  9.000E+00
      21    -1     0     0   501   511  0.000000000E+00  0.000000000E+00 -3.409879027E+02  3.409879027E+02  0.000000000E+00  0.00000E+00  9.000E+00
      25     1     1     2     0     0  7.181586401E+01  7.613040538E+01 -1.736978751E+02  2.382211342E+02  1.250000000E+02  0.00000E+00  9.000E+00
      25     1     1     2     0     0 -1.402779963E+02 -8.138439089E+00  6.144541125E+02  6.425908549E+02  1.250000000E+02  0.00000E+00  9.000E+00
      21     1     1     2   502   511  6.846213232E+01 -6.799196629E+01 -1.017181928E+02  1.402018609E+02  1.348699152E-06  0.00000E+00  9.000E+00
#rwgt            1           1   2.3754718568842127E-002           5       49105           0
</event>
<event>
      5   9999  3.19816E-02  1.05793E+02 -1.00000E+00  1.22738E-01
      21    -1     0     0   502   501  0.000000000E+00  0.000000000E+00  8.913291116E+01  8.913291116E+01  0.000000000E+00  0.00000E+00  9.000E+00
      21    -1     0     0   512   502  0.000000000E+00  0.000000000E+00 -9.783430576E+02  9.783430576E+02  0.000000000E+00  0.00000E+00  9.000E+00
      25     1     1     2     0     0  2.403811289E+02  1.326585850E+01 -4.000735994E+02  4.833662742E+02  1.250000000E+02  0.00000E+00  9.000E+00
      25     1     1     2     0     0 -1.549476191E+02 -7.566129379E+01 -3.112113415E+02  3.771085986E+02  1.250000000E+02  0.00000E+00  9.000E+00
      21     1     1     2   512   501 -8.543350984E+01  6.239543529E+01 -1.779252056E+02  2.070010960E+02  2.697398305E-06  0.00000E+00  9.000E+00
#rwgt            1           1   2.9476654814388211E-002           5       49178           0
</event>
<event>
      5   9999  3.19816E-02  3.49126E+01 -1.00000E+00  1.48602E-01
      21    -1     0     0   502   501  0.000000000E+00  0.000000000E+00  1.556366699E+02  1.556366699E+02  0.000000000E+00  0.00000E+00  9.000E+00
      21    -1     0     0   501   511  0.000000000E+00  0.000000000E+00 -7.949808553E+02  7.949808553E+02  0.000000000E+00  0.00000E+00  9.000E+00
      25     1     1     2     0     0 -4.480299571E+01  2.004009887E+02  6.527552944E+00  2.404900697E+02  1.250000000E+02  0.00000E+00  9.000E+00
      25     1     1     2     0     0  7.647318479E+01 -2.150941260E+02 -5.693543369E+02  6.260215587E+02  1.250000000E+02  0.00000E+00  9.000E+00
      21     1     1     2   502   511 -3.167018908E+01  1.469313725E+01 -7.651740144E+01  8.410589683E+01  0.000000000E+00  0.00000E+00  9.000E+00
#rwgt            1           1   2.7300970658516593E-002           5       49272           0
</event>
<event>
      5   9999  3.19816E-02  2.81714E+01 -1.00000E+00  1.54961E-01
      21    -1     0     0   502   512  0.000000000E+00  0.000000000E+00  8.466368306E+02  8.466368306E+02  0.000000000E+00  0.00000E+00  9.000E+00
      21    -1     0     0   501   502  0.000000000E+00  0.000000000E+00 -3.846759795E+02  3.846759795E+02  0.000000000E+00  0.00000E+00  9.000E+00
      25     1     1     2     0     0  2.583500882E+00  3.534796179E+02  3.939778623E+02  5.438732120E+02  1.250000000E+02  0.00000E+00  9.000E+00
      25     1     1     2     0     0  2.549531139E+01 -3.511971422E+02 -1.960144920E+02  4.219432718E+02  1.250000000E+02  0.00000E+00  9.000E+00
      21     1     1     2   501   512 -2.807881227E+01 -2.282475721E+00  2.639974808E+02  2.654963263E+02  3.814697266E-06  0.00000E+00  9.000E+00
#rwgt            1           1   3.0661149035831677E-002           5       49419           0
</event>
<event>
      5   9999  3.19816E-02  1.43762E+02 -1.00000E+00  1.17129E-01
      21    -1     0     0   502   501  0.000000000E+00  0.000000000E+00  4.014127741E+03  4.014127741E+03  0.000000000E+00  0.00000E+00  9.000E+00
      21    -1     0     0   501   511  0.000000000E+00  0.000000000E+00 -6.231017536E+02  6.231017536E+02  0.000000000E+00  0.00000E+00  9.000E+00
      25     1     1     2     0     0  3.214372400E+02  2.553796009E+02 -5.055436658E+02  6.631289753E+02  1.250000000E+02  0.00000E+00  9.000E+00
      25     1     1     2     0     0 -1.788500005E+02 -2.370419422E+02  3.766427115E+03  3.780181797E+03  1.250000000E+02  0.00000E+00  9.000E+00
      21     1     1     2   502   511 -1.425872396E+02 -1.833765871E+01  1.301425383E+02  1.939187224E+02  4.672030912E-06  0.00000E+00  9.000E+00
#rwgt            1           1   6.0144462264446162E-002           5       49565           0
</event>
<event>
      5   9999  3.19816E-02  1.49560E+02 -1.00000E+00  1.16444E-01
      21    -1     0     0   502   501  0.000000000E+00  0.000000000E+00  8.008042345E+02  8.008042345E+02  0.000000000E+00  0.00000E+00  9.000E+00
       1    -1     0     0   501     0  0.000000000E+00  0.000000000E+00 -2.956135692E+02  2.956135692E+02  0.000000000E+00  0.00000E+00  9.000E+00
      25     1     1     2     0     0  2.133356096E+02  1.880796918E+02  4.520985670E+02  5.485473244E+02  1.250000000E+02  0.00000E+00  9.000E+00
      25     1     1     2     0     0 -7.464801691E+01 -1.320967558E+02  2.388751732E+02  3.093674638E+02  1.250000000E+02  0.00000E+00  9.000E+00
       1     1     1     2   502     0 -1.386875927E+02 -5.598293607E+01 -1.857830749E+02  2.385030155E+02  2.697398305E-06  0.00000E+00  9.000E+00
#rwgt            1           1   2.7472325937697908E-002           5       49689           0
</event>
<event>
      5   9999  3.19816E-02  8.51384E+01 -1.00000E+00  1.27054E-01
      21    -1     0     0   502   501  0.000000000E+00  0.000000000E+00  5.201247773E+02  5.201247773E+02  0.000000000E+00  0.00000E+00  9.000E+00
      21    -1     0     0   511   502  0.000000000E+00  0.000000000E+00 -2.237784981E+02  2.237784981E+02  0.000000000E+00  0.00000E+00  9.000E+00
      25     1     1     2     0     0 -1.553645406E+02 -1.126200348E+02  2.698007230E+02  3.538910041E+02  1.250000000E+02  0.00000E+00  9.000E+00
      25     1     1     2     0     0  2.200008086E+02  1.680339869E+02  1.524236455E+01  3.041267930E+02  1.250000000E+02  0.00000E+00  9.000E+00
      21     1     1     2   511   501 -6.463626808E+01 -5.541395207E+01  1.130319163E+01  8.588547827E+01  1.079486029E-06  0.00000E+00  9.000E+00
#rwgt            2          11   3.2334127609813003E-003           5       49776           0
</event>
<event>
      5   9999  3.19816E-02  1.36847E+02 -1.00000E+00  1.17995E-01
      21    -1     0     0   512   501  0.000000000E+00  0.000000000E+00  1.033811415E+03  1.033811415E+03  0.000000000E+00  0.00000E+00  9.000E+00
      21    -1     0     0   501   502  0.000000000E+00  0.000000000E+00 -5.498664139E+02  5.498664139E+02  0.000000000E+00  0.00000E+00  9.000E+00
      25     1     1     2     0     0  1.733583780E+02  6.787492296E+01 -4.210480477E+02  4.770394018E+02  1.250000000E+02  0.00000E+00  9.000E+00
      25     1     1     2     0     0 -3.099402181E+02 -5.936433506E+01  2.118496808E+02  4.001154213E+02  1.250000000E+02  0.00000E+00  9.000E+00
      21     1     1     2   512   502  1.365818401E+02 -8.510587901E+00  6.931433684E+02  7.065230063E+02  1.078959322E-05  0.00000E+00  9.000E+00
#rwgt            1           1   3.1989632997649439E-002           5       49811           0
</event>
<event>
      5   9999  3.19816E-02  6.58036E+01 -1.00000E+00  1.32595E-01
      21    -1     0     0   502   501  0.000000000E+00  0.000000000E+00  3.303050002E+02  3.303050002E+02  0.000000000E+00  0.00000E+00  9.000E+00
      21    -1     0     0   501   511  0.000000000E+00  0.000000000E+00 -1.523508482E+03  1.523508482E+03  0.000000000E+00  0.00000E+00  9.000E+00
      25     1     1     2     0     0  3.234417032E+02 -5.388084730E+02 -4.546179513E+02  7.856408770E+02  1.250000000E+02  0.00000E+00  9.000E+00
      25     1     1     2     0     0 -3.564069161E+02  5.957594387E+02 -6.646585215E+02  9.692012943E+02  1.250000000E+02  0.00000E+00  9.000E+00
      21     1     1     2   502   511  3.296521284E+01 -5.695096565E+01 -7.392700946E+01  9.897131137E+01  9.536743164E-07  0.00000E+00  9.000E+00
#rwgt            1           1   2.6857199344345647E-002           5       49859           0
</event>
<event>
      5   9999  3.19816E-02  6.70032E+01 -1.00000E+00  1.32190E-01
      21    -1     0     0   502   501  0.000000000E+00  0.000000000E+00  1.338788589E+02  1.338788589E+02  0.000000000E+00  0.00000E+00  9.000E+00
       2    -1     0     0   501     0  0.000000000E+00  0.000000000E+00 -1.362146319E+03  1.362146319E+03  0.000000000E+00  0.00000E+00  9.000E+00
      25     1     1     2     0     0 -1.573655913E+02  2.338082337E+01 -4.772395403E+02  5.183562203E+02  1.250000000E+02  0.00000E+00  9.000E+00
      25     1     1     2     0     0  1.899369839E+02 -8.193450423E+01 -1.884225101E+01  2.424239082E+02  1.250000000E+02  0.00000E+00  9.000E+00
       2     1     1     2   502     0 -3.257139257E+01  5.855368086E+01 -7.321856683E+02  7.352450490E+02  0.000000000E+00  0.00000E+00  9.000E+00
#rwgt            1           1   1.8322004491614568E-002           5       50006           0
</event>
<event>
      5   9999  3.19816E-02  3.65726E+01 -1.00000E+00  1.47295E-01
       1    -1     0     0   502     0  0.000000000E+00  0.000000000E+00  1.500366257E+03  1.500366257E+03  0.000000000E+00  0.00000E+00  9.000E+00
      21    -1     0     0   501   502  0.000000000E+00  0.000000000E+00 -1.639501130E+03  1.639501130E+03  0.000000000E+00  0.00000E+00  9.000E+00
      25     1     1     2     0     0  7.792809976E+02 -6.873953133E+02 -1.112330653E+03  1.527316494E+03  1.250000000E+02  0.00000E+00  9.000E+00
      25     1     1     2     0     0 -7.427700123E+02  6.895174227E+02  4.983061601E+02  1.136255075E+03  1.250000000E+02  0.00000E+00  9.000E+00
       1     1     1     2   501     0 -3.651098534E+01 -2.122109410E+00  4.748896201E+02  4.762958185E+02  0.000000000E+00  0.00000E+00  9.000E+00
#rwgt            1           1   7.4494458361607716E-002           5       50099           0
</event>
<event>
      5   9999  3.19816E-02  3.70741E+01 -1.00000E+00  1.46916E-01
      21    -1     0     0   511   501  0.000000000E+00  0.000000000E+00  4.113207596E+02  4.113207596E+02  0.000000000E+00  0.00000E+00  9.000E+00
      21    -1     0     0   501   502  0.000000000E+00  0.000000000E+00 -2.118540476E+03  2.118540476E+03  0.000000000E+00  0.00000E+00  9.000E+00
      25     1     1     2     0     0 -2.363574101E+01  5.747547311E+02 -1.709204917E+03  1.807735627E+03  1.250000000E+02  0.00000E+00  9.000E+00
      25     1     1     2     0     0 -5.897518932E+00 -5.523433105E+02 -1.333291017E+02  5.818243401E+02  1.250000000E+02  0.00000E+00  9.000E+00
      21     1     1     2   511   502  2.953325994E+01 -2.241142057E+01  1.353143028E+02  1.403012679E+02  2.697398305E-06  0.00000E+00  9.000E+00
#rwgt            1           1   2.6804698690684126E-002           5       50324           0
</event>
<event>
      5   9999  3.19816E-02  1.19650E+02 -1.00000E+00  1.20422E-01
      21    -1     0     0   512   501  0.000000000E+00  0.000000000E+00  3.270272037E+03  3.270272037E+03  0.000000000E+00  0.00000E+00  9.000E+00
      21    -1     0     0   501   502  0.000000000E+00  0.000000000E+00 -2.107979940E+02  2.107979940E+02  0.000000000E+00  0.00000E+00  9.000E+00
      25     1     1     2     0     0  3.267439395E+02 -6.359125510E+02  1.766014566E+03  1.909339892E+03  1.250000000E+02  0.00000E+00  9.000E+00
      25     1     1     2     0     0 -2.110731175E+02  6.053117446E+02  6.654259190E+02  9.324005699E+02  1.250000000E+02  0.00000E+00  9.000E+00
      21     1     1     2   512   502 -1.156708220E+02  3.060080634E+01  6.280335581E+02  6.393295696E+02  7.629394531E-06  0.00000E+00  9.000E+00
#rwgt            1           1   2.3526158363834516E-002           5       50509           0
</event>
<event>
      5   9999  3.19816E-02  1.31163E+02 -1.00000E+00  1.18751E-01
      21    -1     0     0   502   501  0.000000000E+00  0.000000000E+00  4.976414454E+02  4.976414454E+02  0.000000000E+00  0.00000E+00  9.000E+00
      21    -1     0     0   511   502  0.000000000E+00  0.000000000E+00 -2.208011801E+03  2.208011801E+03  0.000000000E+00  0.00000E+00  9.000E+00
      25     1     1     2     0     0  4.385080736E+02  1.339664960E+02  2.004187746E+02  5.157800285E+02  1.250000000E+02  0.00000E+00  9.000E+00
      25     1     1     2     0     0 -3.149508449E+02 -8.995188476E+01 -8.679597439E+01  3.611702057E+02  1.250000000E+02  0.00000E+00  9.000E+00
      21     1     1     2   511   501 -1.235572287E+02 -4.401461125E+01 -1.823993156E+03  1.828703012E+03  0.000000000E+00  0.00000E+00  9.000E+00
#rwgt            1           1   2.9078473761158071E-002           5       50573           0
</event>
<event>
      5   9999  3.19816E-02  2.44319E+01 -1.00000E+00  1.59502E-01
      21    -1     0     0   512   501  0.000000000E+00  0.000000000E+00  2.278386795E+02  2.278386795E+02  0.000000000E+00  0.00000E+00  9.000E+00
      21    -1     0     0   501   502  0.000000000E+00  0.000000000E+00 -1.237298753E+03  1.237298753E+03  0.000000000E+00  0.00000E+00  9.000E+00
      25     1     1     2     0     0  2.230883033E+02  1.916938772E+02 -7.406260095E+02  8.066392128E+02  1.250000000E+02  0.00000E+00  9.000E+00
      25     1     1     2     0     0 -2.445343405E+02 -1.799897981E+02 -4.043024183E+02  5.208443304E+02  1.250000000E+02  0.00000E+00  9.000E+00
      21     1     1     2   512   502  2.144603717E+01 -1.170407909E+01  1.354683547E+02  1.376538888E+02  4.264961200E-06  0.00000E+00  9.000E+00
#rwgt            1           1   3.3235648950092282E-002           5       50674           0
</event>
<event>
      5   9999  3.19816E-02  2.77730E+01 -1.00000E+00  1.55403E-01
       2    -1     0     0   502     0  0.000000000E+00  0.000000000E+00  1.867407607E+03  1.867407607E+03  0.000000000E+00  0.00000E+00  9.000E+00
      21    -1     0     0   501   502  0.000000000E+00  0.000000000E+00 -5.358525022E+01  5.358525022E+01  0.000000000E+00  0.00000E+00  9.000E+00
      25     1     1     2     0     0 -8.684387924E+01  7.360010804E+01  2.249794715E+02  2.814242312E+02  1.250000000E+02  0.00000E+00  9.000E+00
      25     1     1     2     0     0  9.129997368E+01 -1.010133116E+02  1.599260277E+03  1.609906149E+03  1.250000000E+02  0.00000E+00  9.000E+00
       2     1     1     2   501     0 -4.456094446E+00  2.741320352E+01 -1.041739179E+01  2.966247725E+01  1.192092896E-07  0.00000E+00  9.000E+00
#rwgt            1           1   3.2121540785950684E-002           5       50817           0
</event>
<event>
      5   9999  3.19816E-02  7.51359E+01 -1.00000E+00  1.29682E-01
      21    -1     0     0   502   501  0.000000000E+00  0.000000000E+00  4.652551767E+02  4.652551767E+02  0.000000000E+00  0.00000E+00  9.000E+00
      21    -1     0     0   501   511  0.000000000E+00  0.000000000E+00 -3.643506888E+02  3.643506888E+02  0.000000000E+00  0.00000E+00  9.000E+00
      25     1     1     2     0     0 -2.229160904E+02 -2.709250118E+02 -5.711669772E+01  3.768013569E+02  1.250000000E+02  0.00000E+00  9.000E+00
      25     1     1     2     0     0  2.500744859E+02  2.008690986E+02  1.551853730E+02  3.776150729E+02  1.250000000E+02  0.00000E+00  9.000E+00
      21     1     1     2   502   511 -2.715839546E+01  7.005591313E+01  2.835812620E+00  7.518943570E+01  1.570783133E-06  0.00000E+00  9.000E+00
#rwgt            1           1   2.1158912088766618E-002           5       50920           0
</event>
<event>
      5   9999  3.19816E-02  1.93950E+02 -1.00000E+00  1.12136E-01
      21    -1     0     0   502   501  0.000000000E+00  0.000000000E+00  2.996285662E+02  2.996285662E+02  0.000000000E+00  0.00000E+00  9.000E+00
       2    -1     0     0   501     0  0.000000000E+00  0.000000000E+00 -3.282241733E+03  3.282241733E+03  0.000000000E+00  0.00000E+00  9.000E+00
      25     1     1     2     0     0  3.693588164E+02  5.491445241E+02 -1.019743209E+03  1.222082999E+03  1.250000000E+02  0.00000E+00  9.000E+00
      25     1     1     2     0     0 -1.758030109E+02 -5.615018121E+02 -2.760095178E+02  6.618135973E+02  1.250000000E+02  0.00000E+00  9.000E+00
       2     1     1     2   502     0 -1.935558054E+02  1.235728797E+01 -1.686860439E+03  1.697973702E+03  2.157918644E-05  0.00000E+00  9.000E+00
#rwgt            1           1   3.3664748214991567E-002           5       51002           0
</event>
<event>
      5   9999  3.19816E-02  2.52896E+02 -1.00000E+00  1.08060E-01
      21    -1     0     0   502   501  0.000000000E+00  0.000000000E+00  1.369426602E+03  1.369426602E+03  0.000000000E+00  0.00000E+00  9.000E+00
       2    -1     0     0   501     0  0.000000000E+00  0.000000000E+00 -8.773932976E+02  8.773932976E+02  0.000000000E+00  0.00000E+00  9.000E+00
      25     1     1     2     0     0 -6.710165044E+01 -1.426819852E+02  2.315880213E+02  3.067878616E+02  1.250000000E+02  0.00000E+00  9.000E+00
      25     1     1     2     0     0 -1.359472364E+02 -8.074993982E+00 -8.147693393E+02  8.354764706E+02  1.250000000E+02  0.00000E+00  9.000E+00
       2     1     1     2   502     0  2.030488868E+02  1.507569791E+02  1.075214622E+03  1.104555567E+03  1.525878906E-05  0.00000E+00  9.000E+00
#rwgt            2          13   2.2010325641327418E-005           5       51131           0
</event>
<event>
      5   9999  3.19816E-02  3.54305E+01 -1.00000E+00  1.48185E-01
      21    -1     0     0   502   501  0.000000000E+00  0.000000000E+00  3.957555200E+02  3.957555200E+02  0.000000000E+00  0.00000E+00  9.000E+00
      21    -1     0     0   511   502  0.000000000E+00  0.000000000E+00 -2.374287461E+02  2.374287461E+02  0.000000000E+00  0.00000E+00  9.000E+00
      25     1     1     2     0     0 -4.134068897E+01  1.334294214E+02  1.092499660E+02  2.169631723E+02  1.250000000E+02  0.00000E+00  9.000E+00
      25     1     1     2     0     0  6.133353757E+00 -1.294586425E+02  1.953745747E+02  2.656941523E+02  1.250000000E+02  0.00000E+00  9.000E+00
      21     1     1     2   511   501  3.520733521E+01 -3.970778964E+00 -1.462977668E+02  1.505269415E+02  1.907348633E-06  0.00000E+00  9.000E+00
#rwgt            1           1   2.5729078629218211E-002           5       51165           0
</event>
<event>
      5   9999  3.19816E-02  2.08971E+01 -1.00000E+00  1.64812E-01
      21    -1     0     0   502   512  0.000000000E+00  0.000000000E+00  3.572371668E+02  3.572371668E+02  0.000000000E+00  0.00000E+00  9.000E+00
      21    -1     0     0   501   502  0.000000000E+00  0.000000000E+00 -2.441912761E+02  2.441912761E+02  0.000000000E+00  0.00000E+00  9.000E+00
      25     1     1     2     0     0 -5.237528848E+01  1.065959633E+02  2.864335113E+02  3.343277234E+02  1.250000000E+02  0.00000E+00  9.000E+00
      25     1     1     2     0     0  3.440575201E+01 -9.592899868E+01 -1.831472076E+02  2.440369403E+02  1.250000000E+02  0.00000E+00  9.000E+00
      21     1     1     2   501   512  1.796953647E+01 -1.066696466E+01  9.759587016E+00  2.306377928E+01  5.331201500E-07  0.00000E+00  9.000E+00
#rwgt            1           1   2.6905316818235478E-002           5       51261           0
</event>
<event>
      5   9999  3.19816E-02  7.81293E+01 -1.00000E+00  1.28849E-01
      21    -1     0     0   511   501  0.000000000E+00  0.000000000E+00  2.011911947E+03  2.011911947E+03  0.000000000E+00  0.00000E+00  9.000E+00
      21    -1     0     0   501   502  0.000000000E+00  0.000000000E+00 -4.543529184E+02  4.543529184E+02  0.000000000E+00  0.00000E+00  9.000E+00
      25     1     1     2     0     0 -1.446269962E+02 -5.653696033E+01 -4.151042496E+02  4.604887990E+02  1.250000000E+02  0.00000E+00  9.000E+00
      25     1     1     2     0     0  1.164989507E+02  1.294272668E+02  1.835077880E+03  1.847554938E+03  1.250000000E+02  0.00000E+00  9.000E+00
      21     1     1     2   511   502  2.812804552E+01 -7.289030646E+01  1.375853983E+02  1.582211287E+02  3.814697266E-06  0.00000E+00  9.000E+00
#rwgt            1           1   3.7507961402217481E-002           5       51444           0
</event>
<event>
      5   9999  3.19816E-02  4.23399E+02 -1.00000E+00  1.00948E-01
       1    -1     0     0   502     0  0.000000000E+00  0.000000000E+00  5.290665990E+03  5.290665990E+03  0.000000000E+00  0.00000E+00  9.000E+00
      21    -1     0     0   501   502  0.000000000E+00  0.000000000E+00 -5.271598928E+01  5.271598928E+01  0.000000000E+00  0.00000E+00  9.000E+00
      25     1     1     2     0     0  3.922051846E+01  3.255159532E+02  2.287856274E+03  2.314608005E+03  1.250000000E+02  0.00000E+00  9.000E+00
      25     1     1     2     0     0 -1.780400516E+02  7.447860047E+01  1.520900613E+03  1.538183668E+03  1.250000000E+02  0.00000E+00  9.000E+00
       1     1     1     2   501     0  1.388195332E+02 -3.999945537E+02  1.429193114E+03  1.490590306E+03  3.051757812E-05  0.00000E+00  9.000E+00
#rwgt            2          17   7.6743425803779043E-005           5       51600           0
</event>
<event>
      5   9999  3.19816E-02  2.10802E+01 -1.00000E+00  1.64506E-01
      21    -1     0     0   502   501  0.000000000E+00  0.000000000E+00  1.363216995E+03  1.363216995E+03  0.000000000E+00  0.00000E+00  9.000E+00
      21    -1     0     0   501   511  0.000000000E+00  0.000000000E+00 -3.996065055E+01  3.996065055E+01  0.000000000E+00  0.00000E+00  9.000E+00
      25     1     1     2     0     0 -1.371016103E+02 -2.021507017E+01  2.722470104E+02  3.300741361E+02  1.250000000E+02  0.00000E+00  9.000E+00
      25     1     1     2     0     0  1.295228125E+02  3.988576520E+01  1.012988115E+03  1.029629523E+03  1.250000000E+02  0.00000E+00  9.000E+00
      21     1     1     2   502   511  7.578797865E+00 -1.967069503E+01  3.802121951E+01  4.347398709E+01  0.000000000E+00  0.00000E+00  9.000E+00
#rwgt            1           1   3.7226198327329048E-002           5       51619           0
</event>
<event>
      5   9999  3.19816E-02  1.67233E+01 -1.00000E+00  1.73047E-01
      21    -1     0     0   502   512  0.000000000E+00  0.000000000E+00  6.080517084E+02  6.080517084E+02  0.000000000E+00  0.00000E+00  9.000E+00
      21    -1     0     0   501   502  0.000000000E+00  0.000000000E+00 -7.364675336E+01  7.364675336E+01  0.000000000E+00  0.00000E+00  9.000E+00
      25     1     1     2     0     0  5.127060250E+01  2.565976593E+01  2.251257861E+01  1.393517652E+02  1.250000000E+02  0.00000E+00  9.000E+00
      25     1     1     2     0     0 -4.444108404E+01 -1.039454832E+01  2.817173560E+02  3.115649615E+02  1.250000000E+02  0.00000E+00  9.000E+00
      21     1     1     2   501   512 -6.829518453E+00 -1.526521761E+01  2.301750205E+02  2.307817351E+02  2.697398305E-06  0.00000E+00  9.000E+00
#rwgt            1           1   2.8839845761628829E-002           5       51763           0
</event>
<event>
      5   9999  3.19816E-02  2.60617E+01 -1.00000E+00  1.57410E-01
      21    -1     0     0   502   511  0.000000000E+00  0.000000000E+00  6.246005740E+02  6.246005740E+02  0.000000000E+00  0.00000E+00  9.000E+00
      21    -1     0     0   501   502  0.000000000E+00  0.000000000E+00 -2.863884322E+02  2.863884322E+02  0.000000000E+00  0.00000E+00  9.000E+00
      25     1     1     2     0     0 -2.982917486E+02  1.037795473E+02  3.139809189E+01  3.411143531E+02  1.250000000E+02  0.00000E+00  9.000E+00
      25     1     1     2     0     0  2.737853631E+02 -1.126480448E+02  6.652274120E+01  3.281741643E+02  1.250000000E+02  0.00000E+00  9.000E+00
      21     1     1     2   501   511  2.450638552E+01  8.868497423E+00  2.402913088E+02  2.417004887E+02  2.697398305E-06  0.00000E+00  9.000E+00
#rwgt            1           1   2.8214733481491734E-002           5       51905           0
</event>
<event>
      5   9999  3.19816E-02  2.35607E+02 -1.00000E+00  1.09117E-01
      21    -1     0     0   512   501  0.000000000E+00  0.000000000E+00  5.629762019E+02  5.629762019E+02  0.000000000E+00  0.00000E+00  9.000E+00
      21    -1     0     0   501   502  0.000000000E+00  0.000000000E+00 -1.082771509E+03  1.082771509E+03  0.000000000E+00  0.00000E+00  9.000E+00
      25     1     1     2     0     0 -4.499587726E+02  3.662439774E+02 -6.867011035E+02  9.076237952E+02  1.250000000E+02  0.00000E+00  9.000E+00
      25     1     1     2     0     0  4.475222970E+02 -1.306498693E+02  9.649815014E+01  4.922219902E+02  1.250000000E+02  0.00000E+00  9.000E+00
      21     1     1     2   512   502  2.436475639E+00 -2.355941081E+02  7.040764646E+01  2.459019253E+02  1.348699152E-06  0.00000E+00  9.000E+00
#rwgt            2          11   5.4020818606764194E-003           5       52036           0
</event>
<event>
      5   9999  3.19816E-02  3.49101E+01 -1.00000E+00  1.48604E-01
      21    -1     0     0   502   511  0.000000000E+00  0.000000000E+00  3.414378645E+02  3.414378645E+02  0.000000000E+00  0.00000E+00  9.000E+00
      21    -1     0     0   501   502  0.000000000E+00  0.000000000E+00 -2.201936034E+02  2.201936034E+02  0.000000000E+00  0.00000E+00  9.000E+00
      25     1     1     2     0     0  8.645506956E+01  5.175961052E+01 -1.530282247E+02  2.218021053E+02  1.250000000E+02  0.00000E+00  9.000E+00
      25     1     1     2     0     0 -1.055680973E+02 -2.254650304E+01  2.356814346E+02  2.877910815E+02  1.250000000E+02  0.00000E+00  9.000E+00
      21     1     1     2   501   511  1.911302773E+01 -2.921310748E+01  3.859105120E+01  5.203828120E+01  6.743495762E-07  0.00000E+00  9.000E+00
#rwgt            1           1   2.8410802291642320E-002           5       52056           0
</event>
<event>
      5   9999  3.19816E-02  2.59924E+01 -1.00000E+00  1.57495E-01
       2    -1     0     0   502     0  0.000000000E+00  0.000000000E+00  2.032049277E+03  2.032049277E+03  0.000000000E+00  0.00000E+00  9.000E+00
      21    -1     0     0   501   502  0.000000000E+00  0.000000000E+00 -5.191583448E+02  5.191583448E+02  0.000000000E+00  0.00000E+00  9.000E+00
      25     1     1     2     0     0 -1.437602254E+02 -5.351287585E+02  5.624003167E+02  7.993427968E+02  1.250000000E+02  0.00000E+00  9.000E+00
      25     1     1     2     0     0  1.186196934E+02  5.285290542E+02 -2.076531841E+02  5.934293873E+02  1.250000000E+02  0.00000E+00  9.000E+00
       2     1     1     2   501     0  2.514053201E+01  6.599704271E+00  1.158143800E+03  1.158435438E+03  1.525878906E-05  0.00000E+00  9.000E+00
#rwgt            1           1   3.1245311266691667E-002           5       52161           0
</event>
<event>
      5   9999  3.19816E-02  2.28789E+01 -1.00000E+00  1.61690E-01
      21    -1     0     0   502   511  0.000000000E+00  0.000000000E+00  1.239734560E+02  1.239734560E+02  0.000000000E+00  0.00000E+00  9.000E+00
      21    -1     0     0   501   502  0.000000000E+00  0.000000000E+00 -4.444497260E+02  4.444497260E+02  0.000000000E+00  0.00000E+00  9.000E+00
      25     1     1     2     0     0 -1.764017209E+02  3.132727901E+00 -2.032043938E+02  2.967227777E+02  1.250000000E+02  0.00000E+00  9.000E+00
      25     1     1     2     0     0  1.581925356E+02  1.071889776E+01 -1.348961193E+02  2.428203783E+02  1.250000000E+02  0.00000E+00  9.000E+00
      21     1     1     2   501   511  1.820918526E+01 -1.385162566E+01  1.762424310E+01  2.888002608E+01  5.840038640E-07  0.00000E+00  9.000E+00
#rwgt            1           1   3.2064380308621569E-002           5       52274           0
</event>
<event>
      5   9999  3.19816E-02  2.56234E+01 -1.00000E+00  1.57954E-01
      21    -1     0     0   502   501  0.000000000E+00  0.000000000E+00  4.889321653E+02  4.889321653E+02  0.000000000E+00  0.00000E+00  9.000E+00
      21    -1     0     0   512   502  0.000000000E+00  0.000000000E+00 -7.383405164E+02  7.383405164E+02  0.000000000E+00  0.00000E+00  9.000E+00
      25     1     1     2     0     0  1.306607379E+02 -2.795818557E+02  2.358258352E+02  4.080160132E+02  1.250000000E+02  0.00000E+00  9.000E+00
      25     1     1     2     0     0 -1.059654883E+02  2.864159681E+02  3.352514490E+00  3.299985316E+02  1.250000000E+02  0.00000E+00  9.000E+00
      21     1     1     2   512   501 -2.469524961E+01 -6.834112380E+00 -4.885867008E+02  4.892581370E+02  0.000000000E+00  0.00000E+00  9.000E+00
#rwgt            1           1   2.8556011277714819E-002           5       52397           0
</event>
<event>
      5   9999  3.19816E-02  1.66831E+01 -1.00000E+00  1.73140E-01
      21    -1     0     0   502   501  0.000000000E+00  0.000000000E+00  1.253647010E+03  1.253647010E+03  0.000000000E+00  0.00000E+00  9.000E+00
      21    -1     0     0   511   502  0.000000000E+00  0.000000000E+00 -4.198166526E+02  4.198166526E+02  0.000000000E+00  0.00000E+00  9.000E+00
      25     1     1     2     0     0 -5.305788813E+02  4.089824411E+02  6.366630108E+02  9.326014024E+02  1.250000000E+02  0.00000E+00  9.000E+00
      25     1     1     2     0     0  5.430042394E+02 -3.978498353E+02  2.138361990E+02  7.172788965E+02  1.250000000E+02  0.00000E+00  9.000E+00
      21     1     1     2   511   501 -1.242535807E+01 -1.113260580E+01 -1.666885202E+01  2.358336411E+01  2.384185791E-07  0.00000E+00  9.000E+00
#rwgt            1           1   2.8655578528979361E-002           5       52543           0
</event>
<event>
      5   9999  3.19816E-02  8.56316E+02 -1.00000E+00  9.26380E-02
      21    -1     0     0   502   501  0.000000000E+00  0.000000000E+00  5.195884028E+02  5.195884028E+02  0.000000000E+00  0.00000E+00  9.000E+00
      21    -1     0     0   501   512  0.000000000E+00  0.000000000E+00 -2.279856312E+03  2.279856312E+03  0.000000000E+00  0.00000E+00  9.000E+00
      25     1     1     2     0     0  3.393596075E+02 -5.462718507E+02 -2.463301760E+01  6.555987062E+02  1.250000000E+02  0.00000E+00  9.000E+00
      25     1     1     2     0     0  3.747755069E+02  7.373724469E+01 -5.358154965E+02  6.697888534E+02  1.250000000E+02  0.00000E+00  9.000E+00
      21     1     1     2   502   512 -7.141351144E+02  4.725346060E+02 -1.199819395E+03  1.474057155E+03  3.411968960E-05  0.00000E+00  9.000E+00
#rwgt            2          11   7.3286425116038498E-004           5       52807           0
</event>
<event>
      5   9999  3.19816E-02  1.38971E+01 -1.00000E+00  1.80566E-01
      21    -1     0     0   511   501  0.000000000E+00  0.000000000E+00  2.303555674E+02  2.303555674E+02  0.000000000E+00  0.00000E+00  9.000E+00
      21    -1     0     0   501   502  0.000000000E+00  0.000000000E+00 -9.862493023E+02  9.862493023E+02  0.000000000E+00  0.00000E+00  9.000E+00
      25     1     1     2     0     0  2.200226292E+01 -2.085025162E+02 -8.955528170E+02  9.282226279E+02  1.250000000E+02  0.00000E+00  9.000E+00
      25     1     1     2     0     0 -2.685243038E+01  1.954792301E+02  1.432805797E+02  2.740209973E+02  1.250000000E+02  0.00000E+00  9.000E+00
      21     1     1     2   511   502  4.850167466E+00  1.302328602E+01 -3.621497548E+00  1.436124464E+01  3.182017282E-07  0.00000E+00  9.000E+00
#rwgt            1           1   2.8915202069122969E-002           5       52917           0
</event>
<event>
      5   9999  3.19816E-02  4.30873E+01 -1.00000E+00  1.42866E-01
      21    -1     0     0   502   501  0.000000000E+00  0.000000000E+00  3.760681681E+02  3.760681681E+02  0.000000000E+00  0.00000E+00  9.000E+00
      -2    -1     0     0     0   502  0.000000000E+00  0.000000000E+00 -9.619494788E+02  9.619494788E+02  0.000000000E+00  0.00000E+00  9.000E+00
      25     1     1     2     0     0 -9.586050249E+00 -3.096386119E+02 -1.319999864E+02  3.591893076E+02  1.250000000E+02  0.00000E+00  9.000E+00
      25     1     1     2     0     0 -2.682261767E+01  2.865967355E+02  1.676583698E+02  3.557969513E+02  1.250000000E+02  0.00000E+00  9.000E+00
      -2     1     1     2     0   501  3.640866792E+01  2.304187633E+01 -6.215396940E+02  6.230313879E+02  7.629394531E-06  0.00000E+00  9.000E+00
#rwgt            1           1   3.0001516582945108E-002           5       53139           0
</event>
<event>
      5   9999  3.19816E-02  5.54335E+01 -1.00000E+00  1.36567E-01
      21    -1     0     0   502   501  0.000000000E+00  0.000000000E+00  7.374788503E+02  7.374788503E+02  0.000000000E+00  0.00000E+00  9.000E+00
      21    -1     0     0   501   511  0.000000000E+00  0.000000000E+00 -3.306093470E+02  3.306093470E+02  0.000000000E+00  0.00000E+00  9.000E+00
      25     1     1     2     0     0 -1.924194353E+02 -3.836118303E+02  3.770308875E+02  5.847739440E+02  1.250000000E+02  0.00000E+00  9.000E+00
      25     1     1     2     0     0  1.369868169E+02  3.839207519E+02  1.870172052E+01  4.267731085E+02  1.250000000E+02  0.00000E+00  9.000E+00
      21     1     1     2   502   511  5.543261842E+01 -3.089216064E-01  1.113689534E+01  5.654114480E+01  5.331201500E-07  0.00000E+00  9.000E+00
#rwgt            1           1   2.8899063290324135E-002           5       53184           0
</event>
<event>
      5   9999  3.19816E-02  4.24782E+01 -1.00000E+00  1.43239E-01
      21    -1     0     0   502   501  0.000000000E+00  0.000000000E+00  4.198615879E+02  4.198615879E+02  0.000000000E+00  0.00000E+00  9.000E+00
      21    -1     0     0   512   502  0.000000000E+00  0.000000000E+00 -2.173264295E+02  2.173264295E+02  0.000000000E+00  0.00000E+00  9.000E+00
      25     1     1     2     0     0 -1.414216701E+02  1.890279436E+01  3.377396728E+02  3.873635127E+02  1.250000000E+02  0.00000E+00  9.000E+00
      25     1     1     2     0     0  1.076667392E+02  6.884822396E+00 -1.221345546E+02  2.053810531E+02  1.250000000E+02  0.00000E+00  9.000E+00
      21     1     1     2   512   501  3.375493082E+01 -2.578761676E+01 -1.306995981E+01  4.444345151E+01  4.129530925E-07  0.00000E+00  9.000E+00
#rwgt            1           1   2.7154765101471801E-002           5       53269           0
</event>
<event>
      5   9999  3.19816E-02  2.44222E+01 -1.00000E+00  1.59515E-01
      21    -1     0     0   511   501  0.000000000E+00  0.000000000E+00  8.538814639E+02  8.538814639E+02  0.000000000E+00  0.00000E+00  9.000E+00
      21    -1     0     0   501   502  0.000000000E+00  0.000000000E+00 -3.297383912E+02  3.297383912E+02  0.000000000E+00  0.00000E+00  9.000E+00
      25     1     1     2     0     0  2.797427328E+02  4.062213753E+02  1.347747806E+02  5.263658840E+02  1.250000000E+02  0.00000E+00  9.000E+00
      25     1     1     2     0     0 -2.573233727E+02 -3.965355737E+02  3.216559763E+02  5.852720277E+02  1.250000000E+02  0.00000E+00  9.000E+00
      21     1     1     2   511   502 -2.241936008E+01 -9.685801568E+00  6.771231584E+01  7.198194340E+01  0.000000000E+00  0.00000E+00  9.000E+00
#rwgt            1           1   3.1654527454044602E-002           5       53395           0
</event>
<event>
      5   9999  3.19816E-02  1.80154E+01 -1.00000E+00  1.70203E-01
      21    -1     0     0   502   501  0.000000000E+00  0.000000000E+00  5.183393809E+02  5.183393809E+02  0.000000000E+00  0.00000E+00  9.000E+00
      21    -1     0     0   512   502  0.000000000E+00  0.000000000E+00 -6.025392002E+02  6.025392002E+02  0.000000000E+00  0.00000E+00  9.000E+00
      25     1     1     2     0     0 -1.527556179E+02 -4.708515134E+01  3.761896063E+02  4.274282515E+02  1.250000000E+02  0.00000E+00  9.000E+00
      25     1     1     2     0     0  1.436208166E+02  6.261281365E+01  3.005845160E+01  2.026716899E+02  1.250000000E+02  0.00000E+00  9.000E+00
      21     1     1     2   512   501  9.134801329E+00 -1.552766231E+01 -4.904478772E+02  4.907786397E+02  0.000000000E+00  0.00000E+00  9.000E+00
#rwgt            1           1   2.8401296378269901E-002           5       53515           0
</event>
<event>
      5   9999  3.19816E-02  2.97792E+02 -1.00000E+00  1.05696E-01
      21    -1     0     0   502   501  0.000000000E+00  0.000000000E+00  6.713411846E+02  6.713411846E+02  0.000000000E+00  0.00000E+00  9.000E+00
      21    -1     0     0   511   502  0.000000000E+00  0.000000000E+00 -1.335000537E+03  1.335000537E+03  0.000000000E+00  0.00000E+00  9.000E+00
      25     1     1     2     0     0  6.191761030E+01 -5.539331202E+02 -4.268127879E+02  7.130707174E+02  1.250000000E+02  0.00000E+00  9.000E+00
      25     1     1     2     0     0  7.465995787E+01  8.185583900E+02  1.071508140E+02  8.382829141E+02  1.250000000E+02  0.00000E+00  9.000E+00
      21     1     1     2   511   501 -1.365775682E+02 -2.646252698E+02 -3.439973783E+02  4.549880897E+02  3.814697266E-06  0.00000E+00  9.000E+00
#rwgt            2          11   3.5688030727354133E-003           5       53681           0
</event>
<event>
      5   9999  3.19816E-02  1.09400E+02 -1.00000E+00  1.22098E-01
       1    -1     0     0   502     0  0.000000000E+00  0.000000000E+00  6.435191873E+02  6.435191873E+02  0.000000000E+00  0.00000E+00  9.000E+00
      21    -1     0     0   501   502  0.000000000E+00  0.000000000E+00 -5.584216434E+02  5.584216434E+02  0.000000000E+00  0.00000E+00  9.000E+00
      25     1     1     2     0     0  1.034836982E+02 -6.172634057E+00 -4.910428946E+02  5.171992861E+02  1.250000000E+02  0.00000E+00  9.000E+00
      25     1     1     2     0     0 -1.898583682E+02 -6.096728064E+01  2.624264376E+02  3.524994247E+02  1.250000000E+02  0.00000E+00  9.000E+00
       1     1     1     2   501     0  8.637467002E+01  6.713991470E+01  3.137140009E+02  3.322421198E+02  3.814697266E-06  0.00000E+00  9.000E+00
#rwgt            1           1   2.8173401281072027E-002           5       53701           0
</event>
<event>
      5   9999  3.19816E-02  4.24517E+01 -1.00000E+00  1.43256E-01
      21    -1     0     0   502   501  0.000000000E+00  0.000000000E+00  3.412870147E+02  3.412870147E+02  0.000000000E+00  0.00000E+00  9.000E+00
      21    -1     0     0   501   511  0.000000000E+00  0.000000000E+00 -4.999965422E+02  4.999965422E+02  0.000000000E+00  0.00000E+00  9.000E+00
      25     1     1     2     0     0 -1.344426074E+01  3.286600161E+02  4.670201742E+01  3.549707491E+02  1.250000000E+02  0.00000E+00  9.000E+00
      25     1     1     2     0     0  4.697997119E+01 -3.546888985E+02 -1.316513668E+02  4.012086923E+02  1.250000000E+02  0.00000E+00  9.000E+00
      21     1     1     2   502   511 -3.353571045E+01  2.602888242E+01 -7.376017817E+01  8.510411552E+01  1.348699152E-06  0.00000E+00  9.000E+00
#rwgt            2          11   2.0554855481327572E-003           5       53876           0
</event>
<event>
      5   9999  3.19816E-02  7.56181E+01 -1.00000E+00  1.29545E-01
      21    -1     0     0   502   501  0.000000000E+00  0.000000000E+00  8.005452441E+02  8.005452441E+02  0.000000000E+00  0.00000E+00  9.000E+00
      -4    -1     0     0     0   502  0.000000000E+00  0.000000000E+00 -8.594444299E+02  8.594444299E+02  0.000000000E+00  0.00000E+00  9.000E+00
      25     1     1     2     0     0  4.299705954E+02  2.268596699E+02 -6.409308301E+02  8.140991044E+02  1.250000000E+02  0.00000E+00  9.000E+00
      25     1     1     2     0     0 -3.651441731E+02 -1.879285644E+02  6.255279272E+02  7.586551260E+02  1.250000000E+02  0.00000E+00  9.000E+00
      -4     1     1     2     0   501 -6.482642234E+01 -3.893110554E+01 -4.349628292E+01  8.723544371E+01  1.430511475E-06  0.00000E+00  9.000E+00
#rwgt            1           1   2.2859510868812060E-002           5       53896           0
</event>
<event>
      5   9999  3.19816E-02  1.35988E+02 -1.00000E+00  1.18107E-01
      21    -1     0     0   502   511  0.000000000E+00  0.000000000E+00  1.136998173E+03  1.136998173E+03  0.000000000E+00  0.00000E+00  9.000E+00
      21    -1     0     0   501   502  0.000000000E+00  0.000000000E+00 -2.118029351E+02  2.118029351E+02  0.000000000E+00  0.00000E+00  9.000E+00
      25     1     1     2     0     0 -7.604206840E+01  3.017168131E+01 -1.611510556E+02  2.197439174E+02  1.250000000E+02  0.00000E+00  9.000E+00
      25     1     1     2     0     0  4.644349509E+01  1.025559607E+02  5.163063451E+02  5.430211463E+02  1.250000000E+02  0.00000E+00  9.000E+00
      21     1     1     2   501   511  2.959857331E+01 -1.327276421E+02  5.700399482E+02  5.860360442E+02  7.629394531E-06  0.00000E+00  9.000E+00
#rwgt            1           1   2.8838142782283808E-002           5       54028           0
</event>
<event>
      5   9999  3.19816E-02  4.32997E+02 -1.00000E+00  1.00660E-01
       2    -1     0     0   502     0  0.000000000E+00  0.000000000E+00  3.786205261E+03  3.786205261E+03  0.000000000E+00  0.00000E+00  9.000E+00
      21    -1     0     0   501   502  0.000000000E+00  0.000000000E+00 -1.202888184E+02  1.202888184E+02  0.000000000E+00  0.00000E+00  9.000E+00
      25     1     1     2     0     0 -5.969679859E+02  1.220931775E+02  2.035640526E+03  2.128552294E+03  1.250000000E+02  0.00000E+00  9.000E+00
      25     1     1     2     0     0  1.640877942E+02 -1.321489351E+02  3.562902309E+02  4.323839426E+02  1.250000000E+02  0.00000E+00  9.000E+00
       2     1     1     2   501     0  4.328801917E+02  1.005575753E+01  1.273985686E+03  1.345557842E+03  2.157918644E-05  0.00000E+00  9.000E+00
#rwgt            2          18   4.4581726463539251E-003           5       54306           0
</event>
<event>
      5   9999  3.19816E-02  5.88366E+01 -1.00000E+00  1.35159E-01
      21    -1     0     0   502   501  0.000000000E+00  0.000000000E+00  3.869724497E+02  3.869724497E+02  0.000000000E+00  0.00000E+00  9.000E+00
      21    -1     0     0   501   511  0.000000000E+00  0.000000000E+00 -5.238956058E+02  5.238956058E+02  0.000000000E+00  0.00000E+00  9.000E+00
      25     1     1     2     0     0 -4.692412314E+01 -2.531469782E+02  1.025014002E+02  3.040013206E+02  1.250000000E+02  0.00000E+00  9.000E+00
      25     1     1     2     0     0 -7.557190629E+00  2.309312821E+02  8.580483978E+01  2.763581711E+02  1.250000000E+02  0.00000E+00  9.000E+00
      21     1     1     2   502   511  5.448131377E+01  2.221569611E+01 -3.252293960E+02  3.305085638E+02  3.814697266E-06  0.00000E+00  9.000E+00
#rwgt            1           1   2.7417206156921479E-002           5       54340           0
</event>
<event>
      5   9999  3.19816E-02  6.66281E+01 -1.00000E+00  1.32316E-01
      21    -1     0     0   502   512  0.000000000E+00  0.000000000E+00  4.359813532E+02  4.359813532E+02  0.000000000E+00  0.00000E+00  9.000E+00
      21    -1     0     0   501   502  0.000000000E+00  0.000000000E+00 -8.898649668E+02  8.898649668E+02  0.000000000E+00  0.00000E+00  9.000E+00
      25     1     1     2     0     0  1.183515269E+02 -4.661216553E+01 -7.011215162E+02  7.234474123E+02  1.250000000E+02  0.00000E+00  9.000E+00
      25     1     1     2     0     0 -1.481911017E+02 -1.296046218E+01 -1.205258692E+02  2.286483356E+02  1.250000000E+02  0.00000E+00  9.000E+00
      21     1     1     2   501   512  2.983957488E+01  5.957262771E+01  3.677637719E+02  3.737505721E+02  5.394796609E-06  0.00000E+00  9.000E+00
#rwgt            1           1   3.1326677556330618E-002           5       54427           0
</event>
<event>
      5   9999  3.19816E-02  5.04115E+01 -1.00000E+00  1.38873E-01
      21    -1     0     0   502   501  0.000000000E+00  0.000000000E+00  4.939304000E+02  4.939304000E+02  0.000000000E+00  0.00000E+00  9.000E+00
      21    -1     0     0   501   511  0.000000000E+00  0.000000000E+00 -4.368934142E+02  4.368934142E+02  0.000000000E+00  0.00000E+00  9.000E+00
      25     1     1     2     0     0  1.370758462E+02  2.656467869E+02  4.228227910E+01  3.267580055E+02  1.250000000E+02  0.00000E+00  9.000E+00
      25     1     1     2     0     0 -1.776217591E+02 -2.956026332E+02  1.960293152E+02  4.159121283E+02  1.250000000E+02  0.00000E+00  9.000E+00
      21     1     1     2   502   511  4.054591297E+01  2.995584627E+01 -1.812746085E+02  1.881536804E+02  3.814697266E-06  0.00000E+00  9.000E+00
#rwgt            1           1   3.4955940391475662E-002           5       54503           0
</event>
<event>
      5   9999  3.19816E-02  4.30235E+01 -1.00000E+00  1.42904E-01
      21    -1     0     0   512   501  0.000000000E+00  0.000000000E+00  5.160338969E+02  5.160338969E+02  0.000000000E+00  0.00000E+00  9.000E+00
      21    -1     0     0   501   502  0.000000000E+00  0.000000000E+00 -7.279077043E+01  7.279077043E+01  0.000000000E+00  0.00000E+00  9.000E+00
      25     1     1     2     0     0 -7.411053071E+00 -5.402304262E+00  3.565584500E+02  3.779458121E+02  1.250000000E+02  0.00000E+00  9.000E+00
      25     1     1     2     0     0  5.008317863E+01  1.088994435E+01  2.776529488E+01  1.379232659E+02  1.250000000E+02  0.00000E+00  9.000E+00
      21     1     1     2   512   502 -4.267212556E+01 -5.487640084E+00  5.891938161E+01  7.295558939E+01  6.743495762E-07  0.00000E+00  9.000E+00
#rwgt            1           1   3.0645090239297845E-002           5       54616           0
</event>
<event>
      5   9999  3.19816E-02  3.92860E+01 -1.00000E+00  1.45327E-01
      21    -1     0     0   511   501  0.000000000E+00  0.000000000E+00  2.370610870E+02  2.370610870E+02  0.000000000E+00  0.00000E+00  9.000E+00
      21    -1     0     0   501   502  0.000000000E+00  0.000000000E+00 -9.356869062E+02  9.356869062E+02  0.000000000E+00  0.00000E+00  9.000E+00
      25     1     1     2     0     0 -2.881788385E+02  6.751540171E+01 -3.682664914E+02  4.887234198E+02  1.250000000E+02  0.00000E+00  9.000E+00
      25     1     1     2     0     0  3.265431131E+02 -7.597536748E+01 -4.402537043E+02  5.673191212E+02  1.250000000E+02  0.00000E+00  9.000E+00
      21     1     1     2   511   502 -3.836427458E+01  8.459965773E+00  1.098943765E+02  1.167054522E+02  2.697398305E-06  0.00000E+00  9.000E+00
#rwgt            1           1   2.7878705381668308E-002           5       54724           0
</event>
<event>
      5   9999  3.19816E-02  1.17597E+02 -1.00000E+00  1.20742E-01
      21    -1     0     0   502   512  0.000000000E+00  0.000000000E+00  2.143108109E+03  2.143108109E+03  0.000000000E+00  0.00000E+00  9.000E+00
      21    -1     0     0   501   502  0.000000000E+00  0.000000000E+00 -3.034230360E+02  3.034230360E+02  0.000000000E+00  0.00000E+00  9.000E+00
      25     1     1     2     0     0 -2.295500829E+02 -2.887186522E+02  1.529292552E+03  1.578104056E+03  1.250000000E+02  0.00000E+00  9.000E+00
      25     1     1     2     0     0  2.458924685E+02  4.051740856E+02 -4.678873463E+01  4.923853485E+02  1.250000000E+02  0.00000E+00  9.000E+00
      21     1     1     2   501   512 -1.634238563E+01 -1.164554334E+02  3.571812557E+02  3.760417410E+02  0.000000000E+00  0.00000E+00  9.000E+00
#rwgt            1           1   2.6747977278911001E-002           5       54854           0
</event>
<event>
      5   9999  3.19816E-02  1.45724E+02 -1.00000E+00  1.16894E-01
      21    -1     0     0   502   501  0.000000000E+00  0.000000000E+00  1.028303517E+03  1.028303517E+03  0.000000000E+00  0.00000E+00  9.000E+00
      21    -1     0     0   501   511  0.000000000E+00  0.000000000E+00 -1.020188136E+02  1.020188136E+02  0.000000000E+00  0.00000E+00  9.000E+00
      25     1     1     2     0     0  1.629782452E+02 -5.891987332E+01  4.011445962E+02  4.545057171E+02  1.250000000E+02  0.00000E+00  9.000E+00
      25     1     1     2     0     0 -1.066922989E+02  1.933348643E+02  4.375258149E+02  5.057820233E+02  1.250000000E+02  0.00000E+00  9.000E+00
      21     1     1     2   502   511 -5.628594637E+01 -1.344149910E+02  8.761429193E+01  1.700345898E+02  9.536743164E-07  0.00000E+00  9.000E+00
#rwgt            2          11   3.5683991980570576E-003           5       54929           0
</event>
<event>
      5   9999  3.19816E-02  7.36533E+01 -1.00000E+00  1.30111E-01
       1    -1     0     0   502     0  0.000000000E+00  0.000000000E+00  1.184619738E+02  1.184619738E+02  0.000000000E+00  0.00000E+00  9.000E+00
      21    -1     0     0   501   502  0.000000000E+00  0.000000000E+00 -1.031258278E+03  1.031258278E+03  0.000000000E+00  0.00000E+00  9.000E+00
      25     1     1     2     0     0 -6.369939302E+01  2.292524657E+02 -1.291003547E+02  2.981714394E+02  1.250000000E+02  0.00000E+00  9.000E+00
      25     1     1     2     0     0  5.092575686E+00 -1.846425705E+02 -7.213766370E+02  7.550682523E+02  1.250000000E+02  0.00000E+00  9.000E+00
       1     1     1     2   501     0  5.860681733E+01 -4.460989522E+01 -6.231931286E+01  9.648056045E+01  1.507891493E-06  0.00000E+00  9.000E+00
#rwgt            1           1   2.9756905390179601E-002           5       54949           0
</event>
<event>
      5   9999  3.19816E-02  5.39931E+02 -1.00000E+00  9.79132E-02
      21    -1     0     0   502   511  0.000000000E+00  0.000000000E+00  9.085885524E+02  9.085885524E+02  0.000000000E+00  0.00000E+00  9.000E+00
      21    -1     0     0   501   502  0.000000000E+00  0.000000000E+00 -2.138350204E+03  2.138350204E+03  0.000000000E+00  0.00000E+00  9.000E+00
      25     1     1     2     0     0  3.135201020E+02 -2.855516062E+02 -1.887250929E+03  1.938343531E+03  1.250000000E+02  0.00000E+00  9.000E+00
      25     1     1     2     0     0  2.164709976E+02  1.824270463E+02  8.341185037E+01  3.205025067E+02  1.250000000E+02  0.00000E+00  9.000E+00
      21     1     1     2   501   511 -5.299910996E+02  1.031245598E+02  5.740774274E+02  7.880927186E+02  1.078959322E-05  0.00000E+00  9.000E+00
#rwgt            2          11   3.2247873061013840E-003           5       55001           0
</event>
<event>
      5   9999  3.19816E-02  1.03387E+02 -1.00000E+00  1.23181E-01
      21    -1     0     0   502   501  0.000000000E+00  0.000000000E+00  3.107830594E+02  3.107830594E+02  0.000000000E+00  0.00000E+00  9.000E+00
      21    -1     0     0   512   502  0.000000000E+00  0.000000000E+00 -8.093276186E+02  8.093276186E+02  0.000000000E+00  0.00000E+00  9.000E+00
      25     1     1     2     0     0  1.624863938E+02 -1.408400827E+02  2.305330417E+02  3.391286487E+02  1.250000000E+02  0.00000E+00  9.000E+00
      25     1     1     2     0     0 -6.503656371E+01  1.063101672E+02 -4.677425660E+02  4.999397107E+02  1.250000000E+02  0.00000E+00  9.000E+00
      21     1     1     2   512   501 -9.744983006E+01  3.452991549E+01 -2.613350349E+02  2.810423187E+02  3.814697266E-06  0.00000E+00  9.000E+00
#rwgt            1           1   2.7784375151536349E-002           5       55021           0
</event>
<event>
      5   9999  3.19816E-02  2.60227E+01 -1.00000E+00  1.57458E-01
      21    -1     0     0   502   501  0.000000000E+00  0.000000000E+00  1.627967977E+03  1.627967977E+03  0.000000000E+00  0.00000E+00  9.000E+00
      21    -1     0     0   511   502  0.000000000E+00  0.000000000E+00 -6.426292778E+01  6.426292778E+01  0.000000000E+00  0.00000E+00  9.000E+00
      25     1     1     2     0     0 -5.799251268E+01 -2.530099936E+01  1.513209061E+03  1.519680866E+03  1.250000000E+02  0.00000E+00  9.000E+00
      25     1     1     2     0     0  3.686013364E+01  1.011537753E+01  6.130033803E+01  1.443735494E+02  1.250000000E+02  0.00000E+00  9.000E+00
      21     1     1     2   511   501  2.113237903E+01  1.518562183E+01 -1.080435018E+01  2.817648908E+01  9.461944024E-07  0.00000E+00  9.000E+00
#rwgt            1           1   3.3039632614376160E-002           5       55110           0
</event>
<event>
      5   9999  3.19816E-02  6.04018E+01 -1.00000E+00  1.34549E-01
      21    -1     0     0   502   512  0.000000000E+00  0.000000000E+00  2.233817180E+02  2.233817180E+02  0.000000000E+00  0.00000E+00  9.000E+00
      21    -1     0     0   501   502  0.000000000E+00  0.000000000E+00 -1.102226392E+03  1.102226392E+03  0.000000000E+00  0.00000E+00  9.000E+00
      25     1     1     2     0     0  3.811398631E+02  1.987855124E+02 -5.412788086E+02  7.024179837E+02  1.250000000E+02  0.00000E+00  9.000E+00
      25     1     1     2     0     0 -4.099640647E+02 -1.457049954E+02 -3.342167141E+02  5.626955589E+02  1.250000000E+02  0.00000E+00  9.000E+00
      21     1     1     2   501   512  2.882420162E+01 -5.308051695E+01 -3.349151344E+00  6.049456747E+01  8.333999785E-07  0.00000E+00  9.000E+00
#rwgt            1           1   2.9078167833390605E-002           5       55244           0
</event>
<event>
      5   9999  3.19816E-02  7.40737E+01 -1.00000E+00  1.29989E-01
      21    -1     0     0   502   501  0.000000000E+00  0.000000000E+00  2.943582042E+02  2.943582042E+02  0.000000000E+00  0.00000E+00  9.000E+00
       2    -1     0     0   501     0  0.000000000E+00  0.000000000E+00 -1.837720023E+03  1.837720023E+03  0.000000000E+00  0.00000E+00  9.000E+00
      25     1     1     2     0     0 -2.827644541E+02  1.488648767E+02  5.994186702E+01  3.483310429E+02  1.250000000E+02  0.00000E+00  9.000E+00
      25     1     1     2     0     0  3.548663875E+02 -1.318877700E+02 -3.567524571E+02  5.349970584E+02  1.250000000E+02  0.00000E+00  9.000E+00
       2     1     1     2   502     0 -7.210193339E+01 -1.697710666E+01 -1.246551229E+03  1.248750126E+03  1.525878906E-05  0.00000E+00  9.000E+00
#rwgt            2          13   2.8018117676372589E-003           5       55328           0
</event>
<event>
      5   9999  3.19816E-02  1.05670E+02 -1.00000E+00  1.22760E-01
      21    -1     0     0   502   501  0.000000000E+00  0.000000000E+00  9.344712466E+02  9.344712466E+02  0.000000000E+00  0.00000E+00  9.000E+00
       2    -1     0     0   501     0  0.000000000E+00  0.000000000E+00 -2.140109828E+03  2.140109828E+03  0.000000000E+00  0.00000E+00  9.000E+00
      25     1     1     2     0     0  1.412823840E+02  1.568233192E+02  1.895010218E+02  3.099837137E+02  1.250000000E+02  0.00000E+00  9.000E+00
      25     1     1     2     0     0 -1.900992075E+02 -6.310540908E+01  6.629801045E+02  7.037667371E+02  1.250000000E+02  0.00000E+00  9.000E+00
       2     1     1     2   502     0  4.881682351E+01 -9.371791012E+01 -2.058119708E+03  2.060830624E+03  0.000000000E+00  0.00000E+00  9.000E+00
#rwgt            1           1   2.9146045753321862E-002           5       55347           0
</event>
<event>
      5   9999  3.19816E-02  5.44562E+01 -1.00000E+00  1.36993E-01
       2    -1     0     0   502     0  0.000000000E+00  0.000000000E+00  2.031139745E+03  2.031139745E+03  0.000000000E+00  0.00000E+00  9.000E+00
      21    -1     0     0   501   502  0.000000000E+00  0.000000000E+00 -7.232278808E+01  7.232278808E+01  0.000000000E+00  0.00000E+00  9.000E+00
      25     1     1     2     0     0  3.202294019E+02 -6.846915181E+01  6.880982720E+02  7.722299700E+02  1.250000000E+02  0.00000E+00  9.000E+00
      25     1     1     2     0     0 -2.664948681E+02  7.730548287E+01  7.762994617E+02  8.338234265E+02  1.250000000E+02  0.00000E+00  9.000E+00
       2     1     1     2   501     0 -5.373453375E+01 -8.836331062E+00  4.944192232E+02  4.974091366E+02  5.394796609E-06  0.00000E+00  9.000E+00
#rwgt            1           1   3.0707711366239666E-002           5       55376           0
</event>
<event>
      5   9999  3.19816E-02  1.95104E+01 -1.00000E+00  1.67262E-01
      21    -1     0     0   502   501  0.000000000E+00  0.000000000E+00  3.726678781E+02  3.726678781E+02  0.000000000E+00  0.00000E+00  9.000E+00
       2    -1     0     0   501     0  0.000000000E+00  0.000000000E+00 -1.956556485E+03  1.956556485E+03  0.000000000E+00  0.00000E+00  9.000E+00
      25     1     1     2     0     0  2.627941295E+02 -5.224935306E+01 -7.997719031E+01  3.062876106E+02  1.250000000E+02  0.00000E+00  9.000E+00
      25     1     1     2     0     0 -2.822192723E+02  5.407087367E+01  1.648379505E+02  3.540733356E+02  1.250000000E+02  0.00000E+00  9.000E+00
       2     1     1     2   502     0  1.942514278E+01 -1.821520609E+00 -1.668749367E+03  1.668863417E+03  2.157918644E-05  0.00000E+00  9.000E+00
#rwgt            1           1   2.7388863100212942E-002           5       55498           0
</event>
<event>
      5   9999  3.19816E-02  1.25713E+01 -1.00000E+00  1.84929E-01
      -3    -1     0     0     0   501  0.000000000E+00  0.000000000E+00  3.526935790E+02  3.526935790E+02  0.000000000E+00  0.00000E+00  9.000E+00
      21    -1     0     0   501   502  0.000000000E+00  0.000000000E+00 -1.522052678E+02  1.522052678E+02  0.000000000E+00  0.00000E+00  9.000E+00
      25     1     1     2     0     0 -2.796775710E+01 -2.451439235E+01  5.865160029E+01  1.429970667E+02  1.250000000E+02  0.00000E+00  9.000E+00
      25     1     1     2     0     0  2.366959561E+01  1.270065846E+01 -7.264597534E+01  1.470509919E+02  1.250000000E+02  0.00000E+00  9.000E+00
      -3     1     1     2     0   502  4.298161483E+00  1.181373389E+01  2.144826863E+02  2.148507882E+02  2.697398305E-06  0.00000E+00  9.000E+00
#rwgt            1           1   2.4360503183372437E-002           5       55627           0
</event>
<event>
      5   9999  3.19816E-02  1.12549E+02 -1.00000E+00  1.21562E-01
      21    -1     0     0   502   501  0.000000000E+00  0.000000000E+00  6.946393058E+01  6.946393058E+01  0.000000000E+00  0.00000E+00  9.000E+00
       1    -1     0     0   501     0  0.000000000E+00  0.000000000E+00 -1.184178577E+03  1.184178577E+03  0.000000000E+00  0.00000E+00  9.000E+00
      25     1     1     2     0     0  1.338294864E+02 -5.878485221E+01 -2.132841016E+02  2.871952267E+02  1.250000000E+02  0.00000E+00  9.000E+00
      25     1     1     2     0     0 -6.783640594E+01  1.499558748E+02 -3.755945524E+02  4.287013065E+02  1.250000000E+02  0.00000E+00  9.000E+00
       1     1     1     2   502     0 -6.599308045E+01 -9.117102263E+01 -5.258359929E+02  5.377459748E+02  0.000000000E+00  0.00000E+00  9.000E+00
#rwgt            1           1   2.5515306592264163E-002           5       55750           0
</event>
<event>
      5   9999  3.19816E-02  3.48724E+01 -1.00000E+00  1.48635E-01
      21    -1     0     0   502   501  0.000000000E+00  0.000000000E+00  7.618174664E+02  7.618174664E+02  0.000000000E+00  0.00000E+00  9.000E+00
      21    -1     0     0   501   511  0.000000000E+00  0.000000000E+00 -5.634602577E+02  5.634602577E+02  0.000000000E+00  0.00000E+00  9.000E+00
      25     1     1     2     0     0 -3.452875977E+02  4.935196527E+02  2.417030818E+01  6.156251916E+02  1.250000000E+02  0.00000E+00  9.000E+00
      25     1     1     2     0     0  3.667093962E+02 -5.210367765E+02  1.811567705E+02  6.740904088E+02  1.250000000E+02  0.00000E+00  9.000E+00
      21     1     1     2   502   511 -2.142179848E+01  2.751712383E+01 -6.969870010E+00  3.556212370E+01  2.528810911E-07  0.00000E+00  9.000E+00
#rwgt            1           1   2.4170445738581642E-002           5       55798           0
</event>
<event>
      5   9999  3.19816E-02  7.33852E+01 -1.00000E+00  1.30190E-01
      21    -1     0     0   502   501  0.000000000E+00  0.000000000E+00  9.472814748E+01  9.472814748E+01  0.000000000E+00  0.00000E+00  9.000E+00
      21    -1     0     0   512   502  0.000000000E+00  0.000000000E+00 -1.647759426E+03  1.647759426E+03  0.000000000E+00  0.00000E+00  9.000E+00
      25     1     1     2     0     0  1.084315274E+01 -3.628930402E+01 -7.643066223E+02  7.753864200E+02  1.250000000E+02  0.00000E+00  9.000E+00
      25     1     1     2     0     0  1.328428633E+00 -3.607948476E+01  3.923428338E+01  1.358963684E+02  1.250000000E+02  0.00000E+00  9.000E+00
      21     1     1     2   512   501 -1.217158137E+01  7.236878878E+01 -8.279589394E+02  8.312047849E+02  0.000000000E+00  0.00000E+00  9.000E+00
#rwgt            1           1   2.4521310850856820E-002           5       55894           0
</event>
<event>
      5   9999  3.19816E-02  4.06884E+01 -1.00000E+00  1.44382E-01
      21    -1     0     0   511   501  0.000000000E+00  0.000000000E+00  2.333738209E+02  2.333738209E+02  0.000000000E+00  0.00000E+00  9.000E+00
      21    -1     0     0   501   502  0.000000000E+00  0.000000000E+00 -8.126873565E+02  8.126873565E+02  0.000000000E+00  0.00000E+00  9.000E+00
      25     1     1     2     0     0 -8.971656741E+01  3.944967719E+02 -4.022524735E+02  5.840452191E+02  1.250000000E+02  0.00000E+00  9.000E+00
      25     1     1     2     0     0  7.924830975E+01 -3.551780037E+02 -1.702418833E+02  4.207600358E+02  1.250000000E+02  0.00000E+00  9.000E+00
      21     1     1     2   511   502  1.046825765E+01 -3.931876816E+01 -6.819178766E+00  4.125592256E+01  9.156639275E-07  0.00000E+00  9.000E+00
#rwgt            1           1   2.9427659203106367E-002           5       55934           0
</event>
<event>
      5   9999  3.19816E-02  4.43891E+02 -1.00000E+00  1.00343E-01
      21    -1     0     0   502   501  0.000000000E+00  0.000000000E+00  1.914134084E+02  1.914134084E+02  0.000000000E+00  0.00000E+00  9.000E+00
      21    -1     0     0   501   512  0.000000000E+00  0.000000000E+00 -2.064802510E+03  2.064802510E+03  0.000000000E+00  0.00000E+00  9.000E+00
      25     1     1     2     0     0 -8.031689703E+01 -7.392499487E+01 -7.017787709E+02  7.211339349E+02  1.250000000E+02  0.00000E+00  9.000E+00
      25     1     1     2     0     0  3.884984187E+01 -3.680248364E+02 -1.450702718E+02  4.166797021E+02  1.250000000E+02  0.00000E+00  9.000E+00
      21     1     1     2   502   512  4.146705516E+01  4.419498313E+02 -1.026540059E+03  1.118402281E+03  1.525878906E-05  0.00000E+00  9.000E+00
#rwgt            2          11   1.3650261124288333E-003           5       56073           0
</event>
<event>
      5   9999  3.19816E-02  2.71311E+01 -1.00000E+00  1.56135E-01
      21    -1     0     0   511   501  0.000000000E+00  0.000000000E+00  1.227672226E+03  1.227672226E+03  0.000000000E+00  0.00000E+00  9.000E+00
      21    -1     0     0   501   502  0.000000000E+00  0.000000000E+00 -7.216295703E+01  7.216295703E+01  0.000000000E+00  0.00000E+00  9.000E+00
      25     1     1     2     0     0 -1.527974119E+02 -2.156021479E+02  5.241474109E+02  6.001556828E+02  1.250000000E+02  0.00000E+00  9.000E+00
      25     1     1     2     0     0  1.533792116E+02  1.884773031E+02  5.546817330E+02  6.183410881E+02  1.250000000E+02  0.00000E+00  9.000E+00
      21     1     1     2   511   502 -5.817996413E-01  2.712484483E+01  7.668012504E+01  8.133841205E+01  9.536743164E-07  0.00000E+00  9.000E+00
#rwgt            1           1   2.7819820226445326E-002           5       56093           0
</event>
<event>
      5   9999  3.19816E-02  2.54218E+01 -1.00000E+00  1.58208E-01
      21    -1     0     0   502   501  0.000000000E+00  0.000000000E+00  1.461932251E+02  1.461932251E+02  0.000000000E+00  0.00000E+00  9.000E+00
      21    -1     0     0   512   502  0.000000000E+00  0.000000000E+00 -1.537191367E+03  1.537191367E+03  0.000000000E+00  0.00000E+00  9.000E+00
      25     1     1     2     0     0  8.169532238E+01 -2.863452457E+02 -1.930336254E+02  3.762375659E+02  1.250000000E+02  0.00000E+00  9.000E+00
      25     1     1     2     0     0 -1.012415561E+02  2.700905544E+02 -3.998573980E+02  5.086351334E+02  1.250000000E+02  0.00000E+00  9.000E+00
      21     1     1     2   512   501  1.954623370E+01  1.625469130E+01 -7.981071187E+02  7.985118929E+02  1.078959322E-05  0.00000E+00  9.000E+00
#rwgt            1           1   2.8222574883080914E-002           5       56241           0
</event>
<event>
      5   9999  3.19816E-02  3.78151E+01 -1.00000E+00  1.46369E-01
      21    -1     0     0   502   501  0.000000000E+00  0.000000000E+00  7.820995297E+02  7.820995297E+02  0.000000000E+00  0.00000E+00  9.000E+00
      21    -1     0     0   501   511  0.000000000E+00  0.000000000E+00 -8.698380894E+02  8.698380894E+02  0.000000000E+00  0.00000E+00  9.000E+00
      25     1     1     2     0     0  1.444408627E+02  1.978705637E+02  7.277782153E+02  7.780116024E+02  1.250000000E+02  0.00000E+00  9.000E+00
      25     1     1     2     0     0 -1.094636100E+02 -1.834978853E+02 -5.190577885E+02  5.750649908E+02  1.250000000E+02  0.00000E+00  9.000E+00
      21     1     1     2   502   511 -3.497725274E+01 -1.437267834E+01 -2.964589866E+02  2.988610259E+02  3.814697266E-06  0.00000E+00  9.000E+00
#rwgt            1           1   2.8855337485229202E-002           5       56367           0
</event>
<event>
      5   9999  3.19816E-02  8.91850E+01 -1.00000E+00  1.26106E-01
      21    -1     0     0   502   501  0.000000000E+00  0.000000000E+00  2.031394868E+02  2.031394868E+02  0.000000000E+00  0.00000E+00  9.000E+00
      21    -1     0     0   512   502  0.000000000E+00  0.000000000E+00 -4.820891240E+02  4.820891240E+02  0.000000000E+00  0.00000E+00  9.000E+00
      25     1     1     2     0     0  8.250197282E+01 -6.007441403E+01 -2.118421790E+02  2.663036228E+02  1.250000000E+02  0.00000E+00  9.000E+00
      25     1     1     2     0     0 -1.700357069E+02  7.715707333E+01  8.693175877E+01  2.409304594E+02  1.250000000E+02  0.00000E+00  9.000E+00
      21     1     1     2   512   501  8.753373404E+01 -1.708265931E+01 -1.540392170E+02  1.779945286E+02  3.814697266E-06  0.00000E+00  9.000E+00
#rwgt            1           1   2.5046388727950463E-002           5       56565           0
</event>
<event>
      5   9999  3.19816E-02  1.18329E+02 -1.00000E+00  1.20627E-01
      21    -1     0     0   502   501  0.000000000E+00  0.000000000E+00  2.429491126E+02  2.429491126E+02  0.000000000E+00  0.00000E+00  9.000E+00
       2    -1     0     0   501     0  0.000000000E+00  0.000000000E+00 -1.507670756E+03  1.507670756E+03  0.000000000E+00  0.00000E+00  9.000E+00
      25     1     1     2     0     0  1.256814228E+02 -1.243209193E+02  1.655543713E+02  2.725523085E+02  1.250000000E+02  0.00000E+00  9.000E+00
      25     1     1     2     0     0 -1.179297553E+02  6.246261208E+00 -3.363479994E+02  3.777584144E+02  1.250000000E+02  0.00000E+00  9.000E+00
       2     1     1     2   502     0 -7.751667582E+00  1.180746581E+02 -1.093928016E+03  1.100309146E+03  3.051757812E-05  0.00000E+00  9.000E+00
#rwgt            1           1   2.4744952831080941E-002           5       56611           0
</event>
<event>
      5   9999  3.19816E-02  3.56739E+02 -1.00000E+00  1.03204E-01
       2    -1     0     0   502     0  0.000000000E+00  0.000000000E+00  1.020849258E+03  1.020849258E+03  0.000000000E+00  0.00000E+00  9.000E+00
      21    -1     0     0   501   502  0.000000000E+00  0.000000000E+00 -4.945846279E+02  4.945846279E+02  0.000000000E+00  0.00000E+00  9.000E+00
      25     1     1     2     0     0 -4.077626449E+02  2.616969914E+02  8.923560964E+01  5.082752049E+02  1.250000000E+02  0.00000E+00  9.000E+00
      25     1     1     2     0     0  5.178028378E+02  7.764643981E+01  1.805031798E+02  5.677632838E+02  1.250000000E+02  0.00000E+00  9.000E+00
       2     1     1     2   501     0 -1.100401929E+02 -3.393434312E+02  2.565258409E+02  4.393953976E+02  8.529922400E-06  0.00000E+00  9.000E+00
#rwgt            1           1   3.0676440120046011E-002           5       56655           0
</event>
<event>
      5   9999  3.19816E-02  1.33789E+01 -1.00000E+00  1.82194E-01
      21    -1     0     0   511   501  0.000000000E+00  0.000000000E+00  6.706742014E+01  6.706742014E+01  0.000000000E+00  0.00000E+00  9.000E+00
      21    -1     0     0   501   502  0.000000000E+00  0.000000000E+00 -1.966157791E+03  1.966157791E+03  0.000000000E+00  0.00000E+00  9.000E+00
      25     1     1     2     0     0 -6.825136075E+01 -1.842566652E+02 -1.689664742E+03  1.705637918E+03  1.250000000E+02  0.00000E+00  9.000E+00
      25     1     1     2     0     0  8.151335758E+01  1.860216884E+02 -1.969462551E+02  3.092916478E+02  1.250000000E+02  0.00000E+00  9.000E+00
      21     1     1     2   511   502 -1.326199683E+01 -1.765023160E+00 -1.247937354E+01  1.829564513E+01  3.371747881E-07  0.00000E+00  9.000E+00
#rwgt            1           1   2.9584768859609391E-002           5       56686           0
</event>
<event>
      5   9999  3.19816E-02  9.36063E+00 -1.00000E+00  1.99134E-01
      21    -1     0     0   502   501  0.000000000E+00  0.000000000E+00  1.075141282E+03  1.075141282E+03  0.000000000E+00  0.00000E+00  9.000E+00
      21    -1     0     0   501   512  0.000000000E+00  0.000000000E+00 -5.545827945E+01  5.545827945E+01  0.000000000E+00  0.00000E+00  9.000E+00
      25     1     1     2     0     0 -4.045443497E+01  7.692372255E+01  9.306154881E+01  1.784356250E+02  1.250000000E+02  0.00000E+00  9.000E+00
      25     1     1     2     0     0  4.963257516E+01 -7.876304564E+01  9.294169786E+02  9.423947846E+02  1.250000000E+02  0.00000E+00  9.000E+00
      21     1     1     2   502   512 -9.178140197E+00  1.839323087E+00 -2.795524952E+00  9.769151788E+00  5.161913656E-08  0.00000E+00  9.000E+00
#rwgt            1           1   3.0432815698069403E-002           5       56945           0
</event>
<event>
      5   9999  3.19816E-02  2.45325E+01 -1.00000E+00  1.59367E-01
      -2    -1     0     0     0   501  0.000000000E+00  0.000000000E+00  5.566021210E+02  5.566021210E+02  0.000000000E+00  0.00000E+00  9.000E+00
      21    -1     0     0   501   502  0.000000000E+00  0.000000000E+00 -3.788764554E+02  3.788764554E+02  0.000000000E+00  0.00000E+00  9.000E+00
      25     1     1     2     0     0 -3.377744712E+02  2.170087476E+02  2.509751408E+02  4.896916491E+02  1.250000000E+02  0.00000E+00  9.000E+00
      25     1     1     2     0     0  3.453155583E+02 -1.936640382E+02 -6.828012616E+01  4.207561884E+02  1.250000000E+02  0.00000E+00  9.000E+00
      -2     1     1     2     0   502 -7.541087060E+00 -2.334470941E+01 -4.969349020E+00  2.503073872E+01  3.039252468E-07  0.00000E+00  9.000E+00
#rwgt            1           1   3.0767629793422263E-002           5       57170           0
</event>
<event>
      5   9999  3.19816E-02  2.99623E+01 -1.00000E+00  1.53078E-01
      21    -1     0     0   502   511  0.000000000E+00  0.000000000E+00  8.740977114E+02  8.740977114E+02  0.000000000E+00  0.00000E+00  9.000E+00
      21    -1     0     0   501   502  0.000000000E+00  0.000000000E+00 -1.446290872E+03  1.446290872E+03  0.000000000E+00  0.00000E+00  9.000E+00
      25     1     1     2     0     0  6.040174352E+02 -6.146098680E+02  3.938582180E+02  9.556838640E+02  1.250000000E+02  0.00000E+00  9.000E+00
      25     1     1     2     0     0 -6.065024797E+02  6.444689517E+02 -9.843713737E+02  1.329585458E+03  1.250000000E+02  0.00000E+00  9.000E+00
      21     1     1     2   501   511  2.485044429E+00 -2.985908367E+01  1.831999524E+01  3.511926180E+01  7.907449699E-07  0.00000E+00  9.000E+00
#rwgt            1           1   2.2850516080424134E-002           5       57329           0
</event>
<event>
      5   9999  3.19816E-02  1.85542E+02 -1.00000E+00  1.12847E-01
      21    -1     0     0   502   501  0.000000000E+00  0.000000000E+00  1.900549084E+03  1.900549084E+03  0.000000000E+00  0.00000E+00  9.000E+00
      21    -1     0     0   501   512  0.000000000E+00  0.000000000E+00 -1.480919709E+03  1.480919709E+03  0.000000000E+00  0.00000E+00  9.000E+00
      25     1     1     2     0     0  1.064992362E+03 -9.375576334E+02  3.399594249E+01  1.424782008E+03  1.250000000E+02  0.00000E+00  9.000E+00
      25     1     1     2     0     0 -1.015922123E+03  1.116493469E+03  6.379022615E+02  1.643532695E+03  1.250000000E+02  0.00000E+00  9.000E+00
      21     1     1     2   502   512 -4.907023925E+01 -1.789358351E+02 -2.522688290E+02  3.131540891E+02  2.697398305E-06  0.00000E+00  9.000E+00
#rwgt            1           1   4.2796036787988767E-002           5       57562           0
</event>
<event>
      5   9999  3.19816E-02  1.55307E+02 -1.00000E+00  1.15798E-01
      21    -1     0     0   502   511  0.000000000E+00  0.000000000E+00  4.570219945E+02  4.570219945E+02  0.000000000E+00  0.00000E+00  9.000E+00
      21    -1     0     0   501   502  0.000000000E+00  0.000000000E+00 -3.245128003E+02  3.245128003E+02  0.000000000E+00  0.00000E+00  9.000E+00
      25     1     1     2     0     0  8.508122027E+01  4.515378833E+01  2.369852535E+02  2.847186138E+02  1.250000000E+02  0.00000E+00  9.000E+00
      25     1     1     2     0     0 -2.377518972E+02 -7.364909889E+01 -1.721225785E+02  3.274161518E+02  1.250000000E+02  0.00000E+00  9.000E+00
      21     1     1     2   501   511  1.526706770E+02  2.849531056E+01  6.764651921E+01  1.694000292E+02  9.536743164E-07  0.00000E+00  9.000E+00
#rwgt            1           1   2.7794722679563191E-002           5       57693           0
</event>
<event>
      5   9999  3.19816E-02  4.91906E+01 -1.00000E+00  1.39481E-01
      21    -1     0     0   502   512  0.000000000E+00  0.000000000E+00  1.110023809E+03  1.110023809E+03  0.000000000E+00  0.00000E+00  9.000E+00
      21    -1     0     0   501   502  0.000000000E+00  0.000000000E+00 -5.231396722E+02  5.231396722E+02  0.000000000E+00  0.00000E+00  9.000E+00
      25     1     1     2     0     0  1.858699359E+02  2.101225036E+02 -1.725899912E+02  3.522944857E+02  1.250000000E+02  0.00000E+00  9.000E+00
      25     1     1     2     0     0 -1.543231405E+02 -1.723797263E+02 -1.935836946E+02  3.265425677E+02  1.250000000E+02  0.00000E+00  9.000E+00
      21     1     1     2   501   512 -3.154679547E+01 -3.774277732E+01  9.530578226E+02  9.543264278E+02  1.078959322E-05  0.00000E+00  9.000E+00
#rwgt            1           1   2.4780958599532520E-002           5       57761           0
</event>
<event>
      5   9999  3.19816E-02  1.77719E+01 -1.00000E+00  1.70716E-01
      21    -1     0     0   502   501  0.000000000E+00  0.000000000E+00  1.267972500E+02  1.267972500E+02  0.000000000E+00  0.00000E+00  9.000E+00
      21    -1     0     0   511   502  0.000000000E+00  0.000000000E+00 -2.785528780E+02  2.785528780E+02  0.000000000E+00  0.00000E+00  9.000E+00
      25     1     1     2     0     0  2.220686579E+00 -1.608779577E+01 -1.805771764E+02  2.202200383E+02  1.250000000E+02  0.00000E+00  9.000E+00
      25     1     1     2     0     0  9.875272029E+00  3.067466165E+00  6.759219963E+01  1.424802997E+02  1.250000000E+02  0.00000E+00  9.000E+00
      21     1     1     2   511   501 -1.209595861E+01  1.302032961E+01 -3.877065121E+01  4.264979007E+01  0.000000000E+00  0.00000E+00  9.000E+00
#rwgt            1           1   2.4054852978351710E-002           5       57845           0
</event>
<event>
      5   9999  3.19816E-02  5.88514E+01 -1.00000E+00  1.35153E-01
      21    -1     0     0   502   501  0.000000000E+00  0.000000000E+00  4.657059797E+02  4.657059797E+02  0.000000000E+00  0.00000E+00  9.000E+00
      21    -1     0     0   512   502  0.000000000E+00  0.000000000E+00 -6.383755003E+02  6.383755003E+02  0.000000000E+00  0.00000E+00  9.000E+00
      25     1     1     2     0     0 -7.276273077E+01  4.488120424E+02 -9.254113469E+00  4.716325933E+02  1.250000000E+02  0.00000E+00  9.000E+00
      25     1     1     2     0     0  9.813310061E+01 -5.019141823E+02 -8.327021173E+01  5.330167728E+02  1.250000000E+02  0.00000E+00  9.000E+00
      21     1     1     2   512   501 -2.537036983E+01  5.310213992E+01 -8.014519542E+01  9.943211392E+01  1.907348633E-06  0.00000E+00  9.000E+00
#rwgt            1           1   3.3296709715161334E-002           5       58002           0
</event>
<event>
      5   9999  3.19816E-02  7.25487E+01 -1.00000E+00  1.30439E-01
      21    -1     0     0   511   501  0.000000000E+00  0.000000000E+00  1.302421137E+03  1.302421137E+03  0.000000000E+00  0.00000E+00  9.000E+00
      21    -1     0     0   501   502  0.000000000E+00  0.000000000E+00 -5.720979784E+02  5.720979784E+02  0.000000000E+00  0.00000E+00  9.000E+00
      25     1     1     2     0     0  5.421085755E+02 -4.894067365E+02  4.985515477E+02  8.930729573E+02  1.250000000E+02  0.00000E+00  9.000E+00
      25     1     1     2     0     0 -5.272626371E+02  4.183932426E+02 -5.388368970E+01  6.867221024E+02  1.250000000E+02  0.00000E+00  9.000E+00
      21     1     1     2   511   502 -1.484593838E+01  7.101349392E+01  2.856553004E+02  2.947240555E+02  0.000000000E+00  0.00000E+00  9.000E+00
#rwgt            1           1   3.0510622284220329E-002           5       58138           0
</event>
<event>
      5   9999  3.19816E-02  1.33666E+02 -1.00000E+00  1.18413E-01
      21    -1     0     0   512   501  0.000000000E+00  0.000000000E+00  3.167114019E+03  3.167114019E+03  0.000000000E+00  0.00000E+00  9.000E+00
      21    -1     0     0   501   502  0.000000000E+00  0.000000000E+00 -9.612953354E+01  9.612953354E+01  0.000000000E+00  0.00000E+00  9.000E+00
      25     1     1     2     0     0  8.886993222E+01  9.130594109E-01  9.972615403E+02  1.008986758E+03  1.250000000E+02  0.00000E+00  9.000E+00
      25     1     1     2     0     0 -8.252882769E+01 -1.344288109E+02  2.687630344E+01  2.030503590E+02  1.250000000E+02  0.00000E+00  9.000E+00
      21     1     1     2   512   502 -6.341104530E+00  1.335157515E+02  2.046846642E+03  2.051206435E+03  2.157918644E-05  0.00000E+00  9.000E+00
#rwgt            1           1   2.4376681590891860E-002           5       58235           0
</event>
<event>
      5   9999  3.19816E-02  3.06964E+01 -1.00000E+00  1.52351E-01
      21    -1     0     0   502   501  0.000000000E+00  0.000000000E+00  5.784114867E+02  5.784114867E+02  0.000000000E+00  0.00000E+00  9.000E+00
       2    -1     0     0   501     0  0.000000000E+00  0.000000000E+00 -1.259999101E+03  1.259999101E+03  0.000000000E+00  0.00000E+00  9.000E+00
      25     1     1     2     0     0 -3.912241626E+02  3.284759933E+02 -7.521445148E+00  5.259604507E+02  1.250000000E+02  0.00000E+00  9.000E+00
      25     1     1     2     0     0  3.754926679E+02 -3.548348356E+02  9.739157889E+01  5.403819240E+02  1.250000000E+02  0.00000E+00  9.000E+00
       2     1     1     2   502     0  1.573149475E+01  2.635884231E+01 -7.714577480E+02  7.720682129E+02  0.000000000E+00  0.00000E+00  9.000E+00
#rwgt            1           1   2.7297790374825839E-002           5       58323           0
</event>
<event>
      5   9999  3.19816E-02  1.29487E+02 -1.00000E+00  1.18982E-01
      21    -1     0     0   502   511  0.000000000E+00  0.000000000E+00  1.932203969E+02  1.932203969E+02  0.000000000E+00  0.00000E+00  9.000E+00
      21    -1     0     0   501   502  0.000000000E+00  0.000000000E+00 -7.444561466E+02  7.444561466E+02  0.000000000E+00  0.00000E+00  9.000E+00
      25     1     1     2     0     0  1.550583098E+02 -3.208020566E+01 -2.352512790E+01  2.031025620E+02  1.250000000E+02  0.00000E+00  9.000E+00
      25     1     1     2     0     0 -2.886121634E+01  3.076512449E+00 -5.806661118E+02  5.946768602E+02  1.250000000E+02  0.00000E+00  9.000E+00
      21     1     1     2   501   511 -1.261970935E+02  2.900369321E+01  5.295549001E+01  1.398971213E+02  2.780414531E-06  0.00000E+00  9.000E+00
#rwgt            1           1   2.8089809167437106E-002           5       58492           0
</event>
<event>
      5   9999  3.19816E-02  1.43427E+02 -1.00000E+00  1.17170E-01
      21    -1     0     0   512   501  0.000000000E+00  0.000000000E+00  1.903977360E+02  1.903977360E+02  0.000000000E+00  0.00000E+00  9.000E+00
      21    -1     0     0   501   502  0.000000000E+00  0.000000000E+00 -2.592343585E+03  2.592343585E+03  0.000000000E+00  0.00000E+00  9.000E+00
      25     1     1     2     0     0 -2.424033469E+02  1.336729517E+02 -1.705105386E+02  3.483198019E+02  1.250000000E+02  0.00000E+00  9.000E+00
      25     1     1     2     0     0  2.596455695E+02  8.714152127E+00 -2.268126206E+03  2.286375569E+03  1.250000000E+02  0.00000E+00  9.000E+00
      21     1     1     2   512   502 -1.724222261E+01 -1.423871038E+02  3.669089517E+01  1.480459502E+02  5.201679284E-06  0.00000E+00  9.000E+00
#rwgt            1           1   8.8016310885910110E-002           5       58540           0
</event>
<event>
      5   9999  3.19816E-02  2.80835E+02 -1.00000E+00  1.06532E-01
      21    -1     0     0   502   501  0.000000000E+00  0.000000000E+00  1.443554995E+03  1.443554995E+03  0.000000000E+00  0.00000E+00  9.000E+00
      -3    -1     0     0     0   502  0.000000000E+00  0.000000000E+00 -3.307327282E+02  3.307327282E+02  0.000000000E+00  0.00000E+00  9.000E+00
      25     1     1     2     0     0  2.062369975E+02 -1.740734912E+02  2.077313415E+02  3.627844949E+02  1.250000000E+02  0.00000E+00  9.000E+00
      25     1     1     2     0     0 -1.190723684E+02 -9.289213199E+01  1.068668990E+03  1.086501536E+03  1.250000000E+02  0.00000E+00  9.000E+00
      -3     1     1     2     0   501 -8.716462912E+01  2.669656232E+02 -1.635780650E+02  3.250016922E+02  1.907348633E-06  0.00000E+00  9.000E+00
#rwgt            1           1   3.8714658438875310E-002           5       58612           0
</event>
<event>
      5   9999  3.19816E-02  3.15600E+01 -1.00000E+00  1.51526E-01
      21    -1     0     0   502   511  0.000000000E+00  0.000000000E+00  1.853584247E+03  1.853584247E+03  0.000000000E+00  0.00000E+00  9.000E+00
      21    -1     0     0   501   502  0.000000000E+00  0.000000000E+00 -2.193651382E+02  2.193651382E+02  0.000000000E+00  0.00000E+00  9.000E+00
      25     1     1     2     0     0  1.081304446E+01 -5.092311887E+02  5.437380761E+02  7.554531229E+02  1.250000000E+02  0.00000E+00  9.000E+00
      25     1     1     2     0     0 -2.162499743E+01  4.795809877E+02  4.306900421E+02  6.569508936E+02  1.250000000E+02  0.00000E+00  9.000E+00
      21     1     1     2   501   511  1.081195297E+01  2.965020102E+01  6.597909906E+02  6.605453686E+02  0.000000000E+00  0.00000E+00  9.000E+00
#rwgt            2          11   1.4895649737568660E-003           5       58763           0
</event>
<event>
      5   9999  3.19816E-02  5.41998E+01 -1.00000E+00  1.37106E-01
      21    -1     0     0   502   501  0.000000000E+00  0.000000000E+00  5.379952974E+01  5.379952974E+01  0.000000000E+00  0.00000E+00  9.000E+00
      21    -1     0     0   501   512  0.000000000E+00  0.000000000E+00 -8.546738042E+02  8.546738042E+02  0.000000000E+00  0.00000E+00  9.000E+00
      25     1     1     2     0     0  1.297849134E+02 -9.329925291E+01 -3.143116646E+02  3.741198964E+02  1.250000000E+02  0.00000E+00  9.000E+00
      25     1     1     2     0     0 -9.510238671E+01  5.164909743E+01 -3.394880240E+02  3.776098670E+02  1.250000000E+02  0.00000E+00  9.000E+00
      21     1     1     2   502   512 -3.468252672E+01  4.165015548E+01 -1.470745859E+02  1.567435706E+02  3.303624740E-06  0.00000E+00  9.000E+00
#rwgt            1           1   2.9131321856265730E-002           5       58783           0
</event>
<event>
      5   9999  3.19816E-02  8.59633E+00 -1.00000E+00  2.03670E-01
      21    -1     0     0   502   501  0.000000000E+00  0.000000000E+00  1.465236693E+02  1.465236693E+02  0.000000000E+00  0.00000E+00  9.000E+00
      21    -1     0     0   501   511  0.000000000E+00  0.000000000E+00 -9.758724647E+02  9.758724647E+02  0.000000000E+00  0.00000E+00  9.000E+00
      25     1     1     2     0     0 -1.213749697E+02  1.833389726E+02 -2.406534468E+02  3.491190966E+02  1.250000000E+02  0.00000E+00  9.000E+00
      25     1     1     2     0     0  1.244297241E+02 -1.753037193E+02 -7.532208157E+01  2.598318036E+02  1.250000000E+02  0.00000E+00  9.000E+00
      21     1     1     2   502   511 -3.054754344E+00 -8.035253342E+00 -5.133732670E+02  5.134452338E+02  0.000000000E+00  0.00000E+00  9.000E+00
#rwgt            1           1   3.1074950671542811E-002           5       58921           0
</event>
<event>
      5   9999  3.19816E-02  7.36663E+00 -1.00000E+00  2.12467E-01
      21    -1     0     0   502   501  0.000000000E+00  0.000000000E+00  2.748613026E+02  2.748613026E+02  0.000000000E+00  0.00000E+00  9.000E+00
      21    -1     0     0   501   512  0.000000000E+00  0.000000000E+00 -5.203246213E+02  5.203246213E+02  0.000000000E+00  0.00000E+00  9.000E+00
      25     1     1     2     0     0  1.032743112E+02 -1.962168388E+02  1.687865689E+02  3.054186258E+02  1.250000000E+02  0.00000E+00  9.000E+00
      25     1     1     2     0     0 -9.616272076E+01  1.981384390E+02 -4.074852382E+02  4.797659109E+02  1.250000000E+02  0.00000E+00  9.000E+00
      21     1     1     2   502   512 -7.111590425E+00 -1.921600183E+00 -6.764649340E+00  1.000138722E+01  2.064765462E-07  0.00000E+00  9.000E+00
#rwgt            1           1   2.7726824296224282E-002           5       59150           0
</event>
<event>
      5   9999  3.19816E-02  1.00886E+02 -1.00000E+00  1.23656E-01
      21    -1     0     0   511   501  0.000000000E+00  0.000000000E+00  4.514710856E+02  4.514710856E+02  0.000000000E+00  0.00000E+00  9.000E+00
      21    -1     0     0   501   502  0.000000000E+00  0.000000000E+00 -9.174080060E+02  9.174080060E+02  0.000000000E+00  0.00000E+00  9.000E+00
      25     1     1     2     0     0 -2.919616174E+02 -2.864096499E+02 -5.348918818E+02  6.848404185E+02  1.250000000E+02  0.00000E+00  9.000E+00
      25     1     1     2     0     0  2.526930401E+02  3.793394113E+02 -1.038843517E+02  4.839102396E+02  1.250000000E+02  0.00000E+00  9.000E+00
      21     1     1     2   511   502  3.926857731E+01 -9.292976136E+01  1.728393131E+02  2.001284335E+02  2.697398305E-06  0.00000E+00  9.000E+00
#rwgt            1           1   2.9436505786169152E-002           5       59463           0
</event>
<event>
      5   9999  3.19816E-02  3.85136E+02 -1.00000E+00  1.02183E-01
      21    -1     0     0   502   501  0.000000000E+00  0.000000000E+00  1.639678333E+03  1.639678333E+03  0.000000000E+00  0.00000E+00  9.000E+00
      21    -1     0     0   512   502  0.000000000E+00  0.000000000E+00 -1.419963660E+02  1.419963660E+02  0.000000000E+00  0.00000E+00  9.000E+00
      25     1     1     2     0     0  1.230259855E+02  1.469079206E+02  1.752584810E+02  2.881976152E+02  1.250000000E+02  0.00000E+00  9.000E+00
      25     1     1     2     0     0 -6.280477578E+01  2.334910159E+02  7.957080187E+02  8.409748780E+02  1.250000000E+02  0.00000E+00  9.000E+00
      21     1     1     2   512   501 -6.022120974E+01 -3.803989364E+02  5.267154668E+02  6.525022053E+02  1.078959322E-05  0.00000E+00  9.000E+00
#rwgt            1           1   2.9572896657451487E-002           5       59529           0
</event>
<event>
      5   9999  3.19816E-02  1.23103E+01 -1.00000E+00  1.85870E-01
      21    -1     0     0   511   501  0.000000000E+00  0.000000000E+00  1.409918902E+03  1.409918902E+03  0.000000000E+00  0.00000E+00  9.000E+00
      21    -1     0     0   501   502  0.000000000E+00  0.000000000E+00 -1.495715011E+02  1.495715011E+02  0.000000000E+00  0.00000E+00  9.000E+00
      25     1     1     2     0     0 -2.381863164E+02 -3.386273311E+02  4.462816907E+02  6.214447185E+02  1.250000000E+02  0.00000E+00  9.000E+00
      25     1     1     2     0     0  2.472529872E+02  3.469543303E+02  7.401331845E+02  8.630952889E+02  1.250000000E+02  0.00000E+00  9.000E+00
      21     1     1     2   511   502 -9.066670826E+00 -8.326999221E+00  7.393252543E+01  7.495039528E+01  1.348699152E-06  0.00000E+00  9.000E+00
#rwgt            1           1   2.7558753824406385E-002           5       59559           0
</event>
<event>
      5   9999  3.19816E-02  1.36956E+01 -1.00000E+00  1.81188E-01
      21    -1     0     0   502   501  0.000000000E+00  0.000000000E+00  4.238341759E+03  4.238341759E+03  0.000000000E+00  0.00000E+00  9.000E+00
      21    -1     0     0   512   502  0.000000000E+00  0.000000000E+00 -1.171282770E+01  1.171282770E+01  0.000000000E+00  0.00000E+00  9.000E+00
      25     1     1     2     0     0  5.220767771E+01  1.205427738E+02  9.793910960E+02  9.960362046E+02  1.250000000E+02  0.00000E+00  9.000E+00
      25     1     1     2     0     0 -6.572096507E+01 -1.227700977E+02  3.173973671E+03  3.179485116E+03  1.250000000E+02  0.00000E+00  9.000E+00
      21     1     1     2   512   501  1.351328736E+01  2.227323912E+00  7.326416529E+01  7.453326655E+01  9.536743164E-07  0.00000E+00  9.000E+00
#rwgt            1           1   2.8807117975145373E-003           5       59867           0
</event>
<event>
      5   9999  3.19816E-02  1.11059E+02 -1.00000E+00  1.21813E-01
      21    -1     0     0   502   501  0.000000000E+00  0.000000000E+00  3.992792625E+02  3.992792625E+02  0.000000000E+00  0.00000E+00  9.000E+00
      21    -1     0     0   511   502  0.000000000E+00  0.000000000E+00 -5.707055088E+02  5.707055088E+02  0.000000000E+00  0.00000E+00  9.000E+00
      25     1     1     2     0     0  1.479142772E+02  3.762283951E+02  4.561406890E+01  4.255961489E+02  1.250000000E+02  0.00000E+00  9.000E+00
      25     1     1     2     0     0 -1.371509561E+02 -2.656919472E+02 -2.819071166E+01  3.253034150E+02  1.250000000E+02  0.00000E+00  9.000E+00
      21     1     1     2   511   501 -1.076332112E+01 -1.105364479E+02 -1.888496035E+02  2.190852075E+02  0.000000000E+00  0.00000E+00  9.000E+00
#rwgt            1           1   3.1117694181240958E-002           5       60045           0
</event>
<event>
      5   9999  3.19816E-02  1.34142E+02 -1.00000E+00  1.18350E-01
       2    -1     0     0   502     0  0.000000000E+00  0.000000000E+00  1.535408722E+03  1.535408722E+03  0.000000000E+00  0.00000E+00  9.000E+00
      21    -1     0     0   501   502  0.000000000E+00  0.000000000E+00 -1.340280656E+02  1.340280656E+02  0.000000000E+00  0.00000E+00  9.000E+00
      25     1     1     2     0     0  4.509555073E+01  9.989851757E+01  3.056955178E+02  3.479771144E+02  1.250000000E+02  0.00000E+00  9.000E+00
      25     1     1     2     0     0 -1.704475876E+02 -1.476582596E+02  4.437790289E+01  2.616290122E+02  1.250000000E+02  0.00000E+00  9.000E+00
       2     1     1     2   501     0  1.253520369E+02  4.775974199E+01  1.051307236E+03  1.059830661E+03  1.525878906E-05  0.00000E+00  9.000E+00
#rwgt            2          18   1.3098265635758627E-003           5       60162           0
</event>
<event>
      5   9999  3.19816E-02  4.09987E+02 -1.00000E+00  1.01364E-01
      21    -1     0     0   511   501  0.000000000E+00  0.000000000E+00  1.296142163E+03  1.296142163E+03  0.000000000E+00  0.00000E+00  9.000E+00
      21    -1     0     0   501   502  0.000000000E+00  0.000000000E+00 -5.162188285E+02  5.162188285E+02  0.000000000E+00  0.00000E+00  9.000E+00
      25     1     1     2     0     0  4.267058208E+02  2.320712011E+02  2.997637079E+02  5.843100037E+02  1.250000000E+02  0.00000E+00  9.000E+00
      25     1     1     2     0     0 -4.866189646E+02  1.735142640E+02 -7.617547616E+01  5.369664046E+02  1.250000000E+02  0.00000E+00  9.000E+00
      21     1     1     2   511   502  5.991314376E+01 -4.055854651E+02  5.563351023E+02  6.910845827E+02  7.629394531E-06  0.00000E+00  9.000E+00
#rwgt            1           1   3.4334487437870348E-002           5       60196           0
</event>
<event>
      5   9999  3.19816E-02  6.26204E+01 -1.00000E+00  1.33719E-01
      21    -1     0     0   512   501  0.000000000E+00  0.000000000E+00  1.095234902E+02  1.095234902E+02  0.000000000E+00  0.00000E+00  9.000E+00
      21    -1     0     0   501   502  0.000000000E+00  0.000000000E+00 -1.322767427E+03  1.322767427E+03  0.000000000E+00  0.00000E+00  9.000E+00
      25     1     1     2     0     0  2.749826019E+02  1.033193179E+02 -8.787763465E+02  9.349669406E+02  1.250000000E+02  0.00000E+00  9.000E+00
      25     1     1     2     0     0 -2.227500509E+02 -6.877845450E+01 -3.440384794E+02  4.339764236E+02  1.250000000E+02  0.00000E+00  9.000E+00
      21     1     1     2   512   502 -5.223255097E+01 -3.454086335E+01  9.570888646E+00  6.334755347E+01  4.298152060E-07  0.00000E+00  9.000E+00
#rwgt            1           1   3.2303257479217279E-002           5       60228           0
</event>
<event>
      5   9999  3.19816E-02  3.05503E+01 -1.00000E+00  1.52494E-01
      21    -1     0     0   502   501  0.000000000E+00  0.000000000E+00  3.466715877E+02  3.466715877E+02  0.000000000E+00  0.00000E+00  9.000E+00
      21    -1     0     0   511   502  0.000000000E+00  0.000000000E+00 -2.802596704E+02  2.802596704E+02  0.000000000E+00  0.00000E+00  9.000E+00
      25     1     1     2     0     0 -1.438820232E+02 -1.329718225E+02 -1.367520619E+02  2.696473041E+02  1.250000000E+02  0.00000E+00  9.000E+00
      25     1     1     2     0     0  1.724829456E+02  1.222335799E+02  2.131000032E+02  3.251584628E+02  1.250000000E+02  0.00000E+00  9.000E+00
      21     1     1     2   511   501 -2.860092237E+01  1.073824258E+01 -9.936023923E+00  3.212549121E+01  6.848052319E-07  0.00000E+00  9.000E+00
#rwgt            1           1   2.8487998103061407E-002           5       60290           0
</event>
<event>
      5   9999  3.19816E-02  9.88955E+01 -1.00000E+00  1.24045E-01
      21    -1     0     0   502   501  0.000000000E+00  0.000000000E+00  2.353968294E+02  2.353968294E+02  0.000000000E+00  0.00000E+00  9.000E+00
      21    -1     0     0   501   512  0.000000000E+00  0.000000000E+00 -7.603220450E+02  7.603220450E+02  0.000000000E+00  0.00000E+00  9.000E+00
      25     1     1     2     0     0 -1.614125654E+02 -1.758643738E+02 -4.452416573E+02  5.204300411E+02  1.250000000E+02  0.00000E+00  9.000E+00
      25     1     1     2     0     0  1.535138276E+02  2.744439084E+02  1.452116501E+01  3.387060944E+02  1.250000000E+02  0.00000E+00  9.000E+00
      21     1     1     2   502   512  7.898737751E+00 -9.857953464E+01 -9.420472326E+01  1.365827390E+02  2.336015456E-06  0.00000E+00  9.000E+00
#rwgt            1           1   3.0694688299660489E-002           5       60416           0
</event>
<event>
      5   9999  3.19816E-02  1.56002E+02 -1.00000E+00  1.15722E-01
      21    -1     0     0   511   501  0.000000000E+00  0.000000000E+00  1.500772494E+03  1.500772494E+03  0.000000000E+00  0.00000E+00  9.000E+00
      21    -1     0     0   501   502  0.000000000E+00  0.000000000E+00 -9.685827715E+02  9.685827715E+02  0.000000000E+00  0.00000E+00  9.000E+00
      25     1     1     2     0     0  6.877302737E+02 -6.507842681E+02 -3.603230105E+02  1.020759896E+03  1.250000000E+02  0.00000E+00  9.000E+00
      25     1     1     2     0     0 -6.138959870E+02  5.133613366E+02  3.469026637E+02  8.811212192E+02  1.250000000E+02  0.00000E+00  9.000E+00
      21     1     1     2   511   502 -7.383428663E+01  1.374229315E+02  5.456100693E+02  5.674741507E+02  0.000000000E+00  0.00000E+00  9.000E+00
#rwgt            1           1   1.9116923268630043E-002           5       60530           0
</event>
<event>
      5   9999  3.19816E-02  6.07408E+01 -1.00000E+00  1.34419E-01
      21    -1     0     0   502   512  0.000000000E+00  0.000000000E+00  9.307122510E+02  9.307122510E+02  0.000000000E+00  0.00000E+00  9.000E+00
      21    -1     0     0   501   502  0.000000000E+00  0.000000000E+00 -2.942870760E+02  2.942870760E+02  0.000000000E+00  0.00000E+00  9.000E+00
      25     1     1     2     0     0  5.655363602E+01  3.658953446E+02  1.341253809E+01  3.910020628E+02  1.250000000E+02  0.00000E+00  9.000E+00
      25     1     1     2     0     0  4.178711733E+00 -3.648806872E+02  2.582018393E+02  4.641643753E+02  1.250000000E+02  0.00000E+00  9.000E+00
      21     1     1     2   501   512 -6.073234775E+01 -1.014657386E+00  3.648107976E+02  3.698328888E+02  7.629394531E-06  0.00000E+00  9.000E+00
#rwgt            1           1   2.9771730447142715E-002           5       60611           0
</event>
<event>
      5   9999  3.19816E-02  5.93227E+01 -1.00000E+00  1.34967E-01
      -4    -1     0     0     0   501  0.000000000E+00  0.000000000E+00  4.882854943E+02  4.882854943E+02  0.000000000E+00  0.00000E+00  9.000E+00
      21    -1     0     0   501   502  0.000000000E+00  0.000000000E+00 -1.260443729E+03  1.260443729E+03  0.000000000E+00  0.00000E+00  9.000E+00
      25     1     1     2     0     0 -9.119568046E+01 -3.283619336E+02 -6.647543521E+02  7.574044891E+02  1.250000000E+02  0.00000E+00  9.000E+00
      25     1     1     2     0     0  1.307125905E+02  3.726067082E+02 -4.685329455E+02  6.253556279E+02  1.250000000E+02  0.00000E+00  9.000E+00
      -4     1     1     2     0   502 -3.951691007E+01 -4.424477456E+01  3.611290632E+02  3.659691060E+02  5.394796609E-06  0.00000E+00  9.000E+00
#rwgt            2           2   1.2762526688994685E-004           5       60780           0
</event>
<event>
      5   9999  3.19816E-02  5.84094E+01 -1.00000E+00  1.35330E-01
      21    -1     0     0   502   501  0.000000000E+00  0.000000000E+00  1.367766392E+02  1.367766392E+02  0.000000000E+00  0.00000E+00  9.000E+00
      21    -1     0     0   511   502  0.000000000E+00  0.000000000E+00 -9.431150093E+02  9.431150093E+02  0.000000000E+00  0.00000E+00  9.000E+00
      25     1     1     2     0     0  1.648738225E+02 -1.942358001E+02 -1.694175718E+02  3.305120830E+02  1.250000000E+02  0.00000E+00  9.000E+00
      25     1     1     2     0     0 -1.868408948E+02  2.483569650E+02 -5.635975182E+02  6.556354662E+02  1.250000000E+02  0.00000E+00  9.000E+00
      21     1     1     2   511   501  2.196707235E+01 -5.412116485E+01 -7.332328007E+01  9.374409930E+01  1.651812370E-06  0.00000E+00  9.000E+00
#rwgt            1           1   2.8998161841557894E-002           5       60799           0
</event>
<event>
      5   9999  3.19816E-02  4.27239E+01 -1.00000E+00  1.43088E-01
      21    -1     0     0   502   512  0.000000000E+00  0.000000000E+00  5.362370103E+02  5.362370103E+02  0.000000000E+00  0.00000E+00  9.000E+00
      21    -1     0     0   501   502  0.000000000E+00  0.000000000E+00 -4.685562551E+02  4.685562551E+02  0.000000000E+00  0.00000E+00  9.000E+00
      25     1     1     2     0     0 -5.528272814E+01 -1.176085024E+02 -2.045516538E+02  2.726798836E+02  1.250000000E+02  0.00000E+00  9.000E+00
      25     1     1     2     0     0  9.723371500E+01  1.256982274E+02 -1.843038136E+02  2.735824107E+02  1.250000000E+02  0.00000E+00  9.000E+00
      21     1     1     2   501   512 -4.195098685E+01 -8.089725070E+00  4.565362226E+02  4.585309712E+02  9.344061824E-06  0.00000E+00  9.000E+00
#rwgt            1           1   2.6044640396808493E-002           5       60886           0
</event>
<event>
      5   9999  3.19816E-02  4.72325E+00 -1.00000E+00  2.47546E-01
      21    -1     0     0   502   501  0.000000000E+00  0.000000000E+00  8.223308894E+02  8.223308894E+02  0.000000000E+00  0.00000E+00  9.000E+00
      21    -1     0     0   511   502  0.000000000E+00  0.000000000E+00 -2.272711344E+02  2.272711344E+02  0.000000000E+00  0.00000E+00  9.000E+00
      25     1     1     2     0     0  1.961845217E+02  1.900463289E+02  8.197905240E+01  3.113704204E+02  1.250000000E+02  0.00000E+00  9.000E+00
      25     1     1     2     0     0 -1.962536305E+02 -1.947690763E+02  5.887866590E+02  6.623784495E+02  1.250000000E+02  0.00000E+00  9.000E+00
      21     1     1     2   511   501  6.910877305E-02  4.722747415E+00 -7.570595640E+01  7.585315389E+01  1.348699152E-06  0.00000E+00  9.000E+00
#rwgt            1           1   2.8324999317911062E-002           5       60938           0
</event>
<event>
      5   9999  3.19816E-02  2.26802E+02 -1.00000E+00  1.09695E-01
      21    -1     0     0   512   501  0.000000000E+00  0.000000000E+00  1.372398661E+02  1.372398661E+02  0.000000000E+00  0.00000E+00  9.000E+00
      21    -1     0     0   501   502  0.000000000E+00  0.000000000E+00 -2.282953222E+03  2.282953222E+03  0.000000000E+00  0.00000E+00  9.000E+00
      25     1     1     2     0     0  1.528960314E+02 -1.796722791E+02 -2.054608991E+02  3.368953923E+02  1.250000000E+02  0.00000E+00  9.000E+00
      25     1     1     2     0     0  6.667443490E+01  2.364891858E+02 -1.790312651E+03  1.811412985E+03  1.250000000E+02  0.00000E+00  9.000E+00
      21     1     1     2   512   502 -2.195704663E+02 -5.681690664E+01 -1.499398062E+02  2.718847109E+02  1.907348633E-06  0.00000E+00  9.000E+00
#rwgt            1           1   3.0248662231710587E-002           5       61397           0
</event>
<event>
      5   9999  3.19816E-02  6.78971E+01 -1.00000E+00  1.31895E-01
      21    -1     0     0   502   501  0.000000000E+00  0.000000000E+00  1.850599493E+02  1.850599493E+02  0.000000000E+00  0.00000E+00  9.000E+00
      21    -1     0     0   511   502  0.000000000E+00  0.000000000E+00 -1.115521673E+03  1.115521673E+03  0.000000000E+00  0.00000E+00  9.000E+00
      25     1     1     2     0     0  8.546796975E+01  2.758895520E+02 -3.573708469E+01  3.167364172E+02  1.250000000E+02  0.00000E+00  9.000E+00
      25     1     1     2     0     0 -1.344759134E+02 -2.288976795E+02 -4.725322388E+02  5.562280428E+02  1.250000000E+02  0.00000E+00  9.000E+00
      21     1     1     2   511   501  4.900794363E+01 -4.699187247E+01 -4.221923998E+02  4.276171618E+02  5.394796609E-06  0.00000E+00  9.000E+00
#rwgt            1           1   2.7272944516688661E-002           5       61460           0
</event>
<event>
      5   9999  3.19816E-02  5.49298E+00 -1.00000E+00  2.31596E-01
       2    -1     0     0   502     0  0.000000000E+00  0.000000000E+00  1.476173250E+03  1.476173250E+03  0.000000000E+00  0.00000E+00  9.000E+00
      21    -1     0     0   501   502  0.000000000E+00  0.000000000E+00 -2.423074172E+02  2.423074172E+02  0.000000000E+00  0.00000E+00  9.000E+00
      25     1     1     2     0     0  3.534187798E+02 -1.724546965E+01  7.633588033E+01  3.829548364E+02  1.250000000E+02  0.00000E+00  9.000E+00
      25     1     1     2     0     0 -3.563182042E+02  1.258004640E+01  3.120321535E+02  4.900101887E+02  1.250000000E+02  0.00000E+00  9.000E+00
       2     1     1     2   501     0  2.899424398E+00  4.665423251E+00  8.454977988E+02  8.455156418E+02  1.078959322E-05  0.00000E+00  9.000E+00
#rwgt            1           1   3.2558479584811555E-002           5       61561           0
</event>
<event>
      5   9999  3.19816E-02  9.28768E+01 -1.00000E+00  1.25289E-01
      21    -1     0     0   502   511  0.000000000E+00  0.000000000E+00  1.395880464E+03  1.395880464E+03  0.000000000E+00  0.00000E+00  9.000E+00
      21    -1     0     0   501   502  0.000000000E+00  0.000000000E+00 -4.564059435E+02  4.564059435E+02  0.000000000E+00  0.00000E+00  9.000E+00
      25     1     1     2     0     0  2.450437976E+01 -6.444695760E+02 -5.402157038E+01  6.591546322E+02  1.250000000E+02  0.00000E+00  9.000E+00
      25     1     1     2     0     0 -3.781355225E+01  5.525513255E+02  8.485605290E+02  1.020991089E+03  1.250000000E+02  0.00000E+00  9.000E+00
      21     1     1     2   501   511  1.330917249E+01  9.191825052E+01  1.449355617E+02  1.721406863E+02  2.697398305E-06  0.00000E+00  9.000E+00
#rwgt            1           1   3.1202610937822322E-002           5       61951           0
</event>
<event>
      5   9999  3.19816E-02  2.39921E+01 -1.00000E+00  1.60101E-01
      21    -1     0     0   502   501  0.000000000E+00  0.000000000E+00  1.393235101E+03  1.393235101E+03  0.000000000E+00  0.00000E+00  9.000E+00
      21    -1     0     0   512   502  0.000000000E+00  0.000000000E+00 -1.489826920E+02  1.489826920E+02  0.000000000E+00  0.00000E+00  9.000E+00
      25     1     1     2     0     0  1.565612619E+02  1.495485767E+02  1.063848009E+03  1.092828345E+03  1.250000000E+02  0.00000E+00  9.000E+00
      25     1     1     2     0     0 -1.497405191E+02 -1.265464250E+02  2.701861756E+02  3.564572769E+02  1.250000000E+02  0.00000E+00  9.000E+00
      21     1     1     2   512   501 -6.820742768E+00 -2.300215174E+01 -8.978177469E+01  9.293217195E+01  4.768371582E-06  0.00000E+00  9.000E+00
#rwgt            1           1   2.8557171483377244E-002           5       62085           0
</event>
<event>
      5   9999  3.19816E-02  2.79005E+02 -1.00000E+00  1.06626E-01
      21    -1     0     0   502   501  0.000000000E+00  0.000000000E+00  7.491424805E+02  7.491424805E+02  0.000000000E+00  0.00000E+00  9.000E+00
      21    -1     0     0   501   511  0.000000000E+00  0.000000000E+00 -1.022969566E+03  1.022969566E+03  0.000000000E+00  0.00000E+00  9.000E+00
      25     1     1     2     0     0  6.099225517E+01 -7.163588170E+01  6.690230627E+02  6.870724949E+02  1.250000000E+02  0.00000E+00  9.000E+00
      25     1     1     2     0     0  2.154293742E+02  3.375585579E+01 -5.322997224E+02  5.886571731E+02  1.250000000E+02  0.00000E+00  9.000E+00
      21     1     1     2   502   511 -2.764216294E+02  3.788002591E+01 -4.105504258E+02  4.963823785E+02  0.000000000E+00  0.00000E+00  9.000E+00
#rwgt            1           1   3.0864614493562030E-002           5       62196           0
</event>
<event>
      5   9999  3.19816E-02  8.13908E+01 -1.00000E+00  1.27988E-01
      21    -1     0     0   502   501  0.000000000E+00  0.000000000E+00  1.023699294E+02  1.023699294E+02  0.000000000E+00  0.00000E+00  9.000E+00
       2    -1     0     0   501     0  0.000000000E+00  0.000000000E+00 -2.652760006E+03  2.652760006E+03  0.000000000E+00  0.00000E+00  9.000E+00
      25     1     1     2     0     0  2.431251001E+00 -4.628332308E+02 -1.136226979E+03  1.233230416E+03  1.250000000E+02  0.00000E+00  9.000E+00
      25     1     1     2     0     0 -7.099885417E+01  4.189818735E+02 -9.200583057E+02  1.021136099E+03  1.250000000E+02  0.00000E+00  9.000E+00
       2     1     1     2   502     0  6.856760317E+01  4.385135739E+01 -4.941047916E+02  5.007634201E+02  5.394796609E-06  0.00000E+00  9.000E+00
#rwgt            1           1   2.0731361707406790E-002           5       62231           0
</event>
<event>
      5   9999  3.19816E-02  1.71014E+02 -1.00000E+00  1.14181E-01
      21    -1     0     0   511   501  0.000000000E+00  0.000000000E+00  5.332616485E+02  5.332616485E+02  0.000000000E+00  0.00000E+00  9.000E+00
      21    -1     0     0   501   502  0.000000000E+00  0.000000000E+00 -5.927261051E+02  5.927261051E+02  0.000000000E+00  0.00000E+00  9.000E+00
      25     1     1     2     0     0  9.206337905E+01 -1.205973513E+02 -4.163316165E+02  4.604089506E+02  1.250000000E+02  0.00000E+00  9.000E+00
      25     1     1     2     0     0  7.894179067E+01  1.188960346E+02 -7.273997570E+01  2.031850817E+02  1.250000000E+02  0.00000E+00  9.000E+00
      21     1     1     2   511   502 -1.710051697E+02  1.701316715E+00  4.296071356E+02  4.623937213E+02  0.000000000E+00  0.00000E+00  9.000E+00
#rwgt            1           1   2.7017869393172720E-002           5       62364           0
</event>
<event>
      5   9999  3.19816E-02  9.57956E+01 -1.00000E+00  1.24673E-01
      21    -1     0     0   502   501  0.000000000E+00  0.000000000E+00  9.798260961E+02  9.798260961E+02  0.000000000E+00  0.00000E+00  9.000E+00
      21    -1     0     0   501   512  0.000000000E+00  0.000000000E+00 -7.346534687E+02  7.346534687E+02  0.000000000E+00  0.00000E+00  9.000E+00
      25     1     1     2     0     0 -5.515798826E+02 -4.256369155E+02 -2.815449725E+02  7.617740625E+02  1.250000000E+02  0.00000E+00  9.000E+00
      25     1     1     2     0     0  4.723170547E+02  4.794346640E+02  5.141155359E+02  8.560845645E+02  1.250000000E+02  0.00000E+00  9.000E+00
      21     1     1     2   502   512  7.926282791E+01 -5.379774851E+01  1.260206397E+01  9.662093795E+01  2.092114541E-06  0.00000E+00  9.000E+00
#rwgt            2          11   1.0840379680441704E-002           5       62517           0
</event>
<event>
      5   9999  3.19816E-02  1.48088E+01 -1.00000E+00  1.77910E-01
      21    -1     0     0   502   511  0.000000000E+00  0.000000000E+00  7.821157187E+01  7.821157187E+01  0.000000000E+00  0.00000E+00  9.000E+00
      21    -1     0     0   501   502  0.000000000E+00  0.000000000E+00 -8.937457093E+02  8.937457093E+02  0.000000000E+00  0.00000E+00  9.000E+00
      25     1     1     2     0     0 -7.718179860E+01  5.308649821E+01 -7.772560749E+02  7.927970814E+02  1.250000000E+02  0.00000E+00  9.000E+00
      25     1     1     2     0     0  6.259715741E+01 -5.565338622E+01 -5.177168065E+01  1.591257692E+02  1.250000000E+02  0.00000E+00  9.000E+00
      21     1     1     2   501   511  1.458464118E+01  2.566888015E+00  1.349361818E+01  2.003443047E+01  7.152557373E-07  0.00000E+00  9.000E+00
#rwgt            1           1   2.7108850597156047E-002           5       62537           0
</event>
<event>
      5   9999  3.19816E-02  1.69169E+02 -1.00000E+00  1.14361E-01
       1    -1     0     0   502     0  0.000000000E+00  0.000000000E+00  8.559271111E+02  8.559271111E+02  0.000000000E+00  0.00000E+00  9.000E+00
      21    -1     0     0   501   502  0.000000000E+00  0.000000000E+00 -4.087402218E+02  4.087402218E+02  0.000000000E+00  0.00000E+00  9.000E+00
      25     1     1     2     0     0 -1.864597385E+02 -1.797152689E+02  1.418056527E+02  3.206222935E+02  1.250000000E+02  0.00000E+00  9.000E+00
      25     1     1     2     0     0  2.690255183E+02  3.206377471E+01 -2.337256391E+02  3.790191150E+02  1.250000000E+02  0.00000E+00  9.000E+00
       1     1     1     2   501     0 -8.256577978E+01  1.476514942E+02  5.391068757E+02  5.650259243E+02  1.525878906E-05  0.00000E+00  9.000E+00
#rwgt            2          17   5.6038210459385496E-004           5       62684           0
</event>
<event>
      5   9999  3.19816E-02  9.02627E+01 -1.00000E+00  1.25863E-01
      21    -1     0     0   502   511  0.000000000E+00  0.000000000E+00  6.305351660E+02  6.305351660E+02  0.000000000E+00  0.00000E+00  9.000E+00
      21    -1     0     0   501   502  0.000000000E+00  0.000000000E+00 -5.151338956E+02  5.151338956E+02  0.000000000E+00  0.00000E+00  9.000E+00
      25     1     1     2     0     0  9.637093070E+01  3.903061513E+02 -3.207830766E+02  5.292948425E+02  1.250000000E+02  0.00000E+00  9.000E+00
      25     1     1     2     0     0 -4.080907394E+01 -3.191707790E+02  3.423058402E+02  4.861415997E+02  1.250000000E+02  0.00000E+00  9.000E+00
      21     1     1     2   501   511 -5.556185676E+01 -7.113537228E+01  9.387850687E+01  1.302326194E+02  1.907348633E-06  0.00000E+00  9.000E+00
#rwgt            1           1   3.0355616135178273E-002           5       62733           0
</event>
<event>
      5   9999  3.19816E-02  2.29154E+01 -1.00000E+00  1.61636E-01
      21    -1     0     0   502   501  0.000000000E+00  0.000000000E+00  7.938211427E+02  7.938211427E+02  0.000000000E+00  0.00000E+00  9.000E+00
      21    -1     0     0   501   512  0.000000000E+00  0.000000000E+00 -7.203079834E+01  7.203079834E+01  0.000000000E+00  0.00000E+00  9.000E+00
      25     1     1     2     0     0  4.157381023E+01  1.763041272E+01  6.782381861E+02  6.911376492E+02  1.250000000E+02  0.00000E+00  9.000E+00
      25     1     1     2     0     0 -3.632604268E+01 -3.993687264E+01  5.759294367E+01  1.478393802E+02  1.250000000E+02  0.00000E+00  9.000E+00
      21     1     1     2   502   512 -5.247767554E+00  2.230645992E+01 -1.404078541E+01  2.687491160E+01  0.000000000E+00  0.00000E+00  9.000E+00
#rwgt            1           1   3.4080314577566551E-002           5       62779           0
</event>
<event>
      5   9999  3.19816E-02  9.55227E+01 -1.00000E+00  1.24729E-01
      21    -1     0     0   502   501  0.000000000E+00  0.000000000E+00  7.387141786E+02  7.387141786E+02  0.000000000E+00  0.00000E+00  9.000E+00
      21    -1     0     0   511   502  0.000000000E+00  0.000000000E+00 -2.095203104E+03  2.095203104E+03  0.000000000E+00  0.00000E+00  9.000E+00
      25     1     1     2     0     0 -7.449002943E+02 -8.051105025E+02 -6.126922946E+02  1.262575232E+03  1.250000000E+02  0.00000E+00  9.000E+00
      25     1     1     2     0     0  7.417789306E+02  9.005821703E+02 -4.405274952E+02  1.253384898E+03  1.250000000E+02  0.00000E+00  9.000E+00
      21     1     1     2   511   501  3.121363667E+00 -9.547166787E+01 -3.032691357E+02  3.179571527E+02  5.394796609E-06  0.00000E+00  9.000E+00
#rwgt            1           1   2.2043156219762706E-002           5       62869           0
</event>
<event>
      5   9999  3.19816E-02  1.30974E+02 -1.00000E+00  1.18777E-01
       1    -1     0     0   502     0  0.000000000E+00  0.000000000E+00  1.631694006E+03  1.631694006E+03  0.000000000E+00  0.00000E+00  9.000E+00
      21    -1     0     0   501   502  0.000000000E+00  0.000000000E+00 -1.556956777E+03  1.556956777E+03  0.000000000E+00  0.00000E+00  9.000E+00
      25     1     1     2     0     0  6.800069822E+02  2.798657532E+02 -1.133536861E+03  1.356932257E+03  1.250000000E+02  0.00000E+00  9.000E+00
      25     1     1     2     0     0 -5.727258554E+02 -2.047327787E+02  4.608605046E+00  6.209481906E+02  1.250000000E+02  0.00000E+00  9.000E+00
       1     1     1     2   501     0 -1.072811268E+02 -7.513297449E+01  1.203665485E+03  1.210770335E+03  2.642899792E-05  0.00000E+00  9.000E+00
#rwgt            2          17   2.8865358019909025E-003           5       63041           0
</event>
<event>
      5   9999  3.19816E-02  1.89572E+01 -1.00000E+00  1.68311E-01
      21    -1     0     0   511   501  0.000000000E+00  0.000000000E+00  3.982079181E+02  3.982079181E+02  0.000000000E+00  0.00000E+00  9.000E+00
      21    -1     0     0   501   502  0.000000000E+00  0.000000000E+00 -1.290889909E+02  1.290889909E+02  0.000000000E+00  0.00000E+00  9.000E+00
      25     1     1     2     0     0  7.790978888E+01 -1.992347467E+01  1.558898855E+02  2.153915886E+02  1.250000000E+02  0.00000E+00  9.000E+00
      25     1     1     2     0     0 -7.607712958E+01  3.879188402E+01 -4.074174081E+01  1.567719023E+02  1.250000000E+02  0.00000E+00  9.000E+00
      21     1     1     2   511   502 -1.832659299E+00 -1.886840935E+01  1.539707825E+02  1.551334180E+02  0.000000000E+00  0.00000E+00  9.000E+00
#rwgt            1           1   2.7801734718504119E-002           5       63060           0
</event>
<event>
      5   9999  3.19816E-02  1.11606E+02 -1.00000E+00  1.21720E-01
      21    -1     0     0   502   501  0.000000000E+00  0.000000000E+00  5.032266327E+02  5.032266327E+02  0.000000000E+00  0.00000E+00  9.000E+00
      21    -1     0     0   501   512  0.000000000E+00  0.000000000E+00 -1.943542072E+02  1.943542072E+02  0.000000000E+00  0.00000E+00  9.000E+00
      25     1     1     2     0     0 -1.920342691E+02 -4.791985074E+01  1.982834474E+02  3.067813522E+02  1.250000000E+02  0.00000E+00  9.000E+00
      25     1     1     2     0     0  8.561444105E+01  8.154677777E+01  1.880949381E+02  2.549204096E+02  1.250000000E+02  0.00000E+00  9.000E+00
      21     1     1     2   502   512  1.064198280E+02 -3.362692703E+01 -7.750596004E+01  1.358790781E+02  2.523185073E-06  0.00000E+00  9.000E+00
#rwgt            1           1   2.8722203937363529E-002           5       63213           0
</event>
<event>
      5   9999  3.19816E-02  9.97038E+01 -1.00000E+00  1.23886E-01
      21    -1     0     0   502   511  0.000000000E+00  0.000000000E+00  2.067980534E+02  2.067980534E+02  0.000000000E+00  0.00000E+00  9.000E+00
      21    -1     0     0   501   502  0.000000000E+00  0.000000000E+00 -4.849668359E+02  4.849668359E+02  0.000000000E+00  0.00000E+00  9.000E+00
      25     1     1     2     0     0  5.216555172E+01 -1.538725446E+02 -2.115321336E+02  2.945655247E+02  1.250000000E+02  0.00000E+00  9.000E+00
      25     1     1     2     0     0 -8.121338619E+01  2.492510672E+02 -3.462028712E+01  2.924812351E+02  1.250000000E+02  0.00000E+00  9.000E+00
      21     1     1     2   501   511  2.904783446E+01 -9.537852260E+01 -3.201636174E+01  1.047181297E+02  1.846782373E-06  0.00000E+00  9.000E+00
#rwgt            1           1   2.8517374302715840E-002           5       63261           0
</event>
<event>
      5   9999  3.19816E-02  9.56609E+00 -1.00000E+00  1.98011E-01
      21    -1     0     0   502   512  0.000000000E+00  0.000000000E+00  7.687775897E+01  7.687775897E+01  0.000000000E+00  0.00000E+00  9.000E+00
      21    -1     0     0   501   502  0.000000000E+00  0.000000000E+00 -6.671635873E+02  6.671635873E+02  0.000000000E+00  0.00000E+00  9.000E+00
      25     1     1     2     0     0  4.749845358E+01 -7.636487714E+01 -5.156950395E+02  5.381951981E+02  1.250000000E+02  0.00000E+00  9.000E+00
      25     1     1     2     0     0 -5.318072480E+01  6.866930090E+01 -9.767626269E+01  1.808571665E+02  1.250000000E+02  0.00000E+00  9.000E+00
      21     1     1     2   501   512  5.682271222E+00  7.695576235E+00  2.308547385E+01  2.498898163E+01  0.000000000E+00  0.00000E+00  9.000E+00
#rwgt            1           1   3.1915735586348914E-002           5       63305           0
</event>
<event>
      5   9999  3.19816E-02  3.51947E+01 -1.00000E+00  1.48374E-01
      -4    -1     0     0     0   501  0.000000000E+00  0.000000000E+00  5.276990997E+02  5.276990997E+02  0.000000000E+00  0.00000E+00  9.000E+00
      21    -1     0     0   501   502  0.000000000E+00  0.000000000E+00 -8.181357933E+02  8.181357933E+02  0.000000000E+00  0.00000E+00  9.000E+00
      25     1     1     2     0     0  1.115843775E+02 -1.870433239E+02 -6.091461700E+02  6.588780879E+02  1.250000000E+02  0.00000E+00  9.000E+00
      25     1     1     2     0     0 -1.257105001E+02  1.548079119E+02 -1.078892885E+02  2.589087059E+02  1.250000000E+02  0.00000E+00  9.000E+00
      -4     1     1     2     0   502  1.412612261E+01  3.223541203E+01  4.265987648E+02  4.280480992E+02  5.394796609E-06  0.00000E+00  9.000E+00
#rwgt            1           1   2.7669484741891345E-002           5       63464           0
</event>
<event>
      5   9999  3.19816E-02  2.37741E+02 -1.00000E+00  1.08982E-01
      21    -1     0     0   502   501  0.000000000E+00  0.000000000E+00  4.481596577E+02  4.481596577E+02  0.000000000E+00  0.00000E+00  9.000E+00
      21    -1     0     0   501   511  0.000000000E+00  0.000000000E+00 -8.982493437E+02  8.982493437E+02  0.000000000E+00  0.00000E+00  9.000E+00
      25     1     1     2     0     0 -3.165962959E+01 -3.827835845E+02  1.114131648E+02  4.190029809E+02  1.250000000E+02  0.00000E+00  9.000E+00
      25     1     1     2     0     0 -1.934200988E+02  3.062346365E+02 -8.147633547E+01  3.917325369E+02  1.250000000E+02  0.00000E+00  9.000E+00
      21     1     1     2   502   511  2.250797284E+02  7.654894795E+01 -4.800265153E+02  5.356734836E+02  9.344061824E-06  0.00000E+00  9.000E+00
#rwgt            2          11   2.6508340743527765E-003           5       63604           0
</event>
<event>
      5   9999  3.19816E-02  1.99132E+02 -1.00000E+00  1.11717E-01
      21    -1     0     0   502   501  0.000000000E+00  0.000000000E+00  1.008056725E+03  1.008056725E+03  0.000000000E+00  0.00000E+00  9.000E+00
       1    -1     0     0   501     0  0.000000000E+00  0.000000000E+00 -1.298509261E+03  1.298509261E+03  0.000000000E+00  0.00000E+00  9.000E+00
      25     1     1     2     0     0 -2.360705220E+02 -4.923888495E+02  7.397594888E+02  9.279251973E+02  1.250000000E+02  0.00000E+00  9.000E+00
      25     1     1     2     0     0  3.749608778E+02  3.496904375E+02 -2.700244058E+02  5.928045561E+02  1.250000000E+02  0.00000E+00  9.000E+00
       1     1     1     2   502     0 -1.388903558E+02  1.426984120E+02 -7.601876197E+02  7.858362329E+02  1.868812365E-05  0.00000E+00  9.000E+00
#rwgt            1           1   2.8429945229019517E-002           5       63639           0
</event>
<event>
      5   9999  3.19816E-02  1.62008E+02 -1.00000E+00  1.15083E-01
      21    -1     0     0   502   511  0.000000000E+00  0.000000000E+00  6.259244209E+02  6.259244209E+02  0.000000000E+00  0.00000E+00  9.000E+00
      21    -1     0     0   501   502  0.000000000E+00  0.000000000E+00 -2.456152256E+02  2.456152256E+02  0.000000000E+00  0.00000E+00  9.000E+00
      25     1     1     2     0     0 -2.217306605E+02  2.683981596E+00 -8.387833220E+00  2.546900966E+02  1.250000000E+02  0.00000E+00  9.000E+00
      25     1     1     2     0     0  2.440890665E+02  1.577735449E+02  2.424575733E+02  3.986008514E+02  1.250000000E+02  0.00000E+00  9.000E+00
      21     1     1     2   501   511 -2.235840595E+01 -1.604575265E+02  1.462394552E+02  2.182486985E+02  5.394796609E-06  0.00000E+00  9.000E+00
#rwgt            1           1   2.9740789724389535E-002           5       63734           0
</event>
<event>
      5   9999  3.19816E-02  2.24720E+01 -1.00000E+00  1.62299E-01
      21    -1     0     0   502   501  0.000000000E+00  0.000000000E+00  6.716779217E+02  6.716779217E+02  0.000000000E+00  0.00000E+00  9.000E+00
      21    -1     0     0   512   502  0.000000000E+00  0.000000000E+00 -2.467643267E+02  2.467643267E+02  0.000000000E+00  0.00000E+00  9.000E+00
      25     1     1     2     0     0 -2.075032941E+02 -5.031620065E+00 -1.238315610E+02  2.721069454E+02  1.250000000E+02  0.00000E+00  9.000E+00
      25     1     1     2     0     0  1.859992218E+02 -1.492516052E+00  5.717951487E+02  6.141438189E+02  1.250000000E+02  0.00000E+00  9.000E+00
      21     1     1     2   512   501  2.150407232E+01  6.524136117E+00 -2.304999280E+01  3.219148407E+01  4.768371582E-07  0.00000E+00  9.000E+00
#rwgt            1           1   2.8941518197350479E-002           5       63772           0
</event>
<event>
      5   9999  3.19816E-02  3.94848E+01 -1.00000E+00  1.45190E-01
      21    -1     0     0   502   501  0.000000000E+00  0.000000000E+00  8.079688045E+02  8.079688045E+02  0.000000000E+00  0.00000E+00  9.000E+00
      21    -1     0     0   511   502  0.000000000E+00  0.000000000E+00 -5.636827832E+02  5.636827832E+02  0.000000000E+00  0.00000E+00  9.000E+00
      25     1     1     2     0     0 -1.640612324E+02  9.874061043E+01 -5.050330438E+02  5.543908111E+02  1.250000000E+02  0.00000E+00  9.000E+00
      25     1     1     2     0     0  1.530534096E+02 -6.082127539E+01  7.497877003E+02  7.777732120E+02  1.250000000E+02  0.00000E+00  9.000E+00
      21     1     1     2   511   501  1.100782277E+01 -3.791933504E+01 -4.686352626E-01  3.948756451E+01  4.697116888E-07  0.00000E+00  9.000E+00
#rwgt            1           1   2.9198094679756377E-002           5       63941           0
</event>
<event>
      5   9999  3.19816E-02  1.33268E+02 -1.00000E+00  1.18466E-01
      21    -1     0     0   502   501  0.000000000E+00  0.000000000E+00  4.167547431E+02  4.167547431E+02  0.000000000E+00  0.00000E+00  9.000E+00
      21    -1     0     0   501   512  0.000000000E+00  0.000000000E+00 -1.795079556E+03  1.795079556E+03  0.000000000E+00  0.00000E+00  9.000E+00
      25     1     1     2     0     0 -1.319190932E+02 -6.193809496E+02  2.990563261E+01  6.461847683E+02  1.250000000E+02  0.00000E+00  9.000E+00
      25     1     1     2     0     0  6.441872600E+01  5.044725823E+02 -9.103342915E+02  1.050226585E+03  1.250000000E+02  0.00000E+00  9.000E+00
      21     1     1     2   502   512  6.750036716E+01  1.149083674E+02 -4.978961544E+02  5.154229458E+02  0.000000000E+00  0.00000E+00  9.000E+00
#rwgt            1           1   2.4900274312618702E-002           5       64086           0
</event>
<event>
      5   9999  3.19816E-02  1.81786E+01 -1.00000E+00  1.69865E-01
      21    -1     0     0   502   501  0.000000000E+00  0.000000000E+00  1.397960671E+03  1.397960671E+03  0.000000000E+00  0.00000E+00  9.000E+00
       2    -1     0     0   501     0  0.000000000E+00  0.000000000E+00 -9.777476256E+02  9.777476256E+02  0.000000000E+00  0.00000E+00  9.000E+00
      25     1     1     2     0     0 -1.373173190E+02  3.033927164E+02  8.527359660E+02  9.239517380E+02  1.250000000E+02  0.00000E+00  9.000E+00
      25     1     1     2     0     0  1.316788250E+02 -2.861107082E+02  4.531848180E+02  5.658622885E+02  1.250000000E+02  0.00000E+00  9.000E+00
       2     1     1     2   502     0  5.638493975E+00 -1.728200821E+01 -8.857077384E+02  8.858942703E+02  0.000000000E+00  0.00000E+00  9.000E+00
#rwgt            1           1   2.5649742089147175E-002           5       64191           0
</event>
<event>
      5   9999  3.19816E-02  1.20335E+02 -1.00000E+00  1.20317E-01
      21    -1     0     0   502   511  0.000000000E+00  0.000000000E+00  1.089352441E+03  1.089352441E+03  0.000000000E+00  0.00000E+00  9.000E+00
      21    -1     0     0   501   502  0.000000000E+00  0.000000000E+00 -3.183259353E+02  3.183259353E+02  0.000000000E+00  0.00000E+00  9.000E+00
      25     1     1     2     0     0 -3.418573010E+02 -1.572635085E+01  2.342272110E+02  4.331294480E+02  1.250000000E+02  0.00000E+00  9.000E+00
      25     1     1     2     0     0  4.621919768E+02  1.537917045E+01  5.998553822E+01  4.827848455E+02  1.250000000E+02  0.00000E+00  9.000E+00
      21     1     1     2   501   511 -1.203346758E+02  3.471804012E-01  4.768137565E+02  4.917640828E+02  7.629394531E-06  0.00000E+00  9.000E+00
#rwgt            1           1   2.9411276946533629E-002           5       64333           0
</event>
<event>
      5   9999  3.19816E-02  7.18802E+01 -1.00000E+00  1.30640E-01
      21    -1     0     0   502   501  0.000000000E+00  0.000000000E+00  9.823387347E+01  9.823387347E+01  0.000000000E+00  0.00000E+00  9.000E+00
       3    -1     0     0   501     0  0.000000000E+00  0.000000000E+00 -1.473686974E+03  1.473686974E+03  0.000000000E+00  0.00000E+00  9.000E+00
      25     1     1     2     0     0 -5.463787965E+01  1.231222421E+02 -3.982674373E+02  4.386186681E+02  1.250000000E+02  0.00000E+00  9.000E+00
      25     1     1     2     0     0  2.533955173E+00 -7.360507956E+01  8.184410716E+00  1.453138440E+02  1.250000000E+02  0.00000E+00  9.000E+00
       3     1     1     2   502     0  5.210392447E+01 -4.951716252E+01 -9.853700738E+02  9.879883353E+02  1.078959322E-05  0.00000E+00  9.000E+00
#rwgt            1           1   3.1001114103290588E-002           5       64383           0
</event>
<event>
      5   9999  3.19816E-02  6.30786E+01 -1.00000E+00  1.33552E-01
      21    -1     0     0   502   501  0.000000000E+00  0.000000000E+00  7.174572242E+02  7.174572242E+02  0.000000000E+00  0.00000E+00  9.000E+00
      21    -1     0     0   511   502  0.000000000E+00  0.000000000E+00 -3.091774389E+02  3.091774389E+02  0.000000000E+00  0.00000E+00  9.000E+00
      25     1     1     2     0     0 -3.319553958E+02 -2.284419551E+02  2.965137237E+02  5.156796486E+02  1.250000000E+02  0.00000E+00  9.000E+00
      25     1     1     2     0     0  3.645579438E+02  1.744421509E+02  1.345063595E+02  4.439026010E+02  1.250000000E+02  0.00000E+00  9.000E+00
      21     1     1     2   511   501 -3.260254806E+01  5.399980427E+01 -2.274029789E+01  6.705241345E+01  8.920806376E-07  0.00000E+00  9.000E+00
#rwgt            1           1   3.1602876696520954E-002           5       64457           0
</event>
<event>
      5   9999  3.19816E-02  8.00262E+01 -1.00000E+00  1.28343E-01
      21    -1     0     0   502   501  0.000000000E+00  0.000000000E+00  1.506327858E+02  1.506327858E+02  0.000000000E+00  0.00000E+00  9.000E+00
      21    -1     0     0   501   512  0.000000000E+00  0.000000000E+00 -4.121253620E+03  4.121253620E+03  0.000000000E+00  0.00000E+00  9.000E+00
      25     1     1     2     0     0  2.120328935E+02  3.556617009E+02 -2.193230145E+02  4.849544082E+02  1.250000000E+02  0.00000E+00  9.000E+00
      25     1     1     2     0     0 -2.710350260E+02 -3.015974082E+02 -3.414156465E+03  3.440422990E+03  1.250000000E+02  0.00000E+00  9.000E+00
      21     1     1     2   502   512  5.900213258E+01 -5.406429269E+01 -3.371413546E+02  3.465090076E+02  5.394796609E-06  0.00000E+00  9.000E+00
#rwgt            1           1   2.4150320290860887E-002           5       64542           0
</event>
<event>
      5   9999  3.19816E-02  4.21238E+02 -1.00000E+00  1.01014E-01
      21    -1     0     0   511   501  0.000000000E+00  0.000000000E+00  1.475149516E+02  1.475149516E+02  0.000000000E+00  0.00000E+00  9.000E+00
      21    -1     0     0   501   502  0.000000000E+00  0.000000000E+00 -2.024177321E+03  2.024177321E+03  0.000000000E+00  0.00000E+00  9.000E+00
      25     1     1     2     0     0  1.136615936E+02  3.632663160E+01 -7.693480800E+01  1.891627519E+02  1.250000000E+02  0.00000E+00  9.000E+00
      25     1     1     2     0     0  2.759356749E+02 -1.964997006E+02 -1.173616744E+03  1.227906304E+03  1.250000000E+02  0.00000E+00  9.000E+00
      21     1     1     2   511   502 -3.895972685E+02  1.601730690E+02 -6.261108170E+02  7.546232165E+02  1.078959322E-05  0.00000E+00  9.000E+00
#rwgt            1           1   3.0738872991187598E-002           5       64677           0
</event>
<event>
      5   9999  3.19816E-02  7.76194E+01 -1.00000E+00  1.28988E-01
      21    -1     0     0   502   501  0.000000000E+00  0.000000000E+00  6.808993288E+01  6.808993288E+01  0.000000000E+00  0.00000E+00  9.000E+00
       2    -1     0     0   501     0  0.000000000E+00  0.000000000E+00 -3.786265687E+03  3.786265687E+03  0.000000000E+00  0.00000E+00  9.000E+00
      25     1     1     2     0     0 -3.144470640E+01  2.412614411E+01 -2.480824357E+03  2.484287691E+03  1.250000000E+02  0.00000E+00  9.000E+00
      25     1     1     2     0     0 -7.333773818E+00 -9.136450765E+01 -2.713051872E+01  1.573604860E+02  1.250000000E+02  0.00000E+00  9.000E+00
       2     1     1     2   502     0  3.877848022E+01  6.723836354E+01 -1.210220878E+03  1.212707443E+03  0.000000000E+00  0.00000E+00  9.000E+00
#rwgt            1           1   6.9863565262480873E-002           5       64720           0
</event>
<event>
      5   9999  3.19816E-02  5.91543E+01 -1.00000E+00  1.35034E-01
      21    -1     0     0   502   501  0.000000000E+00  0.000000000E+00  4.640238569E+02  4.640238569E+02  0.000000000E+00  0.00000E+00  9.000E+00
      21    -1     0     0   511   502  0.000000000E+00  0.000000000E+00 -7.034832893E+02  7.034832893E+02  0.000000000E+00  0.00000E+00  9.000E+00
      25     1     1     2     0     0 -4.523438335E+02  1.027150523E+02  1.840093132E+02  5.144412046E+02  1.250000000E+02  0.00000E+00  9.000E+00
      25     1     1     2     0     0  4.099073030E+02 -6.150371773E+01 -3.999768657E+02  5.894176765E+02  1.250000000E+02  0.00000E+00  9.000E+00
      21     1     1     2   511   501  4.243653055E+01 -4.121133461E+01 -2.349187996E+01  6.364826510E+01  1.305872339E-06  0.00000E+00  9.000E+00
#rwgt            1           1   2.8605677452999578E-002           5       64827           0
</event>
<event>
      5   9999  3.19816E-02  1.15684E+02 -1.00000E+00  1.21047E-01
      21    -1     0     0   502   501  0.000000000E+00  0.000000000E+00  1.131794429E+02  1.131794429E+02  0.000000000E+00  0.00000E+00  9.000E+00
       2    -1     0     0   501     0  0.000000000E+00  0.000000000E+00 -7.658127152E+02  7.658127152E+02  0.000000000E+00  0.00000E+00  9.000E+00
      25     1     1     2     0     0  5.116634912E+01  1.088788980E+02 -1.258396815E+02  2.143204030E+02  1.250000000E+02  0.00000E+00  9.000E+00
      25     1     1     2     0     0  2.129426225E+01 -1.990575788E+02 -1.735108464E+02  2.929306729E+02  1.250000000E+02  0.00000E+00  9.000E+00
       2     1     1     2   502     0 -7.246061137E+01  9.017868082E+01 -3.532827444E+02  3.717410822E+02  5.394796609E-06  0.00000E+00  9.000E+00
#rwgt            1           1   2.6379200279910545E-002           5       64956           0
</event>
<event>
      5   9999  3.19816E-02  1.14605E+02 -1.00000E+00  1.21222E-01
      21    -1     0     0   511   501  0.000000000E+00  0.000000000E+00  2.864462938E+03  2.864462938E+03  0.000000000E+00  0.00000E+00  9.000E+00
      21    -1     0     0   501   502  0.000000000E+00  0.000000000E+00 -3.768675692E+02  3.768675692E+02  0.000000000E+00  0.00000E+00  9.000E+00
      25     1     1     2     0     0 -8.102237579E+02  2.315936126E+02  3.637297240E+02  9.262950131E+02  1.250000000E+02  0.00000E+00  9.000E+00
      25     1     1     2     0     0  7.261898425E+02 -3.095212386E+02  1.942470309E+03  2.100469229E+03  1.250000000E+02  0.00000E+00  9.000E+00
      21     1     1     2   511   502  8.403391535E+01  7.792762602E+01  1.813953360E+02  2.145662642E+02  0.000000000E+00  0.00000E+00  9.000E+00
#rwgt            1           1   2.8416341967774188E-002           5       65035           0
</event>
<event>
      5   9999  3.19816E-02  2.62399E+01 -1.00000E+00  1.57192E-01
      21    -1     0     0   502   501  0.000000000E+00  0.000000000E+00  1.324594316E+03  1.324594316E+03  0.000000000E+00  0.00000E+00  9.000E+00
      21    -1     0     0   501   512  0.000000000E+00  0.000000000E+00 -4.121810831E+02  4.121810831E+02  0.000000000E+00  0.00000E+00  9.000E+00
      25     1     1     2     0     0 -1.414722046E+01 -4.401881784E+02 -6.911810469E+00  4.578630247E+02  1.250000000E+02  0.00000E+00  9.000E+00
      25     1     1     2     0     0 -1.515039140E+00  4.612410492E+02  1.045763907E+03  1.149779436E+03  1.250000000E+02  0.00000E+00  9.000E+00
      21     1     1     2   502   512  1.566225960E+01 -2.105287076E+01 -1.264388636E+02  1.291329391E+02  3.568322551E-06  0.00000E+00  9.000E+00
#rwgt            1           1   2.6313642010549379E-002           5       65174           0
</event>
<event>
      5   9999  3.19816E-02  6.34880E+01 -1.00000E+00  1.33405E-01
       1    -1     0     0   502     0  0.000000000E+00  0.000000000E+00  1.395752639E+03  1.395752639E+03  0.000000000E+00  0.00000E+00  9.000E+00
      21    -1     0     0   501   502  0.000000000E+00  0.000000000E+00 -1.754665524E+02  1.754665524E+02  0.000000000E+00  0.00000E+00  9.000E+00
      25     1     1     2     0     0  6.561204678E+01  2.641669451E+02  8.861005854E+02  9.353546723E+02  1.250000000E+02  0.00000E+00  9.000E+00
      25     1     1     2     0     0 -9.825415050E+01 -3.186207233E+02  6.839423738E+01  3.625959392E+02  1.250000000E+02  0.00000E+00  9.000E+00
       1     1     1     2   501     0  3.264210372E+01  5.445377819E+01  2.657912642E+02  2.732685804E+02  3.814697266E-06  0.00000E+00  9.000E+00
#rwgt            1           1   2.7591508636896710E-002           5       65335           0
</event>
<event>
      5   9999  3.19816E-02  1.86409E+02 -1.00000E+00  1.12772E-01
      -2    -1     0     0     0   501  0.000000000E+00  0.000000000E+00  1.376894796E+03  1.376894796E+03  0.000000000E+00  0.00000E+00  9.000E+00
      21    -1     0     0   501   502  0.000000000E+00  0.000000000E+00 -1.189271990E+03  1.189271990E+03  0.000000000E+00  0.00000E+00  9.000E+00
      25     1     1     2     0     0  1.841045663E+02 -1.946003880E+02 -6.225414844E+02  6.891637702E+02  1.250000000E+02  0.00000E+00  9.000E+00
      25     1     1     2     0     0 -3.696939567E+02  2.120573230E+02 -4.327947408E+02  6.201437071E+02  1.250000000E+02  0.00000E+00  9.000E+00
      -2     1     1     2     0   502  1.855893904E+02 -1.745693497E+01  1.242959032E+03  1.256859308E+03  1.525878906E-05  0.00000E+00  9.000E+00
#rwgt            1           1   2.5853545968078533E-002           5       65389           0
</event>
<event>
      5   9999  3.19816E-02  1.49455E+01 -1.00000E+00  1.77533E-01
      21    -1     0     0   511   501  0.000000000E+00  0.000000000E+00  5.759123899E+02  5.759123899E+02  0.000000000E+00  0.00000E+00  9.000E+00
      21    -1     0     0   501   502  0.000000000E+00  0.000000000E+00 -2.052870738E+02  2.052870738E+02  0.000000000E+00  0.00000E+00  9.000E+00
      25     1     1     2     0     0 -1.853871001E+02 -1.318588258E+02  3.620461234E+02  4.454857151E+02  1.250000000E+02  0.00000E+00  9.000E+00
      25     1     1     2     0     0  1.758791075E+02  1.433899382E+02 -5.966239530E+01  2.658547277E+02  1.250000000E+02  0.00000E+00  9.000E+00
      21     1     1     2   511   502  9.507992611E+00 -1.153111243E+01  6.824158791E+01  6.985902087E+01  9.536743164E-07  0.00000E+00  9.000E+00
#rwgt            2          11   1.2594046099833986E-003           5       65541           0
</event>
<event>
      5   9999  3.19816E-02  2.44940E+02 -1.00000E+00  1.08535E-01
      21    -1     0     0   502   501  0.000000000E+00  0.000000000E+00  1.906631328E+02  1.906631328E+02  0.000000000E+00  0.00000E+00  9.000E+00
       2    -1     0     0   501     0  0.000000000E+00  0.000000000E+00 -4.340241806E+03  4.340241806E+03  0.000000000E+00  0.00000E+00  9.000E+00
      25     1     1     2     0     0 -1.300142854E+02 -2.572583845E+01 -3.745806215E+01  1.859936547E+02  1.250000000E+02  0.00000E+00  9.000E+00
      25     1     1     2     0     0  3.749339537E+02  2.258888542E+01 -2.356231813E+02  4.606832002E+02  1.250000000E+02  0.00000E+00  9.000E+00
       2     1     1     2   502     0 -2.449196682E+02  3.136953024E+00 -3.876497430E+03  3.884228084E+03  6.103515625E-05  0.00000E+00  9.000E+00
#rwgt            1           1   3.1475815550861611E-002           5       65561           0
</event>
<event>
      5   9999  3.19816E-02  1.28275E+02 -1.00000E+00  1.19152E-01
      21    -1     0     0   502   501  0.000000000E+00  0.000000000E+00  1.154865649E+02  1.154865649E+02  0.000000000E+00  0.00000E+00  9.000E+00
      21    -1     0     0   501   511  0.000000000E+00  0.000000000E+00 -1.213857527E+03  1.213857527E+03  0.000000000E+00  0.00000E+00  9.000E+00
      25     1     1     2     0     0  7.697837567E+01 -1.262339278E+02 -1.353838341E+02  2.362508357E+02  1.250000000E+02  0.00000E+00  9.000E+00
      25     1     1     2     0     0 -1.072162297E+02  2.508935859E+02 -3.251366055E+02  4.424722857E+02  1.250000000E+02  0.00000E+00  9.000E+00
      21     1     1     2   502   511  3.023785403E+01 -1.246596582E+02 -6.378505222E+02  6.506209702E+02  0.000000000E+00  0.00000E+00  9.000E+00
#rwgt            1           1   2.2797639962575191E-002           5       65647           0
</event>
<event>
      5   9999  3.19816E-02  4.69906E+01 -1.00000E+00  1.40631E-01
      21    -1     0     0   502   501  0.000000000E+00  0.000000000E+00  5.250052895E+02  5.250052895E+02  0.000000000E+00  0.00000E+00  9.000E+00
      21    -1     0     0   501   512  0.000000000E+00  0.000000000E+00 -6.519770421E+02  6.519770421E+02  0.000000000E+00  0.00000E+00  9.000E+00
      25     1     1     2     0     0  1.432504652E+02  3.029208238E+02 -3.603273379E+02  5.076834759E+02  1.250000000E+02  0.00000E+00  9.000E+00
      25     1     1     2     0     0 -1.168430816E+02 -2.640522238E+02  3.926805705E+02  5.031887450E+02  1.250000000E+02  0.00000E+00  9.000E+00
      21     1     1     2   502   512 -2.640738355E+01 -3.886860002E+01 -1.593249853E+02  1.661101108E+02  1.907348633E-06  0.00000E+00  9.000E+00
#rwgt            1           1   3.4299500775860074E-002           5       65713           0
</event>
<event>
      5   9999  3.19816E-02  5.57910E+01 -1.00000E+00  1.36413E-01
      21    -1     0     0   502   501  0.000000000E+00  0.000000000E+00  1.234919257E+03  1.234919257E+03  0.000000000E+00  0.00000E+00  9.000E+00
      21    -1     0     0   501   511  0.000000000E+00  0.000000000E+00 -1.003044668E+02  1.003044668E+02  0.000000000E+00  0.00000E+00  9.000E+00
      25     1     1     2     0     0  9.103324469E+01  2.637066456E+02  3.504535382E+02  4.650493834E+02  1.250000000E+02  0.00000E+00  9.000E+00
      25     1     1     2     0     0 -1.234477885E+02 -2.182980780E+02  7.588074847E+02  8.088925801E+02  1.250000000E+02  0.00000E+00  9.000E+00
      21     1     1     2   502   511  3.241454383E+01 -4.540856754E+01  2.535376771E+01  6.128176070E+01  1.168007728E-06  0.00000E+00  9.000E+00
#rwgt            1           1   2.4395619413211663E-002           5       65870           0
</event>
<event>
      5   9999  3.19816E-02  3.72096E+01 -1.00000E+00  1.46815E-01
      21    -1     0     0   502   512  0.000000000E+00  0.000000000E+00  3.363619688E+02  3.363619688E+02  0.000000000E+00  0.00000E+00  9.000E+00
      21    -1     0     0   501   502  0.000000000E+00  0.000000000E+00 -2.425956710E+02  2.425956710E+02  0.000000000E+00  0.00000E+00  9.000E+00
      25     1     1     2     0     0  1.413168871E+02  9.425963955E+00  2.890906986E+01  1.911021866E+02  1.250000000E+02  0.00000E+00  9.000E+00
      25     1     1     2     0     0 -1.340758419E+02  2.707228475E+01 -1.056751609E+02  2.133107583E+02  1.250000000E+02  0.00000E+00  9.000E+00
      21     1     1     2   501   512 -7.241045268E+00 -3.649824871E+01  1.705323888E+02  1.745446949E+02  3.303624740E-06  0.00000E+00  9.000E+00
#rwgt            1           1   2.5601423898450441E-002           5       65965           0
</event>
<event>
      5   9999  3.19816E-02  9.88011E+01 -1.00000E+00  1.24064E-01
      21    -1     0     0   502   501  0.000000000E+00  0.000000000E+00  2.149535878E+02  2.149535878E+02  0.000000000E+00  0.00000E+00  9.000E+00
      21    -1     0     0   511   502  0.000000000E+00  0.000000000E+00 -5.050922510E+02  5.050922510E+02  0.000000000E+00  0.00000E+00  9.000E+00
      25     1     1     2     0     0  1.900651243E+02  1.487303550E+01  6.304800366E+01  2.365290879E+02  1.250000000E+02  0.00000E+00  9.000E+00
      25     1     1     2     0     0 -1.736137502E+02  8.254881461E+01 -2.208301092E+02  3.183504015E+02  1.250000000E+02  0.00000E+00  9.000E+00
      21     1     1     2   511   501 -1.645137409E+01 -9.742185010E+01 -1.323565578E+02  1.651663494E+02  1.907348633E-06  0.00000E+00  9.000E+00
#rwgt            1           1   2.7366934809654745E-002           5       66037           0
</event>
<event>
      5   9999  3.19816E-02  2.08565E+01 -1.00000E+00  1.64880E-01
      21    -1     0     0   502   501  0.000000000E+00  0.000000000E+00  7.966402174E+02  7.966402174E+02  0.000000000E+00  0.00000E+00  9.000E+00
      21    -1     0     0   512   502  0.000000000E+00  0.000000000E+00 -1.728308308E+02  1.728308308E+02  0.000000000E+00  0.00000E+00  9.000E+00
      25     1     1     2     0     0 -1.752302146E+02 -5.319067300E+01  6.840659208E+02  7.191008690E+02  1.250000000E+02  0.00000E+00  9.000E+00
      25     1     1     2     0     0  1.685360246E+02  7.294367425E+01 -5.555931902E+01  2.289912862E+02  1.250000000E+02  0.00000E+00  9.000E+00
      21     1     1     2   512   501  6.694189954E+00 -1.975300125E+01 -4.697215177E+00  2.137889304E+01  3.475518164E-07  0.00000E+00  9.000E+00
#rwgt            1           1   3.0045792428607672E-002           5       66103           0
</event>
<event>
      5   9999  3.19816E-02  4.74399E+01 -1.00000E+00  1.40391E-01
      21    -1     0     0   502   511  0.000000000E+00  0.000000000E+00  7.643726507E+02  7.643726507E+02  0.000000000E+00  0.00000E+00  9.000E+00
      21    -1     0     0   501   502  0.000000000E+00  0.000000000E+00 -2.459924258E+02  2.459924258E+02  0.000000000E+00  0.00000E+00  9.000E+00
      25     1     1     2     0     0  1.705226671E+02 -2.217722594E+02  1.756959715E+02  3.532067234E+02  1.250000000E+02  0.00000E+00  9.000E+00
      25     1     1     2     0     0 -1.581290141E+02  2.675645970E+02  2.497098746E+01  3.359228318E+02  1.250000000E+02  0.00000E+00  9.000E+00
      21     1     1     2   501   511 -1.239365296E+01 -4.579233763E+01  3.177132659E+02  3.212355213E+02  3.814697266E-06  0.00000E+00  9.000E+00
#rwgt            1           1   2.7499402124415217E-002           5       66235           0
</event>
<event>
      5   9999  3.19816E-02  1.38861E+02 -1.00000E+00  1.17737E-01
      21    -1     0     0   512   501  0.000000000E+00  0.000000000E+00  7.571642593E+02  7.571642593E+02  0.000000000E+00  0.00000E+00  9.000E+00
      21    -1     0     0   501   502  0.000000000E+00  0.000000000E+00 -1.499419536E+02  1.499419536E+02  0.000000000E+00  0.00000E+00  9.000E+00
      25     1     1     2     0     0 -6.261557353E+00 -2.502599779E+02  2.083305755E+02  3.488493834E+02  1.250000000E+02  0.00000E+00  9.000E+00
      25     1     1     2     0     0  8.963042852E+01  1.392107481E+02  1.034720378E+02  2.318290506E+02  1.250000000E+02  0.00000E+00  9.000E+00
      21     1     1     2   512   502 -8.336887116E+01  1.110492298E+02  2.954196924E+02  3.264277788E+02  3.814697266E-06  0.00000E+00  9.000E+00
#rwgt            1           1   3.0892498456765720E-002           5       66296           0
</event>
<event>
      5   9999  3.19816E-02  3.19746E+01 -1.00000E+00  1.51142E-01
      21    -1     0     0   502   501  0.000000000E+00  0.000000000E+00  2.409137711E+02  2.409137711E+02  0.000000000E+00  0.00000E+00  9.000E+00
      21    -1     0     0   511   502  0.000000000E+00  0.000000000E+00 -3.665430013E+02  3.665430013E+02  0.000000000E+00  0.00000E+00  9.000E+00
      25     1     1     2     0     0 -6.023683956E+01  1.257479686E+02  1.472539128E+02  2.382220462E+02  1.250000000E+02  0.00000E+00  9.000E+00
      25     1     1     2     0     0  3.075704792E+01 -1.381300259E+02 -1.468202713E+02  2.391800412E+02  1.250000000E+02  0.00000E+00  9.000E+00
      21     1     1     2   511   501  2.947979164E+01  1.238205736E+01 -1.260628718E+02  1.300546850E+02  0.000000000E+00  0.00000E+00  9.000E+00
#rwgt            1           1   2.6487564992810273E-002           5       66336           0
</event>
<event>
      5   9999  3.19816E-02  5.23527E+01 -1.00000E+00  1.37946E-01
      21    -1     0     0   502   501  0.000000000E+00  0.000000000E+00  3.737993123E+02  3.737993123E+02  0.000000000E+00  0.00000E+00  9.000E+00
      21    -1     0     0   501   512  0.000000000E+00  0.000000000E+00 -3.851392367E+02  3.851392367E+02  0.000000000E+00  0.00000E+00  9.000E+00
      25     1     1     2     0     0  5.051736594E+01 -6.226464242E+01  3.163347460E+02  3.494589554E+02  1.250000000E+02  0.00000E+00  9.000E+00
      25     1     1     2     0     0 -1.028642227E+02  6.148079191E+01 -3.084030119E+02  3.536924566E+02  1.250000000E+02  0.00000E+00  9.000E+00
      21     1     1     2   502   512  5.234685676E+01  7.838505080E-01 -1.927165849E+01  5.578713700E+01  7.539457465E-07  0.00000E+00  9.000E+00
#rwgt            1           1   2.8486039888273130E-002           5       66457           0
</event>
<event>
      5   9999  3.19816E-02  2.09025E+02 -1.00000E+00  1.10955E-01
       2    -1     0     0   502     0  0.000000000E+00  0.000000000E+00  2.474979008E+03  2.474979008E+03  0.000000000E+00  0.00000E+00  9.000E+00
      21    -1     0     0   501   502  0.000000000E+00  0.000000000E+00 -5.729358677E+02  5.729358677E+02  0.000000000E+00  0.00000E+00  9.000E+00
      25     1     1     2     0     0  6.220499044E+02  6.576001416E+02  1.725385484E+03  1.952425184E+03  1.250000000E+02  0.00000E+00  9.000E+00
      25     1     1     2     0     0 -6.607294153E+02 -4.521849885E+02 -1.702718343E+01  8.105242434E+02  1.250000000E+02  0.00000E+00  9.000E+00
       2     1     1     2   501     0  3.867951090E+01 -2.054151531E+02  1.936848394E+02  2.849654483E+02  2.697398305E-06  0.00000E+00  9.000E+00
#rwgt            2          18   1.5848559852278845E-003           5       66567           0
</event>
<event>
      5   9999  3.19816E-02  9.11959E+01 -1.00000E+00  1.25655E-01
      21    -1     0     0   502   501  0.000000000E+00  0.000000000E+00  2.939536078E+03  2.939536078E+03  0.000000000E+00  0.00000E+00  9.000E+00
      21    -1     0     0   501   511  0.000000000E+00  0.000000000E+00 -2.429096398E+02  2.429096398E+02  0.000000000E+00  0.00000E+00  9.000E+00
      25     1     1     2     0     0  6.049366923E+02 -3.137027634E+02  1.944664789E+03  2.064389490E+03  1.250000000E+02  0.00000E+00  9.000E+00
      25     1     1     2     0     0 -6.604546469E+02  2.413532657E+02  7.358425540E+02  1.025446734E+03  1.250000000E+02  0.00000E+00  9.000E+00
      21     1     1     2   502   511  5.551795463E+01  7.234949774E+01  1.611909490E+01  9.260949373E+01  1.092571186E-06  0.00000E+00  9.000E+00
#rwgt            1           1   2.0101194592231791E-002           5       66661           0
</event>
<event>
      5   9999  3.19816E-02  2.65394E+01 -1.00000E+00  1.56831E-01
      21    -1     0     0   512   501  0.000000000E+00  0.000000000E+00  6.615227777E+02  6.615227777E+02  0.000000000E+00  0.00000E+00  9.000E+00
      21    -1     0     0   501   502  0.000000000E+00  0.000000000E+00 -1.101990493E+02  1.101990493E+02  0.000000000E+00  0.00000E+00  9.000E+00
      25     1     1     2     0     0  1.628396485E+02  1.222730883E+01  3.133787391E+02  3.748299512E+02  1.250000000E+02  0.00000E+00  9.000E+00
      25     1     1     2     0     0 -1.729848429E+02 -3.675104953E+01  7.107959956E+01  2.279291666E+02  1.250000000E+02  0.00000E+00  9.000E+00
      21     1     1     2   512   502  1.014519442E+01  2.452374070E+01  1.668653897E+02  1.689627092E+02  1.907348633E-06  0.00000E+00  9.000E+00
#rwgt            1           1   2.9094389269310114E-002           5       66833           0
</event>
<event>
      5   9999  3.19816E-02  7.10048E+01 -1.00000E+00  1.30908E-01
      21    -1     0     0   502   501  0.000000000E+00  0.000000000E+00  7.674773832E+02  7.674773832E+02  0.000000000E+00  0.00000E+00  9.000E+00
      21    -1     0     0   511   502  0.000000000E+00  0.000000000E+00 -4.352123760E+02  4.352123760E+02  0.000000000E+00  0.00000E+00  9.000E+00
      25     1     1     2     0     0 -3.622100182E+02 -4.582848626E+01 -2.245315076E+02  4.464703186E+02  1.250000000E+02  0.00000E+00  9.000E+00
      25     1     1     2     0     0  2.914050161E+02  5.115185976E+01  5.945828121E+02  6.757862951E+02  1.250000000E+02  0.00000E+00  9.000E+00
      21     1     1     2   511   501  7.080500210E+01 -5.323373497E+00 -3.778629733E+01  8.043314550E+01  1.581489940E-06  0.00000E+00  9.000E+00
#rwgt            2          11   4.9831716809673274E-003           5       67232           0
</event>
<event>
      5   9999  3.19816E-02  7.06074E+01 -1.00000E+00  1.31031E-01
      21    -1     0     0   512   501  0.000000000E+00  0.000000000E+00  6.699389777E+02  6.699389777E+02  0.000000000E+00  0.00000E+00  9.000E+00
      21    -1     0     0   501   502  0.000000000E+00  0.000000000E+00 -8.252906581E+02  8.252906581E+02  0.000000000E+00  0.00000E+00  9.000E+00
      25     1     1     2     0     0  3.096519850E+02 -3.386634328E+01 -6.797449925E+02  7.580959938E+02  1.250000000E+02  0.00000E+00  9.000E+00
      25     1     1     2     0     0 -3.799560771E+02  4.040360179E+01  5.312197523E+02  6.661970406E+02  1.250000000E+02  0.00000E+00  9.000E+00
      21     1     1     2   512   502  7.030409219E+01 -6.537258513E+00 -6.826440260E+00  7.093660137E+01  1.072883606E-06  0.00000E+00  9.000E+00
#rwgt            1           1   2.9247077426338905E-002           5       67312           0
</event>
<event>
      5   9999  3.19816E-02  3.33158E+02 -1.00000E+00  1.04133E-01
      21    -1     0     0   511   501  0.000000000E+00  0.000000000E+00  7.029783626E+02  7.029783626E+02  0.000000000E+00  0.00000E+00  9.000E+00
      21    -1     0     0   501   502  0.000000000E+00  0.000000000E+00 -6.514940708E+02  6.514940708E+02  0.000000000E+00  0.00000E+00  9.000E+00
      25     1     1     2     0     0 -1.101863380E+02  4.167456812E+02 -2.976137559E+02  5.385322085E+02  1.250000000E+02  0.00000E+00  9.000E+00
      25     1     1     2     0     0 -1.999107623E+02 -2.949505142E+02  7.605220806E+01  3.851870417E+02  1.250000000E+02  0.00000E+00  9.000E+00
      21     1     1     2   511   502  3.100971003E+02 -1.217951670E+02  2.730458397E+02  4.307531833E+02  8.529922400E-06  0.00000E+00  9.000E+00
#rwgt            2          11   3.0502255359852290E-003           5       67460           0
</event>
<event>
      5   9999  3.19816E-02  3.09867E+01 -1.00000E+00  1.52070E-01
      21    -1     0     0   502   512  0.000000000E+00  0.000000000E+00  3.304307512E+02  3.304307512E+02  0.000000000E+00  0.00000E+00  9.000E+00
      21    -1     0     0   501   502  0.000000000E+00  0.000000000E+00 -2.576074006E+02  2.576074006E+02  0.000000000E+00  0.00000E+00  9.000E+00
      25     1     1     2     0     0  1.712454348E+02 -5.964092417E+01  1.449256429E+02  2.636484036E+02  1.250000000E+02  0.00000E+00  9.000E+00
      25     1     1     2     0     0 -1.667506965E+02  9.029989515E+01 -1.278311173E+02  2.606255176E+02  1.250000000E+02  0.00000E+00  9.000E+00
      21     1     1     2   501   512 -4.494738259E+00 -3.065897097E+01  5.572882505E+01  6.376423068E+01  0.000000000E+00  0.00000E+00  9.000E+00
#rwgt            1           1   2.6572358135486977E-002           5       67525           0
</event>
<event>
      5   9999  3.19816E-02  5.48704E+01 -1.00000E+00  1.36811E-01
      21    -1     0     0   502   501  0.000000000E+00  0.000000000E+00  4.498788062E+02  4.498788062E+02  0.000000000E+00  0.00000E+00  9.000E+00
      21    -1     0     0   501   511  0.000000000E+00  0.000000000E+00 -5.566282225E+02  5.566282225E+02  0.000000000E+00  0.00000E+00  9.000E+00
      25     1     1     2     0     0 -1.504268653E+02 -1.180131805E+02  3.569511288E+02  4.237858668E+02  1.250000000E+02  0.00000E+00  9.000E+00
      25     1     1     2     0     0  1.922770234E+02  1.535000877E+02 -4.470717590E+02  5.253864181E+02  1.250000000E+02  0.00000E+00  9.000E+00
      21     1     1     2   502   511 -4.185015808E+01 -3.548690715E+01 -1.662878614E+01  5.733474373E+01  6.743495762E-07  0.00000E+00  9.000E+00
#rwgt            1           1   2.5022279336792071E-002           5       67644           0
</event>
<event>
      5   9999  3.19816E-02  4.26045E+01 -1.00000E+00  1.43161E-01
      21    -1     0     0   502   501  0.000000000E+00  0.000000000E+00  7.771097190E+02  7.771097190E+02  0.000000000E+00  0.00000E+00  9.000E+00
      21    -1     0     0   512   502  0.000000000E+00  0.000000000E+00 -2.071752358E+02  2.071752358E+02  0.000000000E+00  0.00000E+00  9.000E+00
      25     1     1     2     0     0 -3.230214495E+02  8.639794302E+01  3.327832456E+02  4.880339640E+02  1.250000000E+02  0.00000E+00  9.000E+00
      25     1     1     2     0     0  3.517474521E+02 -1.178615456E+02  2.267636909E+02  4.523984808E+02  1.250000000E+02  0.00000E+00  9.000E+00
      21     1     1     2   512   501 -2.872600254E+01  3.146360255E+01  1.038754670E+01  4.385251000E+01  3.371747881E-07  0.00000E+00  9.000E+00
#rwgt            1           1   2.7305407020410680E-002           5       67718           0
</event>
<event>
      5   9999  3.19816E-02  3.02258E+02 -1.00000E+00  1.05486E-01
      21    -1     0     0   502   501  0.000000000E+00  0.000000000E+00  3.200591212E+02  3.200591212E+02  0.000000000E+00  0.00000E+00  9.000E+00
       1    -1     0     0   501     0  0.000000000E+00  0.000000000E+00 -1.109351948E+03  1.109351948E+03  0.000000000E+00  0.00000E+00  9.000E+00
      25     1     1     2     0     0 -1.298371370E+02 -1.674161871E+02 -3.452121219E+02  4.238894560E+02  1.250000000E+02  0.00000E+00  9.000E+00
      25     1     1     2     0     0  2.866426923E+02 -9.098662134E+01  1.348042185E+02  3.524766314E+02  1.250000000E+02  0.00000E+00  9.000E+00
       1     1     1     2   502     0 -1.568055553E+02  2.584028084E+02 -5.788849237E+02  6.530449819E+02  7.629394531E-06  0.00000E+00  9.000E+00
#rwgt            2          12   5.4557732127878276E-004           5       67809           0
</event>
<event>
      5   9999  3.21634E-02  1.83418E+02 -1.00000E+00  1.13034E-01
      21    -1     0     0   502   501  0.000000000E+00  0.000000000E+00  1.297062420E+03  1.297062420E+03  0.000000000E+00  0.00000E+00  9.000E+00
      21    -1     0     0   511   502  0.000000000E+00  0.000000000E+00 -1.881459025E+03  1.881459025E+03  0.000000000E+00  0.00000E+00  9.000E+00
      25     1     1     2     0     0 -1.043277150E+03 -2.432921823E+02  1.546869983E+02  1.089573938E+03  1.250000000E+02  0.00000E+00  9.000E+00
      25     1     1     2     0     0  1.222325189E+03  2.034915690E+02  8.151364837E+01  1.248101423E+03  1.250000000E+02  0.00000E+00  9.000E+00
      21     1     1     2   511   501 -1.790480389E+02  3.980061330E+01 -8.205972519E+02  8.408460851E+02  0.000000000E+00  0.00000E+00  9.000E+00
#rwgt            1           1   7.6290502476901820E-002           5       67828           0
</event>
<event>
      5   9999  3.19816E-02  7.86844E+01 -1.00000E+00  1.28699E-01
      21    -1     0     0   502   501  0.000000000E+00  0.000000000E+00  4.170337941E+02  4.170337941E+02  0.000000000E+00  0.00000E+00  9.000E+00
      21    -1     0     0   501   512  0.000000000E+00  0.000000000E+00 -6.456453548E+02  6.456453548E+02  0.000000000E+00  0.00000E+00  9.000E+00
      25     1     1     2     0     0  3.527133015E+02 -1.837405920E+02  1.715208689E+02  4.507900694E+02  1.250000000E+02  0.00000E+00  9.000E+00
      25     1     1     2     0     0 -2.815183788E+02  2.172444997E+02 -3.683626827E+02  5.270330505E+02  1.250000000E+02  0.00000E+00  9.000E+00
      21     1     1     2   502   512 -7.119492264E+01 -3.350390776E+01 -3.176974692E+01  8.485602904E+01  1.581489940E-06  0.00000E+00  9.000E+00
#rwgt            1           1   2.7859741804498361E-002           5       67942           0
</event>
<event>
      5   9999  3.19816E-02  5.91883E+01 -1.00000E+00  1.35020E-01
      21    -1     0     0   502   501  0.000000000E+00  0.000000000E+00  1.459686133E+03  1.459686133E+03  0.000000000E+00  0.00000E+00  9.000E+00
      21    -1     0     0   511   502  0.000000000E+00  0.000000000E+00 -8.675025126E+02  8.675025126E+02  0.000000000E+00  0.00000E+00  9.000E+00
      25     1     1     2     0     0 -3.495213426E+02 -5.406120155E+02  1.187185323E+03  1.356267124E+03  1.250000000E+02  0.00000E+00  9.000E+00
      25     1     1     2     0     0  3.485289647E+02  5.997919576E+02 -5.706804922E+02  9.069311197E+02  1.250000000E+02  0.00000E+00  9.000E+00
      21     1     1     2   511   501  9.923778346E-01 -5.917994214E+01 -2.432120987E+01  6.399040252E+01  6.743495762E-07  0.00000E+00  9.000E+00
#rwgt            1           1   2.7682469874264894E-002           5       68032           0
</event>
<event>
      5   9999  3.19816E-02  1.35809E+02 -1.00000E+00  1.18130E-01
       3    -1     0     0   502     0  0.000000000E+00  0.000000000E+00  4.596143846E+02  4.596143846E+02  0.000000000E+00  0.00000E+00  9.000E+00
      21    -1     0     0   501   502  0.000000000E+00  0.000000000E+00 -1.570761934E+02  1.570761934E+02  0.000000000E+00  0.00000E+00  9.000E+00
      25     1     1     2     0     0 -5.002117673E-01 -1.115072141E+02  2.144867175E+01  1.688761515E+02  1.250000000E+02  0.00000E+00  9.000E+00
      25     1     1     2     0     0 -1.349184881E+02  1.012164867E+02  1.981623173E+02  2.886885512E+02  1.250000000E+02  0.00000E+00  9.000E+00
       3     1     1     2   501     0  1.354186999E+02  1.029072745E+01  8.292720209E+01  1.591258753E+02  1.907348633E-06  0.00000E+00  9.000E+00
#rwgt            2          19   2.1870323707403441E-005           5       68168           0
</event>
<event>
      5   9999  3.19816E-02  2.58206E+02 -1.00000E+00  1.07753E-01
      21    -1     0     0   502   501  0.000000000E+00  0.000000000E+00  9.162105316E+02  9.162105316E+02  0.000000000E+00  0.00000E+00  9.000E+00
      21    -1     0     0   501   511  0.000000000E+00  0.000000000E+00 -2.143275912E+02  2.143275912E+02  0.000000000E+00  0.00000E+00  9.000E+00
      25     1     1     2     0     0 -1.585709357E+02 -2.751774811E+01  3.757707522E+02  4.274700297E+02  1.250000000E+02  0.00000E+00  9.000E+00
      25     1     1     2     0     0  1.812825661E+02  2.847233614E+02  1.468901776E+02  3.887576181E+02  1.250000000E+02  0.00000E+00  9.000E+00
      21     1     1     2   502   511 -2.271163044E+01 -2.572056133E+02  1.792220106E+02  3.143104751E+02  6.325959759E-06  0.00000E+00  9.000E+00
#rwgt            1           1   3.1390511601817286E-002           5       68202           0
</event>
<event>
      5   9999  3.19816E-02  5.73206E+01 -1.00000E+00  1.35772E-01
      21    -1     0     0   512   501  0.000000000E+00  0.000000000E+00  5.876776891E+02  5.876776891E+02  0.000000000E+00  0.00000E+00  9.000E+00
      21    -1     0     0   501   502  0.000000000E+00  0.000000000E+00 -2.035282452E+02  2.035282452E+02  0.000000000E+00  0.00000E+00  9.000E+00
      25     1     1     2     0     0  2.242692155E+02  5.457978842E+01 -3.899294293E+01  2.653697118E+02  1.250000000E+02  0.00000E+00  9.000E+00
      25     1     1     2     0     0 -1.951882668E+02 -1.039756160E+02  3.297549835E+02  4.162604201E+02  1.250000000E+02  0.00000E+00  9.000E+00
      21     1     1     2   512   502 -2.908094866E+01  4.939582759E+01  9.338740340E+01  1.095758024E+02  1.907348633E-06  0.00000E+00  9.000E+00
#rwgt            2          11   2.3388533295023639E-003           5       68242           0
</event>
<event>
      5   9999  3.19816E-02  6.45042E+01 -1.00000E+00  1.33045E-01
       1    -1     0     0   502     0  0.000000000E+00  0.000000000E+00  1.792422498E+02  1.792422498E+02  0.000000000E+00  0.00000E+00  9.000E+00
      21    -1     0     0   501   502  0.000000000E+00  0.000000000E+00 -3.536954482E+03  3.536954482E+03  0.000000000E+00  0.00000E+00  9.000E+00
      25     1     1     2     0     0 -2.292881176E+01 -1.753261358E+02 -5.313143198E+02  5.737463645E+02  1.250000000E+02  0.00000E+00  9.000E+00
      25     1     1     2     0     0 -2.228618558E+01  2.213303986E+02 -2.972139303E+03  2.983072386E+03  1.250000000E+02  0.00000E+00  9.000E+00
       1     1     1     2   501     0  4.521499733E+01 -4.600426280E+01  1.457413907E+02  1.593779820E+02  1.128402669E-05  0.00000E+00  9.000E+00
#rwgt            1           1   1.4804344757966197E-002           5       68292           0
</event>
<event>
      5   9999  3.19816E-02  2.14297E+01 -1.00000E+00  1.63932E-01
      21    -1     0     0   511   501  0.000000000E+00  0.000000000E+00  1.541002752E+03  1.541002752E+03  0.000000000E+00  0.00000E+00  9.000E+00
      21    -1     0     0   501   502  0.000000000E+00  0.000000000E+00 -9.188856867E+02  9.188856867E+02  0.000000000E+00  0.00000E+00  9.000E+00
      25     1     1     2     0     0 -1.189157298E+02 -3.069417393E+02  1.454141506E+03  1.496163995E+03  1.250000000E+02  0.00000E+00  9.000E+00
      25     1     1     2     0     0  1.216602742E+02  2.856885221E+02 -8.632372570E+02  9.258632275E+02  1.250000000E+02  0.00000E+00  9.000E+00
      21     1     1     2   511   502 -2.744544456E+00  2.125321719E+01  3.121281725E+01  3.786121664E+01  4.768371582E-07  0.00000E+00  9.000E+00
#rwgt            1           1   5.1197680853111854E-002           5       68411           0
</event>
<event>
      5   9999  3.19816E-02  2.75449E+02 -1.00000E+00  1.06811E-01
      21    -1     0     0   502   501  0.000000000E+00  0.000000000E+00  2.187878690E+03  2.187878690E+03  0.000000000E+00  0.00000E+00  9.000E+00
       1    -1     0     0   501     0  0.000000000E+00  0.000000000E+00 -2.769250018E+03  2.769250018E+03  0.000000000E+00  0.00000E+00  9.000E+00
      25     1     1     2     0     0 -6.689958365E+02  2.385055820E+02  8.396111040E+02  1.106802669E+03  1.250000000E+02  0.00000E+00  9.000E+00
      25     1     1     2     0     0  3.935548451E+02 -2.406041267E+02  1.160049530E+03  1.254637666E+03  1.250000000E+02  0.00000E+00  9.000E+00
       1     1     1     2   502     0  2.754409914E+02  2.098544678E+00 -2.581031962E+03  2.595688373E+03  0.000000000E+00  0.00000E+00  9.000E+00
#rwgt            1           1   1.8254229491053226E-002           5       68684           0
</event>
<event>
      5   9999  3.19816E-02  7.53144E+01 -1.00000E+00  1.29631E-01
      21    -1     0     0   502   511  0.000000000E+00  0.000000000E+00  3.380077316E+02  3.380077316E+02  0.000000000E+00  0.00000E+00  9.000E+00
      21    -1     0     0   501   502  0.000000000E+00  0.000000000E+00 -2.170180179E+03  2.170180179E+03  0.000000000E+00  0.00000E+00  9.000E+00
      25     1     1     2     0     0  7.340083077E+01  3.265497166E+02 -1.891198708E+03  1.924650605E+03  1.250000000E+02  0.00000E+00  9.000E+00
      25     1     1     2     0     0 -1.371262583E+01 -3.724798122E+02 -1.016697363E+02  4.060677061E+02  1.250000000E+02  0.00000E+00  9.000E+00
      21     1     1     2   501   511 -5.968820494E+01  4.593009559E+01  1.606959965E+02  1.774695996E+02  0.000000000E+00  0.00000E+00  9.000E+00
#rwgt            1           1   2.6361197587659039E-002           5       68755           0
</event>
<event>
      5   9999  3.19816E-02  2.59010E+01 -1.00000E+00  1.57608E-01
      21    -1     0     0   512   501  0.000000000E+00  0.000000000E+00  9.461547224E+02  9.461547224E+02  0.000000000E+00  0.00000E+00  9.000E+00
      21    -1     0     0   501   502  0.000000000E+00  0.000000000E+00 -8.198457507E+01  8.198457507E+01  0.000000000E+00  0.00000E+00  9.000E+00
      25     1     1     2     0     0 -6.739913421E+01 -2.376848315E+01  1.194290160E+01  1.444825837E+02  1.250000000E+02  0.00000E+00  9.000E+00
      25     1     1     2     0     0  9.151451026E+01  1.431813362E+01  3.785759895E+02  4.092978065E+02  1.250000000E+02  0.00000E+00  9.000E+00
      21     1     1     2   512   502 -2.411537605E+01  9.450349538E+00  4.736512562E+02  4.743589073E+02  5.394796609E-06  0.00000E+00  9.000E+00
#rwgt            1           1   2.4346477813325898E-002           5       68839           0
</event>
<event>
      5   9999  3.19816E-02  1.00620E+02 -1.00000E+00  1.23707E-01
      21    -1     0     0   502   501  0.000000000E+00  0.000000000E+00  1.276318775E+03  1.276318775E+03  0.000000000E+00  0.00000E+00  9.000E+00
       1    -1     0     0   501     0  0.000000000E+00  0.000000000E+00 -9.017810233E+02  9.017810233E+02  0.000000000E+00  0.00000E+00  9.000E+00
      25     1     1     2     0     0 -5.135968711E+02 -4.457450893E+02  5.581899805E+02  8.886346184E+02  1.250000000E+02  0.00000E+00  9.000E+00
      25     1     1     2     0     0  6.131046140E+02  4.606631657E+02  2.716937942E+02  8.231344591E+02  1.250000000E+02  0.00000E+00  9.000E+00
       1     1     1     2   502     0 -9.950774287E+01 -1.491807641E+01 -4.553460233E+02  4.663307204E+02  5.394796609E-06  0.00000E+00  9.000E+00
#rwgt            1           1   3.1704568865597700E-002           5       68980           0
</event>
<event>
      5   9999  3.19816E-02  9.11305E+01 -1.00000E+00  1.25670E-01
      21    -1     0     0   502   511  0.000000000E+00  0.000000000E+00  4.339984992E+02  4.339984992E+02  0.000000000E+00  0.00000E+00  9.000E+00
      21    -1     0     0   501   502  0.000000000E+00  0.000000000E+00 -5.968148360E+02  5.968148360E+02  0.000000000E+00  0.00000E+00  9.000E+00
      25     1     1     2     0     0 -4.260283364E+02  1.388524159E+02 -1.348860129E+02  4.843545946E+02  1.250000000E+02  0.00000E+00  9.000E+00
      25     1     1     2     0     0  3.537403730E+02 -1.943431328E+02 -9.528986929E+01  4.331358493E+02  1.250000000E+02  0.00000E+00  9.000E+00
      21     1     1     2   501   511  7.228796344E+01  5.549071695E+01  6.735954547E+01  1.133228913E+02  1.348699152E-06  0.00000E+00  9.000E+00
#rwgt            1           1   2.9894242811658922E-002           5       69092           0
</event>
<event>
      5   9999  3.19816E-02  4.44691E+01 -1.00000E+00  1.42044E-01
      21    -1     0     0   502   512  0.000000000E+00  0.000000000E+00  1.598828068E+03  1.598828068E+03  0.000000000E+00  0.00000E+00  9.000E+00
      21    -1     0     0   501   502  0.000000000E+00  0.000000000E+00 -4.448670073E+02  4.448670073E+02  0.000000000E+00  0.00000E+00  9.000E+00
      25     1     1     2     0     0  2.540870162E+01  3.662689354E+01  3.896063595E+02  4.115886865E+02  1.250000000E+02  0.00000E+00  9.000E+00
      25     1     1     2     0     0  8.650886972E+00 -6.521788316E+01 -4.219511320E+02  4.449673785E+02  1.250000000E+02  0.00000E+00  9.000E+00
      21     1     1     2   501   512 -3.405958860E+01  2.859098963E+01  1.186305833E+03  1.187139010E+03  0.000000000E+00  0.00000E+00  9.000E+00
#rwgt            1           1   3.0172462126544803E-002           5       69159           0
</event>
<event>
      5   9999  3.19816E-02  3.91504E+00 -1.00000E+00  2.65687E-01
      21    -1     0     0   511   501  0.000000000E+00  0.000000000E+00  1.812588638E+02  1.812588638E+02  0.000000000E+00  0.00000E+00  9.000E+00
      21    -1     0     0   501   502  0.000000000E+00  0.000000000E+00 -2.428979517E+02  2.428979517E+02  0.000000000E+00  0.00000E+00  9.000E+00
      25     1     1     2     0     0 -8.494079336E+01  1.129613612E+02 -7.862198760E+01  2.044055392E+02  1.250000000E+02  0.00000E+00  9.000E+00
      25     1     1     2     0     0  8.361042724E+01 -1.092792876E+02 -1.595608110E+01  1.865804459E+02  1.250000000E+02  0.00000E+00  9.000E+00
      21     1     1     2   511   502  1.330366123E+00 -3.682073565E+00  3.293898074E+01  3.317083044E+01  4.768371582E-07  0.00000E+00  9.000E+00
#rwgt            1           1   2.8334773860699287E-002           5       69289           0
</event>
<event>
      5   9999  3.19816E-02  2.20316E+01 -1.00000E+00  1.62975E-01
      21    -1     0     0   502   501  0.000000000E+00  0.000000000E+00  4.241264370E+02  4.241264370E+02  0.000000000E+00  0.00000E+00  9.000E+00
      21    -1     0     0   501   512  0.000000000E+00  0.000000000E+00 -1.917083485E+02  1.917083485E+02  0.000000000E+00  0.00000E+00  9.000E+00
      25     1     1     2     0     0  6.309248648E+01 -4.618046908E+01  3.609740502E+02  3.899237906E+02  1.250000000E+02  0.00000E+00  9.000E+00
      25     1     1     2     0     0 -8.307370714E+01  5.546185792E+01 -1.261370950E+02  2.037469637E+02  1.250000000E+02  0.00000E+00  9.000E+00
      21     1     1     2   502   512  1.998122065E+01 -9.281388841E+00 -2.418866685E+00  2.216403108E+01  3.769728732E-07  0.00000E+00  9.000E+00
#rwgt            1           1   2.5139854650312526E-002           5       69728           0
</event>
<event>
      5   9999  3.19816E-02  5.22922E+02 -1.00000E+00  9.83021E-02
      21    -1     0     0   502   501  0.000000000E+00  0.000000000E+00  3.005838209E+03  3.005838209E+03  0.000000000E+00  0.00000E+00  9.000E+00
       3    -1     0     0   501     0  0.000000000E+00  0.000000000E+00 -3.564999436E+02  3.564999436E+02  0.000000000E+00  0.00000E+00  9.000E+00
      25     1     1     2     0     0 -5.728326128E+02 -6.913941262E+02  1.741950089E+03  1.963715395E+03  1.250000000E+02  0.00000E+00  9.000E+00
      25     1     1     2     0     0  3.747555405E+02  2.074382541E+02  1.355771032E+02  4.663458966E+02  1.250000000E+02  0.00000E+00  9.000E+00
       3     1     1     2   502     0  1.980770723E+02  4.839558720E+02  7.718110730E+02  9.322768607E+02  1.525878906E-05  0.00000E+00  9.000E+00
#rwgt            2          14   9.7670858923016616E-006           5       69931           0
</event>
<event>
      5   9999  3.19816E-02  1.18826E+01 -1.00000E+00  1.87478E-01
       1    -1     0     0   502     0  0.000000000E+00  0.000000000E+00  6.657741424E+02  6.657741424E+02  0.000000000E+00  0.00000E+00  9.000E+00
      21    -1     0     0   501   502  0.000000000E+00  0.000000000E+00 -2.369255030E+02  2.369255030E+02  0.000000000E+00  0.00000E+00  9.000E+00
      25     1     1     2     0     0 -8.292948623E+01  1.566667377E+02 -6.719852746E+01  2.270735750E+02  1.250000000E+02  0.00000E+00  9.000E+00
      25     1     1     2     0     0  8.086480069E+01 -1.449648634E+02  3.061071050E+01  2.100379566E+02  1.250000000E+02  0.00000E+00  9.000E+00
       1     1     1     2   501     0  2.064685542E+00 -1.170187427E+01  4.654364563E+02  4.655881137E+02  9.344061824E-06  0.00000E+00  9.000E+00
#rwgt            1           1   2.6000432101631069E-002           5       69965           0
</event>
<event>
      5   9999  3.19816E-02  4.33510E+02 -1.00000E+00  1.00645E-01
       2    -1     0     0   502     0  0.000000000E+00  0.000000000E+00  1.658055855E+03  1.658055855E+03  0.000000000E+00  0.00000E+00  9.000E+00
      21    -1     0     0   501   502  0.000000000E+00  0.000000000E+00 -3.023826788E+02  3.023826788E+02  0.000000000E+00  0.00000E+00  9.000E+00
      25     1     1     2     0     0 -2.787314679E+02  4.748092256E+02  6.224962675E+02  8.403937380E+02  1.250000000E+02  0.00000E+00  9.000E+00
      25     1     1     2     0     0  3.741132454E+02 -5.192276464E+01  4.575681459E+02  6.063417370E+02  1.250000000E+02  0.00000E+00  9.000E+00
       2     1     1     2   501     0 -9.538177748E+01 -4.228864609E+02  2.756087626E+02  5.137030585E+02  0.000000000E+00  0.00000E+00  9.000E+00
#rwgt            2          18   7.7537216956622410E-004           5       70252           0
</event>
<event>
      5   9999  3.19816E-02  6.65793E+01 -1.00000E+00  1.32332E-01
      21    -1     0     0   502   511  0.000000000E+00  0.000000000E+00  1.660496050E+01  1.660496050E+01  0.000000000E+00  0.00000E+00  9.000E+00
      21    -1     0     0   501   502  0.000000000E+00  0.000000000E+00 -2.726234365E+03  2.726234365E+03  0.000000000E+00  0.00000E+00  9.000E+00
      25     1     1     2     0     0  7.703782969E+01  1.149613202E+02 -9.942922300E+02  1.011628870E+03  1.250000000E+02  0.00000E+00  9.000E+00
      25     1     1     2     0     0 -4.693757541E+01 -5.557464395E+01 -1.466704104E+03  1.473817358E+03  1.250000000E+02  0.00000E+00  9.000E+00
      21     1     1     2   501   511 -3.010025428E+01 -5.938667629E+01 -2.486330703E+02  2.573930968E+02  5.394796609E-06  0.00000E+00  9.000E+00
#rwgt            1           1   5.7967655812928044E-002           5       70271           0
</event>
<event>
      5   9999  3.19816E-02  3.05155E+01 -1.00000E+00  1.52528E-01
      21    -1     0     0   512   501  0.000000000E+00  0.000000000E+00  8.428263684E+02  8.428263684E+02  0.000000000E+00  0.00000E+00  9.000E+00
      21    -1     0     0   501   502  0.000000000E+00  0.000000000E+00 -2.906070770E+02  2.906070770E+02  0.000000000E+00  0.00000E+00  9.000E+00
      25     1     1     2     0     0  1.590322254E+02 -1.614950421E+01  1.447754908E+02  2.492729387E+02  1.250000000E+02  0.00000E+00  9.000E+00
      25     1     1     2     0     0 -1.307046189E+02  4.803055858E+00 -2.035922559E+02  2.723629442E+02  1.250000000E+02  0.00000E+00  9.000E+00
      21     1     1     2   512   502 -2.832760655E+01  1.134644835E+01  6.110360564E+02  6.117975624E+02  7.629394531E-06  0.00000E+00  9.000E+00
#rwgt            1           1   2.8858123704349654E-002           5       70435           0
</event>
<event>
      5   9999  3.19816E-02  9.03868E+01 -1.00000E+00  1.25835E-01
      21    -1     0     0   511   501  0.000000000E+00  0.000000000E+00  9.817292380E+02  9.817292380E+02  0.000000000E+00  0.00000E+00  9.000E+00
      21    -1     0     0   501   502  0.000000000E+00  0.000000000E+00 -4.947941824E+02  4.947941824E+02  0.000000000E+00  0.00000E+00  9.000E+00
      25     1     1     2     0     0  4.630119356E+02 -2.912422044E+02  1.334178373E+02  5.767385833E+02  1.250000000E+02  0.00000E+00  9.000E+00
      25     1     1     2     0     0 -4.668008056E+02  2.009348392E+02 -1.176143400E+01  5.234893820E+02  1.250000000E+02  0.00000E+00  9.000E+00
      21     1     1     2   511   502  3.788870093E+00  9.030736526E+01  3.652786522E+02  3.762954551E+02  5.394796609E-06  0.00000E+00  9.000E+00
#rwgt            1           1   3.0166578535324704E-002           5       70559           0
</event>
<event>
      5   9999  3.19816E-02  1.77495E+01 -1.00000E+00  1.70763E-01
      21    -1     0     0   512   501  0.000000000E+00  0.000000000E+00  6.266570041E+02  6.266570041E+02  0.000000000E+00  0.00000E+00  9.000E+00
      21    -1     0     0   501   502  0.000000000E+00  0.000000000E+00 -1.402884138E+02  1.402884138E+02  0.000000000E+00  0.00000E+00  9.000E+00
      25     1     1     2     0     0  3.525319210E+01 -2.028417611E+02  5.131659073E+01  2.462640048E+02  1.250000000E+02  0.00000E+00  9.000E+00
      25     1     1     2     0     0 -1.869853521E+01  2.092438458E+02  3.120226531E+02  3.963783019E+02  1.250000000E+02  0.00000E+00  9.000E+00
      21     1     1     2   512   502 -1.655465689E+01 -6.402084728E+00  1.230293465E+02  1.243031112E+02  0.000000000E+00  0.00000E+00  9.000E+00
#rwgt            1           1   2.8402588468616711E-002           5       70629           0
</event>
<event>
      5   9999  3.19816E-02  6.01967E+01 -1.00000E+00  1.34627E-01
      21    -1     0     0   502   501  0.000000000E+00  0.000000000E+00  7.324615684E+02  7.324615684E+02  0.000000000E+00  0.00000E+00  9.000E+00
      21    -1     0     0   511   502  0.000000000E+00  0.000000000E+00 -1.541284019E+03  1.541284019E+03  0.000000000E+00  0.00000E+00  9.000E+00
      25     1     1     2     0     0 -1.307882376E+02  9.680768589E+02 -9.348307022E+01  9.892635909E+02  1.250000000E+02  0.00000E+00  9.000E+00
      25     1     1     2     0     0  7.082639460E+01 -9.733896357E+02 -5.947960091E+02  1.149743908E+03  1.250000000E+02  0.00000E+00  9.000E+00
      21     1     1     2   511   501  5.996184297E+01  5.312776831E+00 -1.205433714E+02  1.347380889E+02  0.000000000E+00  0.00000E+00  9.000E+00
#rwgt            1           1   3.2630294773249351E-002           5       70733           0
</event>
<event>
      5   9999  3.19816E-02  3.27719E+01 -1.00000E+00  1.50421E-01
      21    -1     0     0   502   501  0.000000000E+00  0.000000000E+00  9.037407182E+01  9.037407182E+01  0.000000000E+00  0.00000E+00  9.000E+00
      21    -1     0     0   512   502  0.000000000E+00  0.000000000E+00 -1.583343052E+03  1.583343052E+03  0.000000000E+00  0.00000E+00  9.000E+00
      25     1     1     2     0     0 -2.092818129E+02  2.252606721E+02 -3.987658513E+02  5.188260323E+02  1.250000000E+02  0.00000E+00  9.000E+00
      25     1     1     2     0     0  2.052290775E+02 -1.927402961E+02 -7.744970338E+02  8.335097188E+02  1.250000000E+02  0.00000E+00  9.000E+00
      21     1     1     2   512   501  4.052735364E+00 -3.252037605E+01 -3.197060948E+02  3.213813725E+02  3.814697266E-06  0.00000E+00  9.000E+00
#rwgt            1           1   2.4086177080740824E-002           5       70851           0
</event>
<event>
      5   9999  3.19816E-02  1.73467E+01 -1.00000E+00  1.71636E-01
      21    -1     0     0   511   501  0.000000000E+00  0.000000000E+00  1.830726404E+03  1.830726404E+03  0.000000000E+00  0.00000E+00  9.000E+00
      21    -1     0     0   501   502  0.000000000E+00  0.000000000E+00 -2.549774806E+02  2.549774806E+02  0.000000000E+00  0.00000E+00  9.000E+00
      25     1     1     2     0     0 -5.448064168E+02 -6.310087730E+01  2.323575002E+02  6.086138023E+02  1.250000000E+02  0.00000E+00  9.000E+00
      25     1     1     2     0     0  5.596877890E+02  7.201459797E+01  1.192298238E+03  1.325004382E+03  1.250000000E+02  0.00000E+00  9.000E+00
      21     1     1     2   511   502 -1.488137227E+01 -8.913720669E+00  1.510931850E+02  1.520857002E+02  1.907348633E-06  0.00000E+00  9.000E+00
#rwgt            1           1   2.8053499820759085E-002           5       70960           0
</event>
<event>
      5   9999  3.19816E-02  3.52500E+01 -1.00000E+00  1.48329E-01
      21    -1     0     0   512   501  0.000000000E+00  0.000000000E+00  2.107407159E+02  2.107407159E+02  0.000000000E+00  0.00000E+00  9.000E+00
      21    -1     0     0   501   502  0.000000000E+00  0.000000000E+00 -8.745374882E+02  8.745374882E+02  0.000000000E+00  0.00000E+00  9.000E+00
      25     1     1     2     0     0 -1.354340453E+02  2.084138563E+02 -3.292062122E+02  4.310225589E+02  1.250000000E+02  0.00000E+00  9.000E+00
      25     1     1     2     0     0  1.253459073E+02 -2.421894353E+02 -4.459443233E+02  5.374557271E+02  1.250000000E+02  0.00000E+00  9.000E+00
      21     1     1     2   512   502  1.008813799E+01  3.377557907E+01  1.113537633E+02  1.167999181E+02  3.568322551E-06  0.00000E+00  9.000E+00
#rwgt            1           1   3.2478832283230723E-002           5       71211           0
</event>
<event>
      5   9999  3.19816E-02  5.18089E+01 -1.00000E+00  1.38201E-01
      21    -1     0     0   502   511  0.000000000E+00  0.000000000E+00  2.662995340E+02  2.662995340E+02  0.000000000E+00  0.00000E+00  9.000E+00
      21    -1     0     0   501   502  0.000000000E+00  0.000000000E+00 -5.360820608E+02  5.360820608E+02  0.000000000E+00  0.00000E+00  9.000E+00
      25     1     1     2     0     0  5.897668949E+01  2.823997158E+02 -1.762641130E+02  3.604467879E+02  1.250000000E+02  0.00000E+00  9.000E+00
      25     1     1     2     0     0 -9.454971453E+01 -3.200655921E+02 -1.291455698E+02  3.790583200E+02  1.250000000E+02  0.00000E+00  9.000E+00
      21     1     1     2   501   511  3.557302503E+01  3.766587631E+01  3.562715603E+01  6.287648682E+01  0.000000000E+00  0.00000E+00  9.000E+00
#rwgt            1           1   2.8179875632238387E-002           5       71310           0
</event>
<event>
      5   9999  3.19816E-02  3.10514E+01 -1.00000E+00  1.52008E-01
      21    -1     0     0   502   512  0.000000000E+00  0.000000000E+00  3.977179965E+02  3.977179965E+02  0.000000000E+00  0.00000E+00  9.000E+00
      21    -1     0     0   501   502  0.000000000E+00  0.000000000E+00 -3.869004469E+02  3.869004469E+02  0.000000000E+00  0.00000E+00  9.000E+00
      25     1     1     2     0     0 -3.357854831E+02  1.463524255E+02 -3.326076684E+00  3.870490743E+02  1.250000000E+02  0.00000E+00  9.000E+00
      25     1     1     2     0     0  3.095645757E+02 -1.297195648E+02 -9.892708956E+00  3.583019087E+02  1.250000000E+02  0.00000E+00  9.000E+00
      21     1     1     2   501   512  2.622090740E+01 -1.663286064E+01  2.403633520E+01  3.926746041E+01  3.371747881E-07  0.00000E+00  9.000E+00
#rwgt            1           1   2.7099457437383245E-002           5       71411           0
</event>
<event>
      5   9999  3.19816E-02  1.08875E+01 -1.00000E+00  1.91583E-01
      21    -1     0     0   511   501  0.000000000E+00  0.000000000E+00  8.018691636E+01  8.018691636E+01  0.000000000E+00  0.00000E+00  9.000E+00
      21    -1     0     0   501   502  0.000000000E+00  0.000000000E+00 -6.650984818E+02  6.650984818E+02  0.000000000E+00  0.00000E+00  9.000E+00
      25     1     1     2     0     0  1.258444307E+02 -1.028810012E+02 -4.166097169E+02  4.643382144E+02  1.250000000E+02  0.00000E+00  9.000E+00
      25     1     1     2     0     0 -1.151204465E+02  1.010009308E+02 -1.782640056E+02  2.661897085E+02  1.250000000E+02  0.00000E+00  9.000E+00
      21     1     1     2   511   502 -1.072398423E+01  1.880070337E+00  9.962157068E+00  1.475747524E+01  2.920019320E-07  0.00000E+00  9.000E+00
#rwgt            1           1   3.1851932399250125E-002           5       71503           0
</event>
<event>
      5   9999  3.19816E-02  5.89910E+01 -1.00000E+00  1.35098E-01
      21    -1     0     0   502   501  0.000000000E+00  0.000000000E+00  4.846683429E+02  4.846683429E+02  0.000000000E+00  0.00000E+00  9.000E+00
      21    -1     0     0   501   512  0.000000000E+00  0.000000000E+00 -4.982920582E+02  4.982920582E+02  0.000000000E+00  0.00000E+00  9.000E+00
      25     1     1     2     0     0 -2.084133936E+01 -3.969268511E+02 -2.739152378E+01  4.175650633E+02  1.250000000E+02  0.00000E+00  9.000E+00
      25     1     1     2     0     0  5.984982971E+01  4.411793246E+02  8.783920785E+01  4.707036488E+02  1.250000000E+02  0.00000E+00  9.000E+00
      21     1     1     2   502   512 -3.900849035E+01 -4.425247352E+01 -7.407139941E+01  9.469168887E+01  0.000000000E+00  0.00000E+00  9.000E+00
#rwgt            1           1   2.5440957982657789E-002           5       71689           0
</event>
<event>
      5   9999  3.19816E-02  2.86602E+01 -1.00000E+00  1.54431E-01
      21    -1     0     0   502   501  0.000000000E+00  0.000000000E+00  1.319017732E+03  1.319017732E+03  0.000000000E+00  0.00000E+00  9.000E+00
      21    -1     0     0   511   502  0.000000000E+00  0.000000000E+00 -2.647552900E+02  2.647552900E+02  0.000000000E+00  0.00000E+00  9.000E+00
      25     1     1     2     0     0 -3.170493109E+02 -2.610340600E+01  7.136493054E+02  7.912787021E+02  1.250000000E+02  0.00000E+00  9.000E+00
      25     1     1     2     0     0  3.345093369E+02  3.375573975E+00  5.089462376E+02  6.217388228E+02  1.250000000E+02  0.00000E+00  9.000E+00
      21     1     1     2   511   501 -1.746002597E+01  2.272783203E+01 -1.683331011E+02  1.707554971E+02  4.672030912E-06  0.00000E+00  9.000E+00
#rwgt            1           1   3.0174471468607845E-002           5       71772           0
</event>
<event>
      5   9999  3.19816E-02  2.03575E+02 -1.00000E+00  1.11369E-01
       2    -1     0     0   502     0  0.000000000E+00  0.000000000E+00  2.191339369E+03  2.191339369E+03  0.000000000E+00  0.00000E+00  9.000E+00
      21    -1     0     0   501   502  0.000000000E+00  0.000000000E+00 -1.420146547E+02  1.420146547E+02  0.000000000E+00  0.00000E+00  9.000E+00
      25     1     1     2     0     0  1.076408716E+02  3.330544817E+02  1.588269854E+03  1.631176868E+03  1.250000000E+02  0.00000E+00  9.000E+00
      25     1     1     2     0     0  8.769068876E+01 -2.757096182E+02  3.472589118E+02  4.689554374E+02  1.250000000E+02  0.00000E+00  9.000E+00
       2     1     1     2   501     0 -1.953315604E+02 -5.734486353E+01  1.137959476E+02  2.332217176E+02  4.862803949E-06  0.00000E+00  9.000E+00
#rwgt            1           1   3.0578259991563078E-002           5       71865           0
</event>
<event>
      5   9999  3.19816E-02  1.29283E+01 -1.00000E+00  1.83689E-01
      21    -1     0     0   502   511  0.000000000E+00  0.000000000E+00  2.383472297E+02  2.383472297E+02  0.000000000E+00  0.00000E+00  9.000E+00
      21    -1     0     0   501   502  0.000000000E+00  0.000000000E+00 -2.226036404E+02  2.226036404E+02  0.000000000E+00  0.00000E+00  9.000E+00
      25     1     1     2     0     0 -1.133945931E+02  4.893601165E+00 -7.381176433E+01  1.842700671E+02  1.250000000E+02  0.00000E+00  9.000E+00
      25     1     1     2     0     0  1.206333472E+02  5.818125334E+00 -1.207375175E+01  1.742326907E+02  1.250000000E+02  0.00000E+00  9.000E+00
      21     1     1     2   501   511 -7.238754136E+00 -1.071172650E+01  1.016291054E+02  1.024481122E+02  1.348699152E-06  0.00000E+00  9.000E+00
#rwgt            1           1   2.8290994414532922E-002           5       71932           0
</event>
<event>
      5   9999  3.19816E-02  3.76421E+01 -1.00000E+00  1.46496E-01
      21    -1     0     0   502   501  0.000000000E+00  0.000000000E+00  5.643149790E+02  5.643149790E+02  0.000000000E+00  0.00000E+00  9.000E+00
      21    -1     0     0   512   502  0.000000000E+00  0.000000000E+00 -4.779391525E+02  4.779391525E+02  0.000000000E+00  0.00000E+00  9.000E+00
      25     1     1     2     0     0  3.547719689E+02  3.817664464E+01 -2.659559080E+02  4.622533409E+02  1.250000000E+02  0.00000E+00  9.000E+00
      25     1     1     2     0     0 -3.579186176E+02 -7.568701161E+01  3.728753619E+02  5.371175812E+02  1.250000000E+02  0.00000E+00  9.000E+00
      21     1     1     2   512   501  3.146648664E+00  3.751036697E+01 -2.054362734E+01  4.288320944E+01  8.920806376E-07  0.00000E+00  9.000E+00
#rwgt            1           1   3.0308613411134968E-002           5       72134           0
</event>
<event>
      5   9999  3.19816E-02  7.40787E+02 -1.00000E+00  9.42324E-02
      21    -1     0     0   502   501  0.000000000E+00  0.000000000E+00  1.167491968E+03  1.167491968E+03  0.000000000E+00  0.00000E+00  9.000E+00
      21    -1     0     0   511   502  0.000000000E+00  0.000000000E+00 -8.824063488E+02  8.824063488E+02  0.000000000E+00  0.00000E+00  9.000E+00
      25     1     1     2     0     0  4.703662865E+01 -5.304517724E+02  2.109111223E+02  5.862593528E+02  1.250000000E+02  0.00000E+00  9.000E+00
      25     1     1     2     0     0 -6.099686374E+02  4.892032617E+01  2.948753989E+02  6.906746251E+02  1.250000000E+02  0.00000E+00  9.000E+00
      21     1     1     2   511   501  5.629320088E+02  4.815314462E+02 -2.207009024E+02  7.729643384E+02  6.031565972E-06  0.00000E+00  9.000E+00
#rwgt            2          11   1.4452226138100745E-003           5       72383           0
</event>
<event>
      5   9999  3.19816E-02  1.26728E+02 -1.00000E+00  1.19371E-01
      21    -1     0     0   512   501  0.000000000E+00  0.000000000E+00  6.209555401E+02  6.209555401E+02  0.000000000E+00  0.00000E+00  9.000E+00
      21    -1     0     0   501   502  0.000000000E+00  0.000000000E+00 -6.608669822E+02  6.608669822E+02  0.000000000E+00  0.00000E+00  9.000E+00
      25     1     1     2     0     0 -2.174638684E+02 -3.957539573E+01 -5.846016416E+02  6.373702420E+02  1.250000000E+02  0.00000E+00  9.000E+00
      25     1     1     2     0     0  1.194644357E+02  1.199254713E+02  2.732233289E+02  3.448620847E+02  1.250000000E+02  0.00000E+00  9.000E+00
      21     1     1     2   512   502  9.799943273E+01 -8.035007555E+01  2.714668706E+02  2.995901956E+02  0.000000000E+00  0.00000E+00  9.000E+00
#rwgt            1           1   2.5411374700061971E-002           5       72463           0
</event>
<event>
      5   9999  3.19816E-02  9.11488E+01 -1.00000E+00  1.25666E-01
      21    -1     0     0   511   501  0.000000000E+00  0.000000000E+00  2.841399758E+02  2.841399758E+02  0.000000000E+00  0.00000E+00  9.000E+00
      21    -1     0     0   501   502  0.000000000E+00  0.000000000E+00 -3.022334643E+02  3.022334643E+02  0.000000000E+00  0.00000E+00  9.000E+00
      25     1     1     2     0     0 -1.857148659E+02 -1.295180761E+02  8.420900381E+01  2.719946687E+02  1.250000000E+02  0.00000E+00  9.000E+00
      25     1     1     2     0     0  9.956776962E+01  9.973923971E+01 -1.174302493E+02  2.219831528E+02  1.250000000E+02  0.00000E+00  9.000E+00
      21     1     1     2   511   502  8.614709633E+01  2.977883636E+01  1.512775695E+01  9.239561857E+01  2.132480600E-06  0.00000E+00  9.000E+00
#rwgt            1           1   2.5914340669426862E-002           5       72578           0
</event>
<event>
      5   9999  3.19816E-02  2.41850E+02 -1.00000E+00  1.08724E-01
      21    -1     0     0   512   501  0.000000000E+00  0.000000000E+00  1.001540740E+03  1.001540740E+03  0.000000000E+00  0.00000E+00  9.000E+00
      21    -1     0     0   501   502  0.000000000E+00  0.000000000E+00 -1.445277766E+03  1.445277766E+03  0.000000000E+00  0.00000E+00  9.000E+00
      25     1     1     2     0     0 -9.541732169E+02 -1.206924227E+02 -1.062602037E+02  9.756687038E+02  1.250000000E+02  0.00000E+00  9.000E+00
      25     1     1     2     0     0  1.151528311E+03  2.604872155E+02 -3.147373878E+02  1.228232740E+03  1.250000000E+02  0.00000E+00  9.000E+00
      21     1     1     2   512   502 -1.973550937E+02 -1.397947929E+02 -2.273943413E+01  2.429170620E+02  4.598451024E-06  0.00000E+00  9.000E+00
#rwgt            2          11   9.4226348335806082E-003           5       72622           0
</event>
<event>
      5   9999  3.19816E-02  1.56827E+02 -1.00000E+00  1.15633E-01
      21    -1     0     0   502   511  0.000000000E+00  0.000000000E+00  1.891737696E+02  1.891737696E+02  0.000000000E+00  0.00000E+00  9.000E+00
      21    -1     0     0   501   502  0.000000000E+00  0.000000000E+00 -6.468618874E+02  6.468618874E+02  0.000000000E+00  0.00000E+00  9.000E+00
      25     1     1     2     0     0 -1.094508019E+02  5.416656271E+01 -1.874012111E+02  2.562376016E+02  1.250000000E+02  0.00000E+00  9.000E+00
      25     1     1     2     0     0  2.398752274E+02  3.292143745E+01 -3.152123843E+02  4.166626849E+02  1.250000000E+02  0.00000E+00  9.000E+00
      21     1     1     2   501   511 -1.304244255E+02 -8.708800016E+01  4.492547763E+01  1.631353704E+02  2.780414531E-06  0.00000E+00  9.000E+00
#rwgt            1           1   2.5760146563306913E-002           5       72687           0
</event>
<event>
      5   9999  3.19816E-02  6.15860E+01 -1.00000E+00  1.34101E-01
      21    -1     0     0   502   501  0.000000000E+00  0.000000000E+00  9.155832804E+02  9.155832804E+02  0.000000000E+00  0.00000E+00  9.000E+00
      21    -1     0     0   501   512  0.000000000E+00  0.000000000E+00 -3.261579218E+02  3.261579218E+02  0.000000000E+00  0.00000E+00  9.000E+00
      25     1     1     2     0     0  9.166531095E+01  1.387424786E+02  8.091745630E+02  8.354881675E+02  1.250000000E+02  0.00000E+00  9.000E+00
      25     1     1     2     0     0 -4.471293806E+01 -9.888890016E+01  1.246786425E+01  1.660081596E+02  1.250000000E+02  0.00000E+00  9.000E+00
      21     1     1     2   502   512 -4.695237289E+01 -3.985357847E+01 -2.322170686E+02  2.402448751E+02  0.000000000E+00  0.00000E+00  9.000E+00
#rwgt            1           1   2.6365655000152623E-002           5       72802           0
</event>
<event>
      5   9999  3.19816E-02  4.68273E+01 -1.00000E+00  1.40720E-01
      21    -1     0     0   502   511  0.000000000E+00  0.000000000E+00  9.000672016E+01  9.000672016E+01  0.000000000E+00  0.00000E+00  9.000E+00
      21    -1     0     0   501   502  0.000000000E+00  0.000000000E+00 -2.346222729E+03  2.346222729E+03  0.000000000E+00  0.00000E+00  9.000E+00
      25     1     1     2     0     0  8.819979346E+01  2.788786872E+02 -8.565445696E+02  9.136991439E+02  1.250000000E+02  0.00000E+00  9.000E+00
      25     1     1     2     0     0 -4.140774967E+01 -2.770613543E+02 -1.432734663E+03  1.465206883E+03  1.250000000E+02  0.00000E+00  9.000E+00
      21     1     1     2   501   511 -4.679204379E+01 -1.817332871E+00  3.306322324E+01  5.732342272E+01  9.536743164E-07  0.00000E+00  9.000E+00
#rwgt            1           1   6.7407573102406845E-002           5       72890           0
</event>
<event>
      5   9999  3.19816E-02  2.61404E+01 -1.00000E+00  1.57313E-01
      21    -1     0     0   502   512  0.000000000E+00  0.000000000E+00  1.552195381E+03  1.552195381E+03  0.000000000E+00  0.00000E+00  9.000E+00
      21    -1     0     0   501   502  0.000000000E+00  0.000000000E+00 -2.404312403E+02  2.404312403E+02  0.000000000E+00  0.00000E+00  9.000E+00
      25     1     1     2     0     0 -2.161197451E+02  3.225641803E+02  5.521776571E+02  6.864987688E+02  1.250000000E+02  0.00000E+00  9.000E+00
      25     1     1     2     0     0  2.404863107E+02 -3.320295621E+02  9.242842623E+01  4.384578768E+02  1.250000000E+02  0.00000E+00  9.000E+00
      21     1     1     2   501   512 -2.436656567E+01  9.465381821E+00  6.671580572E+02  6.676699756E+02  0.000000000E+00  0.00000E+00  9.000E+00
#rwgt            1           1   2.8791148470671039E-002           5       72966           0
</event>
<event>
      5   9999  3.19816E-02  3.52788E+01 -1.00000E+00  1.48306E-01
      21    -1     0     0   511   501  0.000000000E+00  0.000000000E+00  4.205467581E+02  4.205467581E+02  0.000000000E+00  0.00000E+00  9.000E+00
      21    -1     0     0   501   502  0.000000000E+00  0.000000000E+00 -9.422344226E+02  9.422344226E+02  0.000000000E+00  0.00000E+00  9.000E+00
      25     1     1     2     0     0  3.270647223E+02 -4.834201760E+02 -2.720253694E+02  6.559643289E+02  1.250000000E+02  0.00000E+00  9.000E+00
      25     1     1     2     0     0 -3.258139405E+02  5.186767652E+02 -2.440574234E+02  6.710956239E+02  1.250000000E+02  0.00000E+00  9.000E+00
      21     1     1     2   511   502 -1.250781823E+00 -3.525658916E+01 -5.604871766E+00  3.572122789E+01  1.576990671E-07  0.00000E+00  9.000E+00
#rwgt            2          11   1.4790223606995966E-002           5       73145           0
</event>
<event>
      5   9999  3.19816E-02  8.66827E+01 -1.00000E+00  1.26685E-01
      21    -1     0     0   502   501  0.000000000E+00  0.000000000E+00  1.509446084E+03  1.509446084E+03  0.000000000E+00  0.00000E+00  9.000E+00
      21    -1     0     0   512   502  0.000000000E+00  0.000000000E+00 -5.046311326E+02  5.046311326E+02  0.000000000E+00  0.00000E+00  9.000E+00
      25     1     1     2     0     0 -3.068943773E+02  1.209115821E+02  1.129936728E+03  1.183716933E+03  1.250000000E+02  0.00000E+00  9.000E+00
      25     1     1     2     0     0  2.862778776E+02 -2.051068835E+02  2.472145924E+02  4.480668606E+02  1.250000000E+02  0.00000E+00  9.000E+00
      21     1     1     2   512   501  2.061649970E+01  8.419530146E+01 -3.723363692E+02  3.822934222E+02  5.394796609E-06  0.00000E+00  9.000E+00
#rwgt            1           1   2.8602429738220893E-002           5       73165           0
</event>
<event>
      5   9999  3.19816E-02  4.30839E+01 -1.00000E+00  1.42868E-01
      21    -1     0     0   502   511  0.000000000E+00  0.000000000E+00  5.389896457E+02  5.389896457E+02  0.000000000E+00  0.00000E+00  9.000E+00
      21    -1     0     0   501   502  0.000000000E+00  0.000000000E+00 -2.715992167E+02  2.715992167E+02  0.000000000E+00  0.00000E+00  9.000E+00
      25     1     1     2     0     0  2.550909632E+02  1.271525816E+02 -3.865187733E+01  3.136210231E+02  1.250000000E+02  0.00000E+00  9.000E+00
      25     1     1     2     0     0 -2.926660033E+02 -1.060733032E+02  2.212206452E+02  4.018314435E+02  1.250000000E+02  0.00000E+00  9.000E+00
      21     1     1     2   501   511  3.757504006E+01 -2.107927843E+01  8.482166109E+01  9.513639580E+01  9.536743164E-07  0.00000E+00  9.000E+00
#rwgt            1           1   2.8004007379307003E-002           5       73227           0
</event>
<event>
      5   9999  3.19816E-02  3.18963E+01 -1.00000E+00  1.51214E-01
      21    -1     0     0   502   501  0.000000000E+00  0.000000000E+00  6.611221215E+02  6.611221215E+02  0.000000000E+00  0.00000E+00  9.000E+00
      21    -1     0     0   501   512  0.000000000E+00  0.000000000E+00 -9.643988017E+02  9.643988017E+02  0.000000000E+00  0.00000E+00  9.000E+00
      25     1     1     2     0     0  2.638045691E+02 -2.502138222E+02 -4.632072051E+01  3.872601408E+02  1.250000000E+02  0.00000E+00  9.000E+00
      25     1     1     2     0     0 -2.323589526E+02  2.448706354E+02  4.242059963E+02  5.563524406E+02  1.250000000E+02  0.00000E+00  9.000E+00
      21     1     1     2   502   512 -3.144561651E+01  5.343186843E+00 -6.811619560E+02  6.819083419E+02  1.078959322E-05  0.00000E+00  9.000E+00
#rwgt            1           1   3.1215354321266400E-002           5       73374           0
</event>
<event>
      5   9999  3.19816E-02  2.25558E+02 -1.00000E+00  1.09779E-01
      21    -1     0     0   502   501  0.000000000E+00  0.000000000E+00  1.157862358E+02  1.157862358E+02  0.000000000E+00  0.00000E+00  9.000E+00
       2    -1     0     0   501     0  0.000000000E+00  0.000000000E+00 -3.682963711E+03  3.682963711E+03  0.000000000E+00  0.00000E+00  9.000E+00
      25     1     1     2     0     0 -6.063788471E+01  5.420354013E+01 -2.620411490E+02  3.015054570E+02  1.250000000E+02  0.00000E+00  9.000E+00
      25     1     1     2     0     0  2.043844271E+02 -2.280229475E+02 -2.054476604E+02  3.893599874E+02  1.250000000E+02  0.00000E+00  9.000E+00
       2     1     1     2   502     0 -1.437465424E+02  1.738194073E+02 -3.099688666E+03  3.107884502E+03  0.000000000E+00  0.00000E+00  9.000E+00
#rwgt            1           1   2.8528944792860906E-002           5       73524           0
</event>
<event>
      5   9999  3.19816E-02  2.72721E+01 -1.00000E+00  1.55972E-01
      21    -1     0     0   511   501  0.000000000E+00  0.000000000E+00  3.545783867E+02  3.545783867E+02  0.000000000E+00  0.00000E+00  9.000E+00
      21    -1     0     0   501   502  0.000000000E+00  0.000000000E+00 -2.134232923E+03  2.134232923E+03  0.000000000E+00  0.00000E+00  9.000E+00
      25     1     1     2     0     0  4.494354151E+01 -4.168330608E+02 -1.820910318E+03  1.872727718E+03  1.250000000E+02  0.00000E+00  9.000E+00
      25     1     1     2     0     0 -4.997603501E+01  3.900293003E+02 -1.377633141E+02  4.349990688E+02  1.250000000E+02  0.00000E+00  9.000E+00
      21     1     1     2   511   502  5.032493507E+00  2.680376053E+01  1.790190956E+02  1.810845222E+02  6.877043296E-06  0.00000E+00  9.000E+00
#rwgt            1           1   2.5601959084566573E-002           5       73557           0
</event>
<event>
      5   9999  3.19816E-02  1.31935E+01 -1.00000E+00  1.82800E-01
      21    -1     0     0   502   512  0.000000000E+00  0.000000000E+00  1.609982137E+03  1.609982137E+03  0.000000000E+00  0.00000E+00  9.000E+00
      21    -1     0     0   501   502  0.000000000E+00  0.000000000E+00 -5.345172283E+01  5.345172283E+01  0.000000000E+00  0.00000E+00  9.000E+00
      25     1     1     2     0     0  1.065327873E+02 -9.402808672E+01  1.585919726E+02  2.469148226E+02  1.250000000E+02  0.00000E+00  9.000E+00
      25     1     1     2     0     0 -1.175103835E+02  1.013466763E+02  1.075013229E+03  1.093324417E+03  1.250000000E+02  0.00000E+00  9.000E+00
      21     1     1     2   501   512  1.097759618E+01 -7.318589573E+00  3.229252133E+02  3.231946206E+02  5.394796609E-06  0.00000E+00  9.000E+00
#rwgt            1           1   3.0315040377692802E-002           5       73700           0
</event>
<event>
      5   9999  3.19816E-02  1.86981E+01 -1.00000E+00  1.68818E-01
      21    -1     0     0   502   501  0.000000000E+00  0.000000000E+00  1.515368592E+03  1.515368592E+03  0.000000000E+00  0.00000E+00  9.000E+00
      21    -1     0     0   511   502  0.000000000E+00  0.000000000E+00 -2.844221029E+02  2.844221029E+02  0.000000000E+00  0.00000E+00  9.000E+00
      25     1     1     2     0     0  5.414599696E+02 -1.459308677E+02  1.048977946E+03  1.196016074E+03  1.250000000E+02  0.00000E+00  9.000E+00
      25     1     1     2     0     0 -5.227917663E+02  1.448735456E+02  1.794006704E+02  5.849009965E+02  1.250000000E+02  0.00000E+00  9.000E+00
      21     1     1     2   511   501 -1.866820329E+01  1.057322136E+00  2.567872597E+00  1.887362482E+01  4.390156228E-07  0.00000E+00  9.000E+00
#rwgt            1           1   3.5643232060541402E-002           5       73960           0
</event>
<event>
      5   9999  3.19816E-02  1.15855E+01 -1.00000E+00  1.88648E-01
      21    -1     0     0   502   501  0.000000000E+00  0.000000000E+00  4.701821541E+02  4.701821541E+02  0.000000000E+00  0.00000E+00  9.000E+00
      21    -1     0     0   512   502  0.000000000E+00  0.000000000E+00 -5.203104673E+02  5.203104673E+02  0.000000000E+00  0.00000E+00  9.000E+00
      25     1     1     2     0     0 -1.336962902E+02  4.070611823E+02 -2.018147445E+02  4.898241472E+02  1.250000000E+02  0.00000E+00  9.000E+00
      25     1     1     2     0     0  1.398674498E+02 -4.168662679E+02  1.621731397E+02  4.850417673E+02  1.250000000E+02  0.00000E+00  9.000E+00
      21     1     1     2   512   501 -6.171159597E+00  9.805085628E+00 -1.048670832E+01  1.562670683E+01  1.192092896E-07  0.00000E+00  9.000E+00
#rwgt            1           1   2.9015986333437226E-002           5       74168           0
</event>
<event>
      5   9999  3.19816E-02  1.03785E+02 -1.00000E+00  1.23106E-01
      21    -1     0     0   511   501  0.000000000E+00  0.000000000E+00  1.783767291E+02  1.783767291E+02  0.000000000E+00  0.00000E+00  9.000E+00
      21    -1     0     0   501   502  0.000000000E+00  0.000000000E+00 -4.232938563E+02  4.232938563E+02  0.000000000E+00  0.00000E+00  9.000E+00
      25     1     1     2     0     0  4.485270527E+01  1.090956303E+02 -1.450171212E+02  2.248746032E+02  1.250000000E+02  0.00000E+00  9.000E+00
      25     1     1     2     0     0  5.401257508E+00 -1.999027874E+02 -1.292699737E+02  2.689349812E+02  1.250000000E+02  0.00000E+00  9.000E+00
      21     1     1     2   511   502 -5.025396277E+01  9.080715712E+01  2.936996767E+01  1.078610011E+02  1.348699152E-06  0.00000E+00  9.000E+00
#rwgt            1           1   2.7145126315760347E-002           5       74394           0
</event>
<event>
      5   9999  3.19816E-02  7.93949E+01 -1.00000E+00  1.28509E-01
      21    -1     0     0   502   501  0.000000000E+00  0.000000000E+00  1.837491412E+03  1.837491412E+03  0.000000000E+00  0.00000E+00  9.000E+00
      21    -1     0     0   501   512  0.000000000E+00  0.000000000E+00 -3.277145701E+02  3.277145701E+02  0.000000000E+00  0.00000E+00  9.000E+00
      25     1     1     2     0     0 -3.565133506E+02 -6.183716312E+02  8.792648972E+02  1.139393261E+03  1.250000000E+02  0.00000E+00  9.000E+00
      25     1     1     2     0     0  2.782685193E+02  6.318364890E+02  6.349753027E+02  9.462924245E+02  1.250000000E+02  0.00000E+00  9.000E+00
      21     1     1     2   502   512  7.824483131E+01 -1.346485777E+01 -4.463358095E+00  7.952029670E+01  7.348554138E-07  0.00000E+00  9.000E+00
#rwgt            1           1   2.2457225225560359E-002           5       74483           0
</event>
<event>
      5   9999  3.19816E-02  1.46942E+01 -1.00000E+00  1.78230E-01
      21    -1     0     0   511   501  0.000000000E+00  0.000000000E+00  3.723193447E+02  3.723193447E+02  0.000000000E+00  0.00000E+00  9.000E+00
      21    -1     0     0   501   502  0.000000000E+00  0.000000000E+00 -1.146159406E+03  1.146159406E+03  0.000000000E+00  0.00000E+00  9.000E+00
      25     1     1     2     0     0 -1.939917896E+02  5.702786730E+02 -3.300024389E+02  6.981240499E+02  1.250000000E+02  0.00000E+00  9.000E+00
      25     1     1     2     0     0  1.810992112E+02 -5.773286096E+02 -4.793066554E+02  7.819623506E+02  1.250000000E+02  0.00000E+00  9.000E+00
      21     1     1     2   511   502  1.289257842E+01  7.049936598E+00  3.546903350E+01  3.839234978E+01  4.768371582E-07  0.00000E+00  9.000E+00
#rwgt            1           1   3.1924921526166793E-002           5       74609           0
</event>
<event>
      5   9999  3.19816E-02  3.47618E+02 -1.00000E+00  1.03554E-01
      21    -1     0     0   502   501  0.000000000E+00  0.000000000E+00  2.128188338E+03  2.128188338E+03  0.000000000E+00  0.00000E+00  9.000E+00
      21    -1     0     0   501   512  0.000000000E+00  0.000000000E+00 -2.393655524E+02  2.393655524E+02  0.000000000E+00  0.00000E+00  9.000E+00
      25     1     1     2     0     0 -9.692690232E+01 -7.179993555E+01 -6.857888477E+01  1.867568434E+02  1.250000000E+02  0.00000E+00  9.000E+00
      25     1     1     2     0     0  4.362939788E+02 -3.487051704E+00  1.667489288E+03  1.728152227E+03  1.250000000E+02  0.00000E+00  9.000E+00
      21     1     1     2   502   512 -3.393670765E+02  7.528698725E+01  2.899123820E+02  4.526448192E+02  8.529922400E-06  0.00000E+00  9.000E+00
#rwgt            2          11   3.2545061369028522E-003           5       74912           0
</event>
<event>
      5   9999  3.19816E-02  5.26760E+01 -1.00000E+00  1.37796E-01
      21    -1     0     0   511   501  0.000000000E+00  0.000000000E+00  6.471892786E+02  6.471892786E+02  0.000000000E+00  0.00000E+00  9.000E+00
      21    -1     0     0   501   502  0.000000000E+00  0.000000000E+00 -8.185566047E+02  8.185566047E+02  0.000000000E+00  0.00000E+00  9.000E+00
      25     1     1     2     0     0  2.537578454E+02 -2.252461340E+02 -2.096528362E+02  4.179810722E+02  1.250000000E+02  0.00000E+00  9.000E+00
      25     1     1     2     0     0 -3.057759200E+02  2.335456379E+02 -4.219299216E+02  5.845445552E+02  1.250000000E+02  0.00000E+00  9.000E+00
      21     1     1     2   511   502  5.201807455E+01 -8.299503808E+00  4.602154318E+02  4.632202559E+02  7.629394531E-06  0.00000E+00  9.000E+00
#rwgt            1           1   2.4057087206644151E-002           5       74947           0
</event>
<event>
      5   9999  3.19816E-02  7.77854E+01 -1.00000E+00  1.28942E-01
      21    -1     0     0   512   501  0.000000000E+00  0.000000000E+00  5.358495326E+02  5.358495326E+02  0.000000000E+00  0.00000E+00  9.000E+00
      21    -1     0     0   501   502  0.000000000E+00  0.000000000E+00 -6.471722568E+02  6.471722568E+02  0.000000000E+00  0.00000E+00  9.000E+00
      25     1     1     2     0     0 -2.016837878E+02  4.253938938E+02 -3.440240604E+02  5.963336896E+02  1.250000000E+02  0.00000E+00  9.000E+00
      25     1     1     2     0     0  2.512563516E+02 -3.654511597E+02  2.003421432E+02  5.024403235E+02  1.250000000E+02  0.00000E+00  9.000E+00
      21     1     1     2   512   502 -4.957256377E+01 -5.994273412E+01  3.235919297E+01  8.424777636E+01  8.259061849E-07  0.00000E+00  9.000E+00
#rwgt            1           1   2.8001318575490822E-002           5       75064           0
</event>
<event>
      5   9999  3.19816E-02  1.65842E+01 -1.00000E+00  1.73372E-01
      21    -1     0     0   511   501  0.000000000E+00  0.000000000E+00  2.987525802E+02  2.987525802E+02  0.000000000E+00  0.00000E+00  9.000E+00
      21    -1     0     0   501   502  0.000000000E+00  0.000000000E+00 -7.216114899E+02  7.216114899E+02  0.000000000E+00  0.00000E+00  9.000E+00
      25     1     1     2     0     0  3.086586145E+02  3.074000601E+02 -2.178730294E+02  5.028504690E+02  1.250000000E+02  0.00000E+00  9.000E+00
      25     1     1     2     0     0 -2.937125333E+02 -3.145868046E+02 -2.160995543E+02  4.975499243E+02  1.250000000E+02  0.00000E+00  9.000E+00
      21     1     1     2   511   502 -1.494608122E+01  7.186744496E+00  1.111367391E+01  1.996367672E+01  4.616955931E-07  0.00000E+00  9.000E+00
#rwgt            1           1   3.2749466655254376E-002           5       75160           0
</event>
<event>
      5   9999  3.19816E-02  1.25811E+02 -1.00000E+00  1.19503E-01
      21    -1     0     0   512   501  0.000000000E+00  0.000000000E+00  1.176844499E+03  1.176844499E+03  0.000000000E+00  0.00000E+00  9.000E+00
      21    -1     0     0   501   502  0.000000000E+00  0.000000000E+00 -2.406630030E+02  2.406630030E+02  0.000000000E+00  0.00000E+00  9.000E+00
      25     1     1     2     0     0  3.052995166E+01  5.627995432E+01  2.368321707E+02  2.753434007E+02  1.250000000E+02  0.00000E+00  9.000E+00
      25     1     1     2     0     0 -6.570961230E+01 -1.770726356E+02 -1.576656859E+02  2.759636569E+02  1.250000000E+02  0.00000E+00  9.000E+00
      21     1     1     2   512   502  3.517966063E+01  1.207926813E+02  8.570150108E+02  8.662004440E+02  1.078959322E-05  0.00000E+00  9.000E+00
#rwgt            1           1   2.8390297055787023E-002           5       75321           0
</event>
<event>
      5   9999  3.19816E-02  3.82422E+01 -1.00000E+00  1.46061E-01
      21    -1     0     0   502   511  0.000000000E+00  0.000000000E+00  2.461485804E+03  2.461485804E+03  0.000000000E+00  0.00000E+00  9.000E+00
      21    -1     0     0   501   502  0.000000000E+00  0.000000000E+00 -9.703933360E+02  9.703933360E+02  0.000000000E+00  0.00000E+00  9.000E+00
      25     1     1     2     0     0  5.101114932E+02 -1.279974974E+03  1.337811136E+03  1.924555352E+03  1.250000000E+02  0.00000E+00  9.000E+00
      25     1     1     2     0     0 -5.234095582E+02  1.315830632E+03  7.903996952E+01  1.423811832E+03  1.250000000E+02  0.00000E+00  9.000E+00
      21     1     1     2   501   511  1.329806496E+01 -3.585565825E+01  7.424136261E+01  8.351195532E+01  1.907348633E-06  0.00000E+00  9.000E+00
#rwgt            1           1   3.6275600050179102E-002           5       75395           0
</event>
<event>
      5   9999  3.19816E-02  2.77608E+01 -1.00000E+00  1.55417E-01
      21    -1     0     0   512   501  0.000000000E+00  0.000000000E+00  7.315570458E+02  7.315570458E+02  0.000000000E+00  0.00000E+00  9.000E+00
      21    -1     0     0   501   502  0.000000000E+00  0.000000000E+00 -1.519735999E+02  1.519735999E+02  0.000000000E+00  0.00000E+00  9.000E+00
      25     1     1     2     0     0  1.568153714E+02  3.554452478E+01  7.281351599E+01  2.162898104E+02  1.250000000E+02  0.00000E+00  9.000E+00
      25     1     1     2     0     0 -1.325810288E+02 -4.908546940E+01  3.169423738E+01  1.913547417E+02  1.250000000E+02  0.00000E+00  9.000E+00
      21     1     1     2   512   502 -2.423434261E+01  1.354094461E+01  4.750756925E+02  4.758860936E+02  0.000000000E+00  0.00000E+00  9.000E+00
#rwgt            1           1   2.5063073551608129E-002           5       75585           0
</event>
<event>
      5   9999  3.19816E-02  3.35349E+02 -1.00000E+00  1.04044E-01
      21    -1     0     0   502   511  0.000000000E+00  0.000000000E+00  1.020016480E+03  1.020016480E+03  0.000000000E+00  0.00000E+00  9.000E+00
      21    -1     0     0   501   502  0.000000000E+00  0.000000000E+00 -6.600119439E+02  6.600119439E+02  0.000000000E+00  0.00000E+00  9.000E+00
      25     1     1     2     0     0 -1.356013873E+01 -9.784390749E+01  4.605924967E+02  4.873681930E+02  1.250000000E+02  0.00000E+00  9.000E+00
      25     1     1     2     0     0 -2.615965396E+02 -9.385347514E+01 -5.518709974E+02  6.304187672E+02  1.250000000E+02  0.00000E+00  9.000E+00
      21     1     1     2   501   511  2.751566784E+02  1.916973826E+02  4.512830367E+02  5.622414636E+02  0.000000000E+00  0.00000E+00  9.000E+00
#rwgt            1           1   3.0288339749848577E-002           5       75729           0
</event>
<event>
      5   9999  3.19816E-02  4.92006E+01 -1.00000E+00  1.39476E-01
       2    -1     0     0   502     0  0.000000000E+00  0.000000000E+00  2.949573652E+03  2.949573652E+03  0.000000000E+00  0.00000E+00  9.000E+00
      21    -1     0     0   501   502  0.000000000E+00  0.000000000E+00 -1.234288426E+03  1.234288426E+03  0.000000000E+00  0.00000E+00  9.000E+00
      25     1     1     2     0     0  5.166389004E+02 -2.845456773E+02  1.347727412E+03  1.476440372E+03  1.250000000E+02  0.00000E+00  9.000E+00
      25     1     1     2     0     0 -5.448044783E+02  3.248867186E+02 -1.080163197E+03  1.258864898E+03  1.250000000E+02  0.00000E+00  9.000E+00
       2     1     1     2   501     0  2.816557789E+01 -4.034104128E+01  1.447721011E+03  1.448556808E+03  0.000000000E+00  0.00000E+00  9.000E+00
#rwgt            1           1   6.8500339920612635E-002           5       75767           0
</event>
<event>
      5   9999  3.19816E-02  1.66977E+02 -1.00000E+00  1.14578E-01
      21    -1     0     0   502   501  0.000000000E+00  0.000000000E+00  1.787578968E+02  1.787578968E+02  0.000000000E+00  0.00000E+00  9.000E+00
       2    -1     0     0   501     0  0.000000000E+00  0.000000000E+00 -1.586716967E+03  1.586716967E+03  0.000000000E+00  0.00000E+00  9.000E+00
      25     1     1     2     0     0 -1.833100951E+02  3.535650339E+02 -1.689605842E+02  4.503148934E+02  1.250000000E+02  0.00000E+00  9.000E+00
      25     1     1     2     0     0  9.897770044E+01 -2.094490812E+02 -6.099335297E+02  6.643112324E+02  1.250000000E+02  0.00000E+00  9.000E+00
       2     1     1     2   502     0  8.433239468E+01 -1.441159527E+02 -6.290649558E+02  6.508487376E+02  1.078959322E-05  0.00000E+00  9.000E+00
#rwgt            1           1   2.8063220124581473E-002           5       75939           0
</event>
<event>
      5   9999  3.19816E-02  8.16594E+01 -1.00000E+00  1.27919E-01
      21    -1     0     0   502   501  0.000000000E+00  0.000000000E+00  2.596525060E+03  2.596525060E+03  0.000000000E+00  0.00000E+00  9.000E+00
      21    -1     0     0   511   502  0.000000000E+00  0.000000000E+00 -3.741583072E+01  3.741583072E+01  0.000000000E+00  0.00000E+00  9.000E+00
      25     1     1     2     0     0  1.015340389E+02  1.806707865E+02  1.355743671E+03  1.377177183E+03  1.250000000E+02  0.00000E+00  9.000E+00
      25     1     1     2     0     0 -3.486987524E+01 -2.278315619E+02  1.058269111E+03  1.090266774E+03  1.250000000E+02  0.00000E+00  9.000E+00
      21     1     1     2   511   501 -6.666416365E+01  4.716077532E+01  1.450964482E+02  1.664969331E+02  3.814697266E-06  0.00000E+00  9.000E+00
#rwgt            1           1   5.7345260223890832E-002           5       76033           0
</event>
<event>
      5   9999  3.19816E-02  2.71295E+01 -1.00000E+00  1.56137E-01
      21    -1     0     0   502   501  0.000000000E+00  0.000000000E+00  2.938435552E+02  2.938435552E+02  0.000000000E+00  0.00000E+00  9.000E+00
      21    -1     0     0   512   502  0.000000000E+00  0.000000000E+00 -7.261381769E+02  7.261381769E+02  0.000000000E+00  0.00000E+00  9.000E+00
      25     1     1     2     0     0  2.968568484E+01 -1.941617753E+02  2.148633121E+02  3.168142638E+02  1.250000000E+02  0.00000E+00  9.000E+00
      25     1     1     2     0     0 -7.686001301E+00  2.100370317E+02 -6.097399488E+02  6.569493393E+02  1.250000000E+02  0.00000E+00  9.000E+00
      21     1     1     2   512   501 -2.199968354E+01 -1.587525648E+01 -3.741798497E+01  4.621812895E+01  0.000000000E+00  0.00000E+00  9.000E+00
#rwgt            1           1   2.7440992401138741E-002           5       76115           0
</event>
<event>
      5   9999  3.19816E-02  1.82527E+02  7.55638E-03  1.13113E-01
      -2    -1     0     0     0   501  0.000000000E+00  0.000000000E+00  1.995504660E+02  1.995504660E+02  0.000000000E+00  0.00000E+00  9.000E+00
       2    -1     0     0   502     0  0.000000000E+00  0.000000000E+00 -9.603819580E+02  9.603819580E+02  0.000000000E+00  0.00000E+00  9.000E+00
      25     1     1     2     0     0  1.924162350E+02  1.086122282E+02 -1.232226006E+02  2.821868759E+02  1.250000000E+02  0.00000E+00  9.000E+00
      25     1     1     2     0     0 -3.928311292E+01 -9.283562873E+00 -6.781636896E+02  6.907679331E+02  1.250000000E+02  0.00000E+00  9.000E+00
      21     1     1     2   502   501 -1.531331221E+02 -9.932866534E+01  4.055479831E+01  1.869776150E+02  1.966049969E-06  0.00000E+00  9.000E+00
#rwgt            3           4   1.8832922282125733E-005           5       76257           0
</event>
<event>
      5   9999  3.19816E-02  8.44689E+01 -1.00000E+00  1.27217E-01
      21    -1     0     0   502   511  0.000000000E+00  0.000000000E+00  4.793596608E+02  4.793596608E+02  0.000000000E+00  0.00000E+00  9.000E+00
      21    -1     0     0   501   502  0.000000000E+00  0.000000000E+00 -1.357849704E+03  1.357849704E+03  0.000000000E+00  0.00000E+00  9.000E+00
      25     1     1     2     0     0 -6.224939242E+02 -2.172275708E+02 -8.454262987E+01  6.763571242E+02  1.250000000E+02  0.00000E+00  9.000E+00
      25     1     1     2     0     0  6.390995810E+02  1.344069573E+02 -8.346107064E+02  1.067105213E+03  1.250000000E+02  0.00000E+00  9.000E+00
      21     1     1     2   501   511 -1.660565685E+01  8.282061346E+01  4.066329269E+01  9.374702782E+01  0.000000000E+00  0.00000E+00  9.000E+00
#rwgt            2          11   6.8112077078119077E-003           5       76321           0
</event>
<event>
      5   9999  3.19816E-02  4.64912E+01 -1.00000E+00  1.40903E-01
      21    -1     0     0   512   501  0.000000000E+00  0.000000000E+00  1.456123789E+03  1.456123789E+03  0.000000000E+00  0.00000E+00  9.000E+00
      21    -1     0     0   501   502  0.000000000E+00  0.000000000E+00 -1.494670036E+02  1.494670036E+02  0.000000000E+00  0.00000E+00  9.000E+00
      25     1     1     2     0     0  6.567832809E+01  4.210682819E+02  7.541749851E+02  8.752239993E+02  1.250000000E+02  0.00000E+00  9.000E+00
      25     1     1     2     0     0 -1.037320739E+02 -3.943597779E+02  4.628341525E+02  6.293809898E+02  1.250000000E+02  0.00000E+00  9.000E+00
      21     1     1     2   512   502  3.805374582E+01 -2.670850397E+01  8.964764733E+01  1.009858031E+02  9.536743164E-07  0.00000E+00  9.000E+00
#rwgt            1           1   2.8917864993610994E-002           5       76356           0
</event>
<event>
      5   9999  3.19816E-02  2.01326E+01 -1.00000E+00  1.66133E-01
      21    -1     0     0   502   511  0.000000000E+00  0.000000000E+00  1.402736719E+02  1.402736719E+02  0.000000000E+00  0.00000E+00  9.000E+00
      21    -1     0     0   501   502  0.000000000E+00  0.000000000E+00 -1.209704371E+03  1.209704371E+03  0.000000000E+00  0.00000E+00  9.000E+00
      25     1     1     2     0     0  1.189717057E+02 -2.471279497E+02 -7.477638960E+02  8.062272226E+02  1.250000000E+02  0.00000E+00  9.000E+00
      25     1     1     2     0     0 -1.001430220E+02  2.542556210E+02 -3.786012575E+02  4.833616222E+02  1.250000000E+02  0.00000E+00  9.000E+00
      21     1     1     2   501   511 -1.882868371E+01 -7.127671342E+00  5.693445494E+01  6.038919761E+01  1.651812370E-06  0.00000E+00  9.000E+00
#rwgt            1           1   2.7353933402440390E-002           5       76436           0
</event>
<event>
      5   9999  3.19816E-02  1.73696E+01 -1.00000E+00  1.71586E-01
      21    -1     0     0   502   512  0.000000000E+00  0.000000000E+00  1.829816085E+02  1.829816085E+02  0.000000000E+00  0.00000E+00  9.000E+00
      21    -1     0     0   501   502  0.000000000E+00  0.000000000E+00 -1.708896296E+02  1.708896296E+02  0.000000000E+00  0.00000E+00  9.000E+00
      25     1     1     2     0     0 -9.788916522E+01  5.113349937E+01  4.669314924E+01  1.732113553E+02  1.250000000E+02  0.00000E+00  9.000E+00
      25     1     1     2     0     0  8.060454425E+01 -5.284974170E+01 -3.930320667E+01  1.626650848E+02  1.250000000E+02  0.00000E+00  9.000E+00
      21     1     1     2   501   512  1.728462097E+01  1.716242329E+00  4.702036340E+00  1.799479801E+01  4.129530925E-07  0.00000E+00  9.000E+00
#rwgt            1           1   2.3385474015424519E-002           5       76586           0
</event>
<event>
      5   9999  3.19816E-02  2.35588E+02 -1.00000E+00  1.09119E-01
      21    -1     0     0   502   511  0.000000000E+00  0.000000000E+00  2.226735370E+03  2.226735370E+03  0.000000000E+00  0.00000E+00  9.000E+00
      21    -1     0     0   501   502  0.000000000E+00  0.000000000E+00 -1.415565958E+02  1.415565958E+02  0.000000000E+00  0.00000E+00  9.000E+00
      25     1     1     2     0     0  2.832315487E+02  2.951098746E+02  1.261391960E+03  1.331932665E+03  1.250000000E+02  0.00000E+00  9.000E+00
      25     1     1     2     0     0 -2.915369503E+02 -5.966851719E+01  2.265601361E+02  3.943458135E+02  1.250000000E+02  0.00000E+00  9.000E+00
      21     1     1     2   501   511  8.305401600E+00 -2.354413574E+02  5.972266785E+02  6.420134874E+02  7.629394531E-06  0.00000E+00  9.000E+00
#rwgt            1           1   2.6833205238207945E-002           5       76705           0
</event>
<event>
      5   9999  3.19816E-02  4.52356E+02 -1.00000E+00  1.00103E-01
      21    -1     0     0   502   512  0.000000000E+00  0.000000000E+00  4.113762462E+02  4.113762462E+02  0.000000000E+00  0.00000E+00  9.000E+00
      21    -1     0     0   501   502  0.000000000E+00  0.000000000E+00 -2.905932078E+03  2.905932078E+03  0.000000000E+00  0.00000E+00  9.000E+00
      25     1     1     2     0     0 -5.162546356E+02 -3.214785042E+02 -3.242944296E+02  7.004706664E+02  1.250000000E+02  0.00000E+00  9.000E+00
      25     1     1     2     0     0  9.497700410E+02  1.922869066E+02 -1.722679159E+03  1.980476172E+03  1.250000000E+02  0.00000E+00  9.000E+00
      21     1     1     2   501   512 -4.335154053E+02  1.291915975E+02 -4.475822436E+02  6.363614855E+02  1.078959322E-05  0.00000E+00  9.000E+00
#rwgt            2          11   2.3813741478144563E-003           5       76832           0
</event>
<event>
      5   9999  3.19816E-02  3.45603E+01 -1.00000E+00  1.48890E-01
      21    -1     0     0   502   511  0.000000000E+00  0.000000000E+00  1.855894014E+02  1.855894014E+02  0.000000000E+00  0.00000E+00  9.000E+00
      21    -1     0     0   501   502  0.000000000E+00  0.000000000E+00 -1.066570377E+03  1.066570377E+03  0.000000000E+00  0.00000E+00  9.000E+00
      25     1     1     2     0     0 -5.509920327E+01  7.842325839E+01  7.802889798E+01  1.757829303E+02  1.250000000E+02  0.00000E+00  9.000E+00
      25     1     1     2     0     0  2.951490873E+01 -5.518836092E+01 -1.007322106E+03  1.016975767E+03  1.250000000E+02  0.00000E+00  9.000E+00
      21     1     1     2   501   511  2.558429454E+01 -2.323489747E+01  4.831223275E+01  5.940108097E+01  6.743495762E-07  0.00000E+00  9.000E+00
#rwgt            1           1   3.2231369108330556E-002           5       76852           0
</event>
<event>
      5   9999  3.19816E-02  9.86632E+01 -1.00000E+00  1.24091E-01
      21    -1     0     0   502   512  0.000000000E+00  0.000000000E+00  1.071508435E+02  1.071508435E+02  0.000000000E+00  0.00000E+00  9.000E+00
      21    -1     0     0   501   502  0.000000000E+00  0.000000000E+00 -1.311779770E+03  1.311779770E+03  0.000000000E+00  0.00000E+00  9.000E+00
      25     1     1     2     0     0 -5.155001583E+01  1.493034248E+02 -6.408120785E+02  6.717246734E+02  1.250000000E+02  0.00000E+00  9.000E+00
      25     1     1     2     0     0 -2.947407420E+01 -9.300498686E+01 -6.156593806E+02  6.357516194E+02  1.250000000E+02  0.00000E+00  9.000E+00
      21     1     1     2   501   512  8.102409003E+01 -5.629843797E+01  5.184253308E+01  1.114543203E+02  2.611744678E-06  0.00000E+00  9.000E+00
#rwgt            1           1   2.9170647007903727E-002           5       76989           0
</event>
<event>
      5   9999  3.19816E-02  4.66066E+01 -1.00000E+00  1.40840E-01
      21    -1     0     0   502   501  0.000000000E+00  0.000000000E+00  1.222851134E+03  1.222851134E+03  0.000000000E+00  0.00000E+00  9.000E+00
       2    -1     0     0   501     0  0.000000000E+00  0.000000000E+00 -6.426000007E+02  6.426000007E+02  0.000000000E+00  0.00000E+00  9.000E+00
      25     1     1     2     0     0  1.224453753E+02 -2.231830281E+02  1.969656010E+02  3.452882592E+02  1.250000000E+02  0.00000E+00  9.000E+00
      25     1     1     2     0     0 -7.590800065E+01  2.206432560E+02  9.323115682E+02  9.691621801E+02  1.250000000E+02  0.00000E+00  9.000E+00
       2     1     1     2   502     0 -4.653737468E+01  2.539772026E+00 -5.490260362E+02  5.510006952E+02  0.000000000E+00  0.00000E+00  9.000E+00
#rwgt            1           1   2.1913117358953276E-002           5       77037           0
</event>
<event>
      5   9999  3.19816E-02  4.99007E+01 -1.00000E+00  1.39125E-01
      21    -1     0     0   502   511  0.000000000E+00  0.000000000E+00  1.472668091E+02  1.472668091E+02  0.000000000E+00  0.00000E+00  9.000E+00
      21    -1     0     0   501   502  0.000000000E+00  0.000000000E+00 -1.590601567E+03  1.590601567E+03  0.000000000E+00  0.00000E+00  9.000E+00
      25     1     1     2     0     0 -6.351520953E+01  3.149353404E+02 -1.110192095E+03  1.162484382E+03  1.250000000E+02  0.00000E+00  9.000E+00
      25     1     1     2     0     0  9.050319520E+01 -3.569083212E+02 -3.495430682E+02  5.228572794E+02  1.250000000E+02  0.00000E+00  9.000E+00
      21     1     1     2   501   511 -2.698798567E+01  4.197298086E+01  1.640040514E+01  5.252671493E+01  1.348699152E-06  0.00000E+00  9.000E+00
#rwgt            1           1   2.0723126491508034E-002           5       77163           0
</event>
<event>
      5   9999  3.19816E-02  1.77322E+01 -1.00000E+00  1.70800E-01
      21    -1     0     0   502   501  0.000000000E+00  0.000000000E+00  3.373873540E+02  3.373873540E+02  0.000000000E+00  0.00000E+00  9.000E+00
      21    -1     0     0   512   502  0.000000000E+00  0.000000000E+00 -9.468360990E+02  9.468360990E+02  0.000000000E+00  0.00000E+00  9.000E+00
      25     1     1     2     0     0  1.343947758E+02  1.581572045E+02 -4.481609725E+02  5.094594335E+02  1.250000000E+02  0.00000E+00  9.000E+00
      25     1     1     2     0     0 -1.278802193E+02 -1.746494199E+02  2.555947926E+02  3.575045011E+02  1.250000000E+02  0.00000E+00  9.000E+00
      21     1     1     2   512   501 -6.514556487E+00  1.649221537E+01 -4.168825650E+02  4.172595183E+02  0.000000000E+00  0.00000E+00  9.000E+00
#rwgt            1           1   2.8174686743864922E-002           5       77268           0
</event>
<event>
      5   9999  3.19816E-02  9.18362E+01 -1.00000E+00  1.25515E-01
      21    -1     0     0   502   511  0.000000000E+00  0.000000000E+00  1.344171451E+02  1.344171451E+02  0.000000000E+00  0.00000E+00  9.000E+00
      21    -1     0     0   501   502  0.000000000E+00  0.000000000E+00 -9.973927930E+02  9.973927930E+02  0.000000000E+00  0.00000E+00  9.000E+00
      25     1     1     2     0     0  1.233866862E+02 -1.541866620E+02 -3.082457471E+02  3.868310247E+02  1.250000000E+02  0.00000E+00  9.000E+00
      25     1     1     2     0     0 -1.578093380E+02  6.904573603E+01 -6.042545946E+02  6.406400830E+02  1.250000000E+02  0.00000E+00  9.000E+00
      21     1     1     2   501   511  3.442265185E+01  8.514092596E+01  4.952469378E+01  1.043388304E+02  2.611744678E-06  0.00000E+00  9.000E+00
#rwgt            1           1   2.6348374601341200E-002           5       77516           0
</event>
<event>
      5   9999  3.19816E-02  6.31391E+01 -1.00000E+00  1.33530E-01
      21    -1     0     0   502   501  0.000000000E+00  0.000000000E+00  7.130238604E+02  7.130238604E+02  0.000000000E+00  0.00000E+00  9.000E+00
      21    -1     0     0   501   512  0.000000000E+00  0.000000000E+00 -2.517071250E+02  2.517071250E+02  0.000000000E+00  0.00000E+00  9.000E+00
      25     1     1     2     0     0  1.514839024E+01  2.497279924E+02  4.900004244E+02  5.641976248E+02  1.250000000E+02  0.00000E+00  9.000E+00
      25     1     1     2     0     0 -3.497412217E+01 -3.096736836E+02 -3.206202395E+01  3.373039474E+02  1.250000000E+02  0.00000E+00  9.000E+00
      21     1     1     2   502   512  1.982573192E+01  5.994569126E+01  3.378335010E+00  6.322941321E+01  1.117487744E-06  0.00000E+00  9.000E+00
#rwgt            1           1   2.8604761730843909E-002           5       77579           0
</event>
<event>
      5   9999  3.19816E-02  4.43139E+01 -1.00000E+00  1.42135E-01
      21    -1     0     0   502   501  0.000000000E+00  0.000000000E+00  2.738627754E+02  2.738627754E+02  0.000000000E+00  0.00000E+00  9.000E+00
      21    -1     0     0   511   502  0.000000000E+00  0.000000000E+00 -4.125901528E+02  4.125901528E+02  0.000000000E+00  0.00000E+00  9.000E+00
      25     1     1     2     0     0  1.159092934E+02  1.626862015E+02  2.911772343E+01  2.374333723E+02  1.250000000E+02  0.00000E+00  9.000E+00
      25     1     1     2     0     0 -1.150340272E+02 -2.069914127E+02  7.782399828E+00  2.678877342E+02  1.250000000E+02  0.00000E+00  9.000E+00
      21     1     1     2   511   501 -8.752662297E-01  4.430521121E+01 -1.756275007E+02  1.811318217E+02  1.907348633E-06  0.00000E+00  9.000E+00
#rwgt            1           1   2.5451600167091186E-002           5       77666           0
</event>
<event>
      5   9999  3.19816E-02  8.17121E+01 -1.00000E+00  1.27906E-01
      21    -1     0     0   502   501  0.000000000E+00  0.000000000E+00  5.642239985E+02  5.642239985E+02  0.000000000E+00  0.00000E+00  9.000E+00
      21    -1     0     0   512   502  0.000000000E+00  0.000000000E+00 -1.029998483E+02  1.029998483E+02  0.000000000E+00  0.00000E+00  9.000E+00
      25     1     1     2     0     0 -5.347431336E+01  3.831667772E+01  4.312118094E+02  4.537579691E+02  1.250000000E+02  0.00000E+00  9.000E+00
      25     1     1     2     0     0 -1.992962251E+01 -2.417763862E+00  5.457441361E-01  1.266030540E+02  1.250000000E+02  0.00000E+00  9.000E+00
      21     1     1     2   512   501  7.340393587E+01 -3.589891385E+01  2.946659672E+01  8.686282369E+01  1.685873940E-06  0.00000E+00  9.000E+00
#rwgt            1           1   3.2511451990590745E-002           5       77766           0
</event>
<event>
      5   9999  3.19816E-02  2.23725E+02 -1.00000E+00  1.09904E-01
       2    -1     0     0   502     0  0.000000000E+00  0.000000000E+00  2.033816195E+03  2.033816195E+03  0.000000000E+00  0.00000E+00  9.000E+00
      21    -1     0     0   501   502  0.000000000E+00  0.000000000E+00 -5.637596618E+02  5.637596618E+02  0.000000000E+00  0.00000E+00  9.000E+00
      25     1     1     2     0     0 -5.835090809E+02  1.258665666E+02  4.755879556E+02  7.733913262E+02  1.250000000E+02  0.00000E+00  9.000E+00
      25     1     1     2     0     0  4.395527597E+02 -2.971250573E+02 -2.210863067E+02  5.882126174E+02  1.250000000E+02  0.00000E+00  9.000E+00
       2     1     1     2   501     0  1.439563212E+02  1.712584907E+02  1.215554884E+03  1.235971913E+03  0.000000000E+00  0.00000E+00  9.000E+00
#rwgt            1           1   2.9842347451061957E-002           5       77850           0
</event>
<event>
      5   9999  3.19816E-02  3.08911E+01 -1.00000E+00  1.52162E-01
      21    -1     0     0   502   501  0.000000000E+00  0.000000000E+00  3.426620587E+02  3.426620587E+02  0.000000000E+00  0.00000E+00  9.000E+00
      21    -1     0     0   511   502  0.000000000E+00  0.000000000E+00 -7.156550821E+02  7.156550821E+02  0.000000000E+00  0.00000E+00  9.000E+00
      25     1     1     2     0     0  7.624924574E+01  3.534676503E+01  2.795670055E+02  3.175626739E+02  1.250000000E+02  0.00000E+00  9.000E+00
      25     1     1     2     0     0 -1.052505375E+02 -2.470784872E+01 -1.127569125E+02  2.000681752E+02  1.250000000E+02  0.00000E+00  9.000E+00
      21     1     1     2   511   501  2.900129175E+01 -1.063891630E+01 -5.398031164E+02  5.406862916E+02  7.629394531E-06  0.00000E+00  9.000E+00
#rwgt            1           1   2.9809923403453648E-002           5       77924           0
</event>
<event>
      5   9999  3.19816E-02  3.03893E+01 -1.00000E+00  1.52652E-01
      21    -1     0     0   502   501  0.000000000E+00  0.000000000E+00  1.642028149E+02  1.642028149E+02  0.000000000E+00  0.00000E+00  9.000E+00
      21    -1     0     0   512   502  0.000000000E+00  0.000000000E+00 -8.973383557E+02  8.973383557E+02  0.000000000E+00  0.00000E+00  9.000E+00
      25     1     1     2     0     0 -1.051095197E+02  2.310870344E+02 -3.344177246E+02  4.380747004E+02  1.250000000E+02  0.00000E+00  9.000E+00
      25     1     1     2     0     0  1.207330982E+02 -2.050214949E+02 -4.993921782E+01  2.733664571E+02  1.250000000E+02  0.00000E+00  9.000E+00
      21     1     1     2   512   501 -1.562357855E+01 -2.606553951E+01 -3.487785983E+02  3.501000131E+02  5.394796609E-06  0.00000E+00  9.000E+00
#rwgt            1           1   3.0864287699493162E-002           5       77983           0
</event>
<event>
      5   9999  3.19816E-02  4.03130E+01 -1.00000E+00  1.44631E-01
      21    -1     0     0   502   511  0.000000000E+00  0.000000000E+00  1.085083420E+03  1.085083420E+03  0.000000000E+00  0.00000E+00  9.000E+00
      21    -1     0     0   501   502  0.000000000E+00  0.000000000E+00 -9.049852964E+02  9.049852964E+02  0.000000000E+00  0.00000E+00  9.000E+00
      25     1     1     2     0     0  3.471870920E+02  5.116121269E+02 -1.611310377E+02  6.510561086E+02  1.250000000E+02  0.00000E+00  9.000E+00
      25     1     1     2     0     0 -3.753229529E+02 -5.404826973E+02 -2.731278224E+02  7.233344126E+02  1.250000000E+02  0.00000E+00  9.000E+00
      21     1     1     2   501   511  2.813586086E+01  2.887057042E+01  6.143569841E+02  6.156781955E+02  0.000000000E+00  0.00000E+00  9.000E+00
#rwgt            1           1   2.8489146663603221E-002           5       78091           0
</event>
<event>
      5   9999  3.19816E-02  9.80327E+01 -1.00000E+00  1.24217E-01
      21    -1     0     0   502   501  0.000000000E+00  0.000000000E+00  1.008737663E+03  1.008737663E+03  0.000000000E+00  0.00000E+00  9.000E+00
       2    -1     0     0   501     0  0.000000000E+00  0.000000000E+00 -2.071482928E+03  2.071482928E+03  0.000000000E+00  0.00000E+00  9.000E+00
      25     1     1     2     0     0 -1.112322734E+02  2.270511553E+02  4.522650017E+02  5.330042002E+02  1.250000000E+02  0.00000E+00  9.000E+00
      25     1     1     2     0     0  1.184379372E+02 -1.292836798E+02  4.923946744E+02  5.374191383E+02  1.250000000E+02  0.00000E+00  9.000E+00
       2     1     1     2   502     0 -7.205663810E+00 -9.776747550E+01 -2.007404941E+03  2.009797253E+03  3.051757812E-05  0.00000E+00  9.000E+00
#rwgt            1           1   3.0874773660352951E-002           5       78278           0
</event>
<event>
      5   9999  3.19816E-02  5.40849E+01 -1.00000E+00  1.37157E-01
      21    -1     0     0   502   501  0.000000000E+00  0.000000000E+00  1.602633888E+03  1.602633888E+03  0.000000000E+00  0.00000E+00  9.000E+00
      21    -1     0     0   511   502  0.000000000E+00  0.000000000E+00 -1.686169738E+02  1.686169738E+02  0.000000000E+00  0.00000E+00  9.000E+00
      25     1     1     2     0     0  3.449957410E+02  1.162661281E+02  9.945494334E+02  1.066439614E+03  1.250000000E+02  0.00000E+00  9.000E+00
      25     1     1     2     0     0 -3.162757355E+02 -7.043674397E+01  5.093245872E+02  6.164642819E+02  1.250000000E+02  0.00000E+00  9.000E+00
      21     1     1     2   511   501 -2.872000549E+01 -4.582938418E+01 -6.985710637E+01  8.834696644E+01  1.651812370E-06  0.00000E+00  9.000E+00
#rwgt            1           1   2.9176030367366091E-002           5       78317           0
</event>
<event>
      5   9999  3.19816E-02  6.38750E+01 -1.00000E+00  1.33267E-01
      21    -1     0     0   502   512  0.000000000E+00  0.000000000E+00  1.957539952E+02  1.957539952E+02  0.000000000E+00  0.00000E+00  9.000E+00
      21    -1     0     0   501   502  0.000000000E+00  0.000000000E+00 -1.284154041E+03  1.284154041E+03  0.000000000E+00  0.00000E+00  9.000E+00
      25     1     1     2     0     0  2.390519009E+01  1.196687709E+02 -7.161375547E+02  7.371363985E+02  1.250000000E+02  0.00000E+00  9.000E+00
      25     1     1     2     0     0 -1.187605101E+00 -1.793673962E+02 -5.296051473E+02  5.729578390E+02  1.250000000E+02  0.00000E+00  9.000E+00
      21     1     1     2   501   512 -2.271758499E+01  5.969862529E+01  1.573426565E+02  1.698137983E+02  5.046370146E-06  0.00000E+00  9.000E+00
#rwgt            1           1   2.5684876944179164E-002           5       78451           0
</event>
<event>
      5   9999  3.19816E-02  4.42311E+01 -1.00000E+00  1.42183E-01
      21    -1     0     0   502   511  0.000000000E+00  0.000000000E+00  2.656520230E+03  2.656520230E+03  0.000000000E+00  0.00000E+00  9.000E+00
      21    -1     0     0   501   502  0.000000000E+00  0.000000000E+00 -9.895714372E+01  9.895714372E+01  0.000000000E+00  0.00000E+00  9.000E+00
      25     1     1     2     0     0 -2.939395519E+02 -8.760682415E+01  1.757775274E+03  1.788707446E+03  1.250000000E+02  0.00000E+00  9.000E+00
      25     1     1     2     0     0  3.296740699E+02  6.154082596E+01  3.056551562E+02  4.706615983E+02  1.250000000E+02  0.00000E+00  9.000E+00
      21     1     1     2   501   511 -3.573451804E+01  2.606599819E+01  4.941326559E+02  4.961083286E+02  7.629394531E-06  0.00000E+00  9.000E+00
#rwgt            1           1   2.9018080113659656E-002           5       78541           0
</event>
<event>
      5   9999  3.19816E-02  8.74404E+01 -1.00000E+00  1.26508E-01
      21    -1     0     0   502   501  0.000000000E+00  0.000000000E+00  1.000296987E+03  1.000296987E+03  0.000000000E+00  0.00000E+00  9.000E+00
      21    -1     0     0   512   502  0.000000000E+00  0.000000000E+00 -5.946031815E+02  5.946031815E+02  0.000000000E+00  0.00000E+00  9.000E+00
      25     1     1     2     0     0  2.220599393E+02  1.534316574E+02  9.055314958E+02  9.531338731E+02  1.250000000E+02  0.00000E+00  9.000E+00
      25     1     1     2     0     0 -1.911566985E+02 -7.163424589E+01 -1.530288508E+02  2.841041671E+02  1.250000000E+02  0.00000E+00  9.000E+00
      21     1     1     2   512   501 -3.090324086E+01 -8.179741151E+01 -3.468088395E+02  3.576621283E+02  6.607249480E-06  0.00000E+00  9.000E+00
#rwgt            1           1   2.5679471472203282E-002           5       78659           0
</event>
<event>
      5   9999  3.19816E-02  2.15992E+02 -1.00000E+00  1.10445E-01
       1    -1     0     0   502     0  0.000000000E+00  0.000000000E+00  6.602357608E+02  6.602357608E+02  0.000000000E+00  0.00000E+00  9.000E+00
      21    -1     0     0   501   502  0.000000000E+00  0.000000000E+00 -4.028809019E+02  4.028809019E+02  0.000000000E+00  0.00000E+00  9.000E+00
      25     1     1     2     0     0  7.372604433E+01  3.712913500E+02 -2.946383512E+01  3.997323027E+02  1.250000000E+02  0.00000E+00  9.000E+00
      25     1     1     2     0     0  8.123841103E+01 -2.208307695E+02 -4.224170532E+01  2.697689194E+02  1.250000000E+02  0.00000E+00  9.000E+00
       1     1     1     2   501     0 -1.549644554E+02 -1.504605805E+02  3.290603993E+02  3.936154406E+02  3.814697266E-06  0.00000E+00  9.000E+00
#rwgt            2          17   3.2973190779284176E-004           5       78759           0
</event>
<event>
      5   9999  3.19816E-02  3.62590E+01 -1.00000E+00  1.47535E-01
      21    -1     0     0   511   501  0.000000000E+00  0.000000000E+00  9.099483734E+01  9.099483734E+01  0.000000000E+00  0.00000E+00  9.000E+00
      21    -1     0     0   501   502  0.000000000E+00  0.000000000E+00 -7.751861330E+02  7.751861330E+02  0.000000000E+00  0.00000E+00  9.000E+00
      25     1     1     2     0     0  9.705987454E+01  7.421026674E+01 -4.880895853E+02  5.184440435E+02  1.250000000E+02  0.00000E+00  9.000E+00
      25     1     1     2     0     0 -1.330662019E+02 -6.993735075E+01 -2.273637172E+02  2.998618132E+02  1.250000000E+02  0.00000E+00  9.000E+00
      21     1     1     2   511   502  3.600632740E+01 -4.272915988E+00  3.126200691E+01  4.787511358E+01  1.784161275E-06  0.00000E+00  9.000E+00
#rwgt            1           1   3.4764291548326644E-002           5       78778           0
</event>
<event>
      5   9999  3.19816E-02  3.13134E+01 -1.00000E+00  1.51759E-01
      21    -1     0     0   512   501  0.000000000E+00  0.000000000E+00  2.054731810E+02  2.054731810E+02  0.000000000E+00  0.00000E+00  9.000E+00
      21    -1     0     0   501   502  0.000000000E+00  0.000000000E+00 -3.413090645E+02  3.413090645E+02  0.000000000E+00  0.00000E+00  9.000E+00
      25     1     1     2     0     0  5.203428469E+00 -1.977331468E+02 -4.402831428E+01  2.380944465E+02  1.250000000E+02  0.00000E+00  9.000E+00
      25     1     1     2     0     0 -3.041597983E+01  1.791629229E+02 -1.325284208E+02  2.573193873E+02  1.250000000E+02  0.00000E+00  9.000E+00
      21     1     1     2   512   502  2.521255136E+01  1.857022387E+01  4.072085153E+01  5.136841160E+01  4.768371582E-07  0.00000E+00  9.000E+00
#rwgt            1           1   2.4415321258484137E-002           5       78885           0
</event>
<event>
      5   9999  3.19816E-02  4.94113E+01 -1.00000E+00  1.39370E-01
      21    -1     0     0   502   501  0.000000000E+00  0.000000000E+00  6.953567877E+02  6.953567877E+02  0.000000000E+00  0.00000E+00  9.000E+00
      21    -1     0     0   501   511  0.000000000E+00  0.000000000E+00 -3.307430213E+02  3.307430213E+02  0.000000000E+00  0.00000E+00  9.000E+00
      25     1     1     2     0     0 -2.125135563E+02 -2.064021677E+02  5.306163735E+02  6.204374282E+02  1.250000000E+02  0.00000E+00  9.000E+00
      25     1     1     2     0     0  2.343295156E+02  1.620677225E+02 -1.077099066E+02  3.292456416E+02  1.250000000E+02  0.00000E+00  9.000E+00
      21     1     1     2   502   511 -2.181595923E+01  4.433444514E+01 -5.829270053E+01  7.641673925E+01  6.743495762E-07  0.00000E+00  9.000E+00
#rwgt            1           1   3.0755198186000445E-002           5       78998           0
</event>
<event>
      5   9999  3.19816E-02  7.89483E+01 -1.00000E+00  1.28628E-01
      21    -1     0     0   502   501  0.000000000E+00  0.000000000E+00  8.147700747E+01  8.147700747E+01  0.000000000E+00  0.00000E+00  9.000E+00
      21    -1     0     0   512   502  0.000000000E+00  0.000000000E+00 -8.085814245E+02  8.085814245E+02  0.000000000E+00  0.00000E+00  9.000E+00
      25     1     1     2     0     0  6.047927018E+01  1.226789538E+02 -2.517458746E+02  3.125841538E+02  1.250000000E+02  0.00000E+00  9.000E+00
      25     1     1     2     0     0 -1.049912792E+02 -1.878825864E+02 -3.566939851E+02  4.349467025E+02  1.250000000E+02  0.00000E+00  9.000E+00
      21     1     1     2   512   501  4.451200905E+01  6.520363264E+01 -1.186645573E+02  1.425275756E+02  2.697398305E-06  0.00000E+00  9.000E+00
#rwgt            1           1   3.0672106633166763E-002           5       79154           0
</event>
<event>
      5   9999  3.19816E-02  6.62968E+01 -1.00000E+00  1.32427E-01
      21    -1     0     0   502   501  0.000000000E+00  0.000000000E+00  6.831258280E+02  6.831258280E+02  0.000000000E+00  0.00000E+00  9.000E+00
      21    -1     0     0   511   502  0.000000000E+00  0.000000000E+00 -5.415988499E+02  5.415988499E+02  0.000000000E+00  0.00000E+00  9.000E+00
      25     1     1     2     0     0 -3.792397011E+02 -2.496682973E+02  3.546805211E+02  5.895593961E+02  1.250000000E+02  0.00000E+00  9.000E+00
      25     1     1     2     0     0  3.139598476E+02  2.381006038E+02 -1.517759157E+00  4.133884215E+02  1.250000000E+02  0.00000E+00  9.000E+00
      21     1     1     2   511   501  6.527985352E+01  1.156769349E+01 -2.116357838E+02  2.217768603E+02  3.814697266E-06  0.00000E+00  9.000E+00
#rwgt            1           1   3.0025326956374630E-002           5       79225           0
</event>
<event>
      5   9999  3.19816E-02  2.97804E+01 -1.00000E+00  1.53262E-01
      21    -1     0     0   502   501  0.000000000E+00  0.000000000E+00  1.117981692E+02  1.117981692E+02  0.000000000E+00  0.00000E+00  9.000E+00
      21    -1     0     0   512   502  0.000000000E+00  0.000000000E+00 -1.304207866E+03  1.304207866E+03  0.000000000E+00  0.00000E+00  9.000E+00
      25     1     1     2     0     0  7.246737450E+01  9.700143104E+01  3.170962651E+01  1.768934663E+02  1.250000000E+02  0.00000E+00  9.000E+00
      25     1     1     2     0     0 -4.870091976E+01 -7.905623726E+01 -1.121535592E+03  1.132293581E+03  1.250000000E+02  0.00000E+00  9.000E+00
      21     1     1     2   512   501 -2.376645473E+01 -1.794519378E+01 -1.025837313E+02  1.068189884E+02  1.907348633E-06  0.00000E+00  9.000E+00
#rwgt            1           1   2.8508710536493811E-002           5       79362           0
</event>
<event>
      5   9999  3.19816E-02  1.86001E+02 -1.00000E+00  1.12807E-01
      21    -1     0     0   502   501  0.000000000E+00  0.000000000E+00  8.484821609E+02  8.484821609E+02  0.000000000E+00  0.00000E+00  9.000E+00
      21    -1     0     0   511   502  0.000000000E+00  0.000000000E+00 -6.142001275E+02  6.142001275E+02  0.000000000E+00  0.00000E+00  9.000E+00
      25     1     1     2     0     0 -3.248133869E+01  4.922296519E+02  3.923375624E+02  6.425720430E+02  1.250000000E+02  0.00000E+00  9.000E+00
      25     1     1     2     0     0 -1.461767789E+02 -4.404824150E+02  1.107398482E+02  4.932349568E+02  1.250000000E+02  0.00000E+00  9.000E+00
      21     1     1     2   511   501  1.786581176E+02 -5.174723687E+01 -2.687953771E+02  3.268752886E+02  3.814697266E-06  0.00000E+00  9.000E+00
#rwgt            1           1   1.9650954613638746E-002           5       79483           0
</event>
<event>
      5   9999  3.19816E-02  7.21474E+01 -1.00000E+00  1.30560E-01
      21    -1     0     0   502   501  0.000000000E+00  0.000000000E+00  6.366842723E+02  6.366842723E+02  0.000000000E+00  0.00000E+00  9.000E+00
      21    -1     0     0   512   502  0.000000000E+00  0.000000000E+00 -1.610933758E+02  1.610933758E+02  0.000000000E+00  0.00000E+00  9.000E+00
      25     1     1     2     0     0 -3.658028214E+01  1.523150947E+02  2.237318353E+02  3.003646770E+02  1.250000000E+02  0.00000E+00  9.000E+00
      25     1     1     2     0     0  2.639821412E+01 -2.237404136E+02  3.111879042E+02  4.040043937E+02  1.250000000E+02  0.00000E+00  9.000E+00
      21     1     1     2   512   501  1.018206802E+01  7.142531895E+01 -5.932884298E+01  9.340857726E+01  1.348699152E-06  0.00000E+00  9.000E+00
#rwgt            1           1   2.6332542509709879E-002           5       79529           0
</event>
<event>
      5   9999  3.19816E-02  2.58017E+01 -1.00000E+00  1.57731E-01
      21    -1     0     0   502   511  0.000000000E+00  0.000000000E+00  1.264456395E+02  1.264456395E+02  0.000000000E+00  0.00000E+00  9.000E+00
      21    -1     0     0   501   502  0.000000000E+00  0.000000000E+00 -3.464283982E+02  3.464283982E+02  0.000000000E+00  0.00000E+00  9.000E+00
      25     1     1     2     0     0  1.322249198E+02 -4.844521299E+01 -1.200990935E+02  2.233364286E+02  1.250000000E+02  0.00000E+00  9.000E+00
      25     1     1     2     0     0 -1.329074842E+02  7.423786000E+01 -1.050254470E+02  2.232285907E+02  1.250000000E+02  0.00000E+00  9.000E+00
      21     1     1     2   501   511  6.825644036E-01 -2.579264701E+01  5.141781746E+00  2.630901848E+01  2.230201594E-07  0.00000E+00  9.000E+00
#rwgt            1           1   2.6208117379061681E-002           5       79619           0
</event>
<event>
      5   9999  3.19816E-02  1.40347E+02 -1.00000E+00  1.17550E-01
      21    -1     0     0   502   501  0.000000000E+00  0.000000000E+00  9.906715313E+02  9.906715313E+02  0.000000000E+00  0.00000E+00  9.000E+00
      21    -1     0     0   501   512  0.000000000E+00  0.000000000E+00 -5.910554712E+02  5.910554712E+02  0.000000000E+00  0.00000E+00  9.000E+00
      25     1     1     2     0     0  7.208678030E+01  2.308468263E+02  8.199728085E+02  8.639833145E+02  1.250000000E+02  0.00000E+00  9.000E+00
      25     1     1     2     0     0 -2.121915528E+02 -2.390805454E+02 -8.412034437E+01  3.533921258E+02  1.250000000E+02  0.00000E+00  9.000E+00
      21     1     1     2   502   512  1.401047725E+02  8.233719109E+00 -3.362364040E+02  3.643515621E+02  3.814697266E-06  0.00000E+00  9.000E+00
#rwgt            1           1   2.9493717509977715E-002           5       79719           0
</event>
<event>
      5   9999  3.19816E-02  7.61328E+01 -1.00000E+00  1.29400E-01
      21    -1     0     0   502   501  0.000000000E+00  0.000000000E+00  1.503192594E+03  1.503192594E+03  0.000000000E+00  0.00000E+00  9.000E+00
      21    -1     0     0   501   511  0.000000000E+00  0.000000000E+00 -8.606581908E+01  8.606581908E+01  0.000000000E+00  0.00000E+00  9.000E+00
      25     1     1     2     0     0  2.527730957E+01  7.836814931E+01  1.274754783E+03  1.283512862E+03  1.250000000E+02  0.00000E+00  9.000E+00
      25     1     1     2     0     0 -9.038231479E+01 -1.178337577E+02  1.089956894E+02  2.226180981E+02  1.250000000E+02  0.00000E+00  9.000E+00
      21     1     1     2   502   511  6.510500522E+01  3.946560837E+01  3.337630260E+01  8.312745349E+01  8.259061849E-07  0.00000E+00  9.000E+00
#rwgt            1           1   2.8506114780769833E-002           5       79785           0
</event>
<event>
      5   9999  3.19816E-02  6.94801E+01 -1.00000E+00  1.31385E-01
       2    -1     0     0   502     0  0.000000000E+00  0.000000000E+00  2.732710175E+03  2.732710175E+03  0.000000000E+00  0.00000E+00  9.000E+00
      21    -1     0     0   501   502  0.000000000E+00  0.000000000E+00 -3.030700525E+02  3.030700525E+02  0.000000000E+00  0.00000E+00  9.000E+00
      25     1     1     2     0     0 -3.058122698E+01  1.165539500E+02  1.210334411E+02  2.116462345E+02  1.250000000E+02  0.00000E+00  9.000E+00
      25     1     1     2     0     0  9.146315826E+01 -8.307450917E+01 -2.272709739E+02  2.873046797E+02  1.250000000E+02  0.00000E+00  9.000E+00
       2     1     1     2   501     0 -6.088193128E+01 -3.347944080E+01  2.535877655E+03  2.536829313E+03  3.051757812E-05  0.00000E+00  9.000E+00
#rwgt            1           1   2.7630760917100195E-002           5       79865           0
</event>
<event>
      5   9999  3.19816E-02  3.90941E+01 -1.00000E+00  1.45460E-01
      21    -1     0     0   502   511  0.000000000E+00  0.000000000E+00  6.038257502E+02  6.038257502E+02  0.000000000E+00  0.00000E+00  9.000E+00
      21    -1     0     0   501   502  0.000000000E+00  0.000000000E+00 -9.982905532E+02  9.982905532E+02  0.000000000E+00  0.00000E+00  9.000E+00
      25     1     1     2     0     0  3.679737887E+02  7.081634937E+01 -8.583457748E+02  9.448820740E+02  1.250000000E+02  0.00000E+00  9.000E+00
      25     1     1     2     0     0 -4.030969518E+02 -5.364910154E+01  4.363482369E+02  6.094178883E+02  1.250000000E+02  0.00000E+00  9.000E+00
      21     1     1     2   501   511  3.512316315E+01 -1.716724784E+01  2.753273496E+01  4.781634116E+01  6.743495762E-07  0.00000E+00  9.000E+00
#rwgt            1           1   2.9916922701587391E-002           5       79959           0
</event>
<event>
      5   9999  3.19816E-02  2.96747E+02 -1.00000E+00  1.05746E-01
      21    -1     0     0   502   501  0.000000000E+00  0.000000000E+00  1.093914038E+03  1.093914038E+03  0.000000000E+00  0.00000E+00  9.000E+00
      21    -1     0     0   512   502  0.000000000E+00  0.000000000E+00 -4.374441110E+02  4.374441110E+02  0.000000000E+00  0.00000E+00  9.000E+00
      25     1     1     2     0     0 -1.458506178E+02 -9.636062344E+01  2.106122080E+01  2.159313490E+02  1.250000000E+02  0.00000E+00  9.000E+00
      25     1     1     2     0     0  2.369328644E+01  3.667983989E+02  8.598012451E+02  9.433904909E+02  1.250000000E+02  0.00000E+00  9.000E+00
      21     1     1     2   512   501  1.221573314E+02 -2.704377754E+02 -2.243925387E+02  3.720363093E+02  6.031565972E-06  0.00000E+00  9.000E+00
#rwgt            1           1   2.6921389551844449E-002           5       80086           0
</event>
<event>
      5   9999  3.19816E-02  4.35723E+01 -1.00000E+00  1.42573E-01
      21    -1     0     0   511   501  0.000000000E+00  0.000000000E+00  5.941936579E+02  5.941936579E+02  0.000000000E+00  0.00000E+00  9.000E+00
      21    -1     0     0   501   502  0.000000000E+00  0.000000000E+00 -3.194305109E+03  3.194305109E+03  0.000000000E+00  0.00000E+00  9.000E+00
      25     1     1     2     0     0  1.541051373E+02  8.374474756E+01 -3.153680506E+03  3.161026307E+03  1.250000000E+02  0.00000E+00  9.000E+00
      25     1     1     2     0     0 -1.388941861E+02 -1.245757238E+02  3.266232728E+02  3.963817203E+02  1.250000000E+02  0.00000E+00  9.000E+00
      21     1     1     2   511   502 -1.521095122E+01  4.083097625E+01  2.269457826E+02  2.310907395E+02  8.946258087E-06  0.00000E+00  9.000E+00
#rwgt            1           1   2.0832468609354629E-002           5       80130           0
</event>
<event>
      5   9999  3.19816E-02  8.84000E+01 -1.00000E+00  1.26285E-01
      21    -1     0     0   502   501  0.000000000E+00  0.000000000E+00  1.017561126E+03  1.017561126E+03  0.000000000E+00  0.00000E+00  9.000E+00
      21    -1     0     0   501   512  0.000000000E+00  0.000000000E+00 -1.348205096E+02  1.348205096E+02  0.000000000E+00  0.00000E+00  9.000E+00
      25     1     1     2     0     0  3.680813654E+01 -9.956716792E+01  1.823924690E+02  2.452763188E+02  1.250000000E+02  0.00000E+00  9.000E+00
      25     1     1     2     0     0  4.803110178E+01  1.244040523E+02  7.719819547E+02  7.933249608E+02  1.250000000E+02  0.00000E+00  9.000E+00
      21     1     1     2   502   512 -8.483923832E+01 -2.483688435E+01 -7.163380694E+01  1.137803563E+02  2.697398305E-06  0.00000E+00  9.000E+00
#rwgt            2          11   4.3818143243328040E-003           5       80288           0
</event>
<event>
      5   9999  3.19816E-02  5.71594E+02 -1.00000E+00  9.72285E-02
      21    -1     0     0   502   501  0.000000000E+00  0.000000000E+00  4.143876082E+02  4.143876082E+02  0.000000000E+00  0.00000E+00  9.000E+00
      21    -1     0     0   511   502  0.000000000E+00  0.000000000E+00 -1.564793470E+03  1.564793470E+03  0.000000000E+00  0.00000E+00  9.000E+00
      25     1     1     2     0     0 -2.906309928E+02 -1.933306917E+02 -4.286155271E+02  5.667269187E+02  1.250000000E+02  0.00000E+00  9.000E+00
      25     1     1     2     0     0  5.147880358E+02 -3.324761970E+02 -2.587767520E+02  6.768585899E+02  1.250000000E+02  0.00000E+00  9.000E+00
      21     1     1     2   511   501 -2.241570430E+02  5.258068887E+02 -4.630135828E+02  7.355955696E+02  5.394796609E-06  0.00000E+00  9.000E+00
#rwgt            1           1   2.5481685695697528E-002           5       80308           0
</event>
<event>
      5   9999  3.19816E-02  4.16766E+01 -1.00000E+00  1.43743E-01
      21    -1     0     0   502   501  0.000000000E+00  0.000000000E+00  1.128921991E+02  1.128921991E+02  0.000000000E+00  0.00000E+00  9.000E+00
      21    -1     0     0   501   512  0.000000000E+00  0.000000000E+00 -4.832257982E+02  4.832257982E+02  0.000000000E+00  0.00000E+00  9.000E+00
      25     1     1     2     0     0 -6.267301346E+01  1.027965477E+01 -3.580056590E+02  3.844822880E+02  1.250000000E+02  0.00000E+00  9.000E+00
      25     1     1     2     0     0  8.055426911E+01  2.736608111E+01  2.784757027E+01  1.537477799E+02  1.250000000E+02  0.00000E+00  9.000E+00
      21     1     1     2   502   512 -1.788125565E+01 -3.764573587E+01 -4.017551036E+01  5.788792936E+01  9.536743164E-07  0.00000E+00  9.000E+00
#rwgt            1           1   2.9833734806776133E-002           5       80404           0
</event>
<event>
      5   9999  3.19816E-02  1.04050E+02 -1.00000E+00  1.23057E-01
      21    -1     0     0   502   501  0.000000000E+00  0.000000000E+00  1.020119661E+03  1.020119661E+03  0.000000000E+00  0.00000E+00  9.000E+00
      21    -1     0     0   511   502  0.000000000E+00  0.000000000E+00 -7.161625980E+02  7.161625980E+02  0.000000000E+00  0.00000E+00  9.000E+00
      25     1     1     2     0     0  1.469617172E+02 -3.531163381E+02  8.828816136E+02  9.702545224E+02  1.250000000E+02  0.00000E+00  9.000E+00
      25     1     1     2     0     0 -4.348706238E+01  3.640394740E+02 -3.860535547E+02  5.468804351E+02  1.250000000E+02  0.00000E+00  9.000E+00
      21     1     1     2   511   501 -1.034746548E+02 -1.092313588E+01 -1.928709955E+02  2.191473020E+02  2.697398305E-06  0.00000E+00  9.000E+00
#rwgt            2          11   3.9929019189970478E-003           5       80603           0
</event>
<event>
      5   9999  3.19816E-02  4.84528E+01 -1.00000E+00  1.39859E-01
      21    -1     0     0   502   501  0.000000000E+00  0.000000000E+00  1.233007383E+03  1.233007383E+03  0.000000000E+00  0.00000E+00  9.000E+00
       1    -1     0     0   501     0  0.000000000E+00  0.000000000E+00 -5.482268994E+02  5.482268994E+02  0.000000000E+00  0.00000E+00  9.000E+00
      25     1     1     2     0     0  2.560511527E+02 -8.051028657E+01 -4.665284161E+02  5.525557547E+02  1.250000000E+02  0.00000E+00  9.000E+00
      25     1     1     2     0     0 -2.927645686E+02  4.889073324E+01  1.131310409E+03  1.176260871E+03  1.250000000E+02  0.00000E+00  9.000E+00
       1     1     1     2   502     0  3.671341591E+01  3.161955333E+01  1.999849086E+01  5.241765635E+01  5.840038640E-07  0.00000E+00  9.000E+00
#rwgt            1           1   2.4433920218343928E-002           5       80623           0
</event>
<event>
      5   9999  3.19816E-02  2.79723E+01 -1.00000E+00  1.55181E-01
      21    -1     0     0   502   501  0.000000000E+00  0.000000000E+00  4.020555517E+01  4.020555517E+01  0.000000000E+00  0.00000E+00  9.000E+00
       2    -1     0     0   501     0  0.000000000E+00  0.000000000E+00 -1.317542175E+03  1.317542175E+03  0.000000000E+00  0.00000E+00  9.000E+00
      25     1     1     2     0     0  1.266353362E+02 -7.178130360E+01 -3.804574364E+02  4.261008388E+02  1.250000000E+02  0.00000E+00  9.000E+00
      25     1     1     2     0     0 -1.090885676E+02  4.999692275E+01 -4.253723315E+02  4.593110365E+02  1.250000000E+02  0.00000E+00  9.000E+00
       2     1     1     2   502     0 -1.754676858E+01  2.178438085E+01 -4.715068522E+02  4.723358551E+02  0.000000000E+00  0.00000E+00  9.000E+00
#rwgt            1           1   3.2940789378603834E-002           5       80714           0
</event>
<event>
      5   9999  3.19816E-02  4.74019E+02 -1.00000E+00  9.95149E-02
      21    -1     0     0   502   501  0.000000000E+00  0.000000000E+00  2.357912439E+02  2.357912439E+02  0.000000000E+00  0.00000E+00  9.000E+00
       2    -1     0     0   501     0  0.000000000E+00  0.000000000E+00 -3.426111464E+03  3.426111464E+03  0.000000000E+00  0.00000E+00  9.000E+00
      25     1     1     2     0     0  2.356153579E+02 -3.575833404E+02 -1.595672817E+02  4.737796530E+02  1.250000000E+02  0.00000E+00  9.000E+00
      25     1     1     2     0     0  2.357265187E+02  3.072757586E+02 -2.147423921E+03  2.185644042E+03  1.250000000E+02  0.00000E+00  9.000E+00
       2     1     1     2   502     0 -4.713418766E+02  5.030758184E+01 -8.833290172E+02  1.002479012E+03  1.078959322E-05  0.00000E+00  9.000E+00
#rwgt            2          13   1.3367194029329603E-003           5       80892           0
</event>
<event>
      5   9999  3.19816E-02  7.05383E+01 -1.00000E+00  1.31052E-01
       2    -1     0     0   502     0  0.000000000E+00  0.000000000E+00  1.121687346E+03  1.121687346E+03  0.000000000E+00  0.00000E+00  9.000E+00
      21    -1     0     0   501   502  0.000000000E+00  0.000000000E+00 -1.283797037E+02  1.283797037E+02  0.000000000E+00  0.00000E+00  9.000E+00
      25     1     1     2     0     0 -1.062053190E+02  1.114380316E+02 -2.879304409E+01  2.003797496E+02  1.250000000E+02  0.00000E+00  9.000E+00
      25     1     1     2     0     0  1.029975922E+02 -4.097266088E+01  6.631536211E+02  6.838749799E+02  1.250000000E+02  0.00000E+00  9.000E+00
       2     1     1     2   501     0  3.207726734E+00 -7.046537073E+01  3.589470649E+02  3.658123199E+02  5.394796609E-06  0.00000E+00  9.000E+00
#rwgt            1           1   3.1490035451092330E-002           5       80911           0
</event>
<event>
      5   9999  3.19816E-02  1.42989E+02 -1.00000E+00  1.17224E-01
      21    -1     0     0   502   501  0.000000000E+00  0.000000000E+00  3.031381140E+02  3.031381140E+02  0.000000000E+00  0.00000E+00  9.000E+00
      21    -1     0     0   511   502  0.000000000E+00  0.000000000E+00 -9.414001206E+02  9.414001206E+02  0.000000000E+00  0.00000E+00  9.000E+00
      25     1     1     2     0     0  1.283522157E+02 -2.581980510E+02  2.355904826E+01  3.151516359E+02  1.250000000E+02  0.00000E+00  9.000E+00
      25     1     1     2     0     0 -1.495784299E+02  3.996027295E+02 -2.895135150E+02  5.305649098E+02  1.250000000E+02  0.00000E+00  9.000E+00
      21     1     1     2   511   501  2.122621425E+01 -1.414046785E+02 -3.723075399E+02  3.988216889E+02  5.394796609E-06  0.00000E+00  9.000E+00
#rwgt            1           1   2.5405653920811278E-002           5       80978           0
</event>
<event>
      5   9999  3.19816E-02  3.19207E+02 -1.00000E+00  1.04724E-01
      21    -1     0     0   502   501  0.000000000E+00  0.000000000E+00  4.757923582E+02  4.757923582E+02  0.000000000E+00  0.00000E+00  9.000E+00
      21    -1     0     0   501   512  0.000000000E+00  0.000000000E+00 -7.891836652E+02  7.891836652E+02  0.000000000E+00  0.00000E+00  9.000E+00
      25     1     1     2     0     0  1.994034431E+02 -2.495029506E+01  1.427714339E+02  2.763927146E+02  1.250000000E+02  0.00000E+00  9.000E+00
      25     1     1     2     0     0 -3.955622783E+02  2.767738199E+02 -9.694739288E+01  5.080325388E+02  1.250000000E+02  0.00000E+00  9.000E+00
      21     1     1     2   502   512  1.961588353E+02 -2.518235249E+02 -3.592153480E+02  4.805507701E+02  5.394796609E-06  0.00000E+00  9.000E+00
#rwgt            2          11   3.0569078261524483E-003           5       81116           0
</event>
<event>
      5   9999  3.19816E-02  5.90671E+01 -1.00000E+00  1.35068E-01
      21    -1     0     0   511   501  0.000000000E+00  0.000000000E+00  3.596200148E+02  3.596200148E+02  0.000000000E+00  0.00000E+00  9.000E+00
      21    -1     0     0   501   502  0.000000000E+00  0.000000000E+00 -8.324528825E+02  8.324528825E+02  0.000000000E+00  0.00000E+00  9.000E+00
      25     1     1     2     0     0 -3.700513802E+02 -2.224962372E+02 -1.826661294E+02  4.852159461E+02  1.250000000E+02  0.00000E+00  9.000E+00
      25     1     1     2     0     0  4.008344469E+02  1.720846750E+02 -3.850290635E+02  5.951081993E+02  1.250000000E+02  0.00000E+00  9.000E+00
      21     1     1     2   511   502 -3.078306669E+01  5.041156212E+01  9.486232516E+01  1.117487518E+02  1.348699152E-06  0.00000E+00  9.000E+00
#rwgt            1           1   3.1809108864680136E-002           5       81136           0
</event>
<event>
      5   9999  3.19816E-02  1.34150E+02 -1.00000E+00  1.18349E-01
      21    -1     0     0   502   501  0.000000000E+00  0.000000000E+00  7.867203519E+02  7.867203519E+02  0.000000000E+00  0.00000E+00  9.000E+00
      21    -1     0     0   501   512  0.000000000E+00  0.000000000E+00 -3.759104155E+02  3.759104155E+02  0.000000000E+00  0.00000E+00  9.000E+00
      25     1     1     2     0     0 -2.631891430E+02  3.002923670E+02  8.567758626E+01  4.270944620E+02  1.250000000E+02  0.00000E+00  9.000E+00
      25     1     1     2     0     0  2.589175826E+02 -4.343740362E+02  2.927489471E+02  5.975333162E+02  1.250000000E+02  0.00000E+00  9.000E+00
      21     1     1     2   502   512  4.271560378E+00  1.340816692E+02  3.238340313E+01  1.380029893E+02  2.780414531E-06  0.00000E+00  9.000E+00
#rwgt            1           1   3.0055266585338782E-002           5       81184           0
</event>
<event>
      5   9999  3.19816E-02  1.24837E+02 -1.00000E+00  1.19644E-01
       2    -1     0     0   502     0  0.000000000E+00  0.000000000E+00  2.974239731E+03  2.974239731E+03  0.000000000E+00  0.00000E+00  9.000E+00
      21    -1     0     0   501   502  0.000000000E+00  0.000000000E+00 -2.819609038E+01  2.819609038E+01  0.000000000E+00  0.00000E+00  9.000E+00
      25     1     1     2     0     0  9.315566274E+01  9.129167256E+01  3.849202667E+02  4.252067247E+02  1.250000000E+02  0.00000E+00  9.000E+00
      25     1     1     2     0     0 -1.443341647E+01  5.595675401E+00  1.916159894E+03  1.920295127E+03  1.250000000E+02  0.00000E+00  9.000E+00
       2     1     1     2   501     0 -7.872224627E+01 -9.688734796E+01  6.449634802E+02  6.569339701E+02  0.000000000E+00  0.00000E+00  9.000E+00
#rwgt            1           1   6.6323553479245678E-002           5       81232           0
</event>
<event>
      5   9999  3.19816E-02  6.75527E+00 -1.00000E+00  2.17761E-01
      21    -1     0     0   502   501  0.000000000E+00  0.000000000E+00  9.038176095E+02  9.038176095E+02  0.000000000E+00  0.00000E+00  9.000E+00
      21    -1     0     0   501   511  0.000000000E+00  0.000000000E+00 -2.085530497E+02  2.085530497E+02  0.000000000E+00  0.00000E+00  9.000E+00
      25     1     1     2     0     0  2.162268028E+02  4.728894500E+01  3.365187027E+01  2.564131879E+02  1.250000000E+02  0.00000E+00  9.000E+00
      25     1     1     2     0     0 -2.141649884E+02 -5.372187845E+01  7.374199097E+02  7.798498610E+02  1.250000000E+02  0.00000E+00  9.000E+00
      21     1     1     2   502   511 -2.061814380E+00  6.432933453E+00 -7.580722017E+01  7.610761027E+01  1.651812370E-06  0.00000E+00  9.000E+00
#rwgt            1           1   2.7612936222654448E-002           5       81297           0
</event>
<event>
      5   9999  3.19816E-02  1.43545E+02 -1.00000E+00  1.17156E-01
      21    -1     0     0   502   512  0.000000000E+00  0.000000000E+00  1.060706257E+02  1.060706257E+02  0.000000000E+00  0.00000E+00  9.000E+00
      21    -1     0     0   501   502  0.000000000E+00  0.000000000E+00 -1.078461882E+03  1.078461882E+03  0.000000000E+00  0.00000E+00  9.000E+00
      25     1     1     2     0     0  1.379913778E+02 -5.605395806E+01 -3.184902574E+02  3.731550758E+02  1.250000000E+02  0.00000E+00  9.000E+00
      25     1     1     2     0     0 -3.856739326E+00  1.071711272E+02 -6.470363305E+02  6.676687337E+02  1.250000000E+02  0.00000E+00  9.000E+00
      21     1     1     2   501   512 -1.341346385E+02 -5.111716916E+01 -6.864668182E+00  1.437086980E+02  4.086288572E-06  0.00000E+00  9.000E+00
#rwgt            1           1   2.6832879124434619E-002           5       81559           0
</event>
<event>
      5   9999  3.19816E-02  1.40555E+01 -1.00000E+00  1.80087E-01
      21    -1     0     0   502   501  0.000000000E+00  0.000000000E+00  3.504026609E+02  3.504026609E+02  0.000000000E+00  0.00000E+00  9.000E+00
      21    -1     0     0   501   511  0.000000000E+00  0.000000000E+00 -1.553934059E+03  1.553934059E+03  0.000000000E+00  0.00000E+00  9.000E+00
      25     1     1     2     0     0  3.659821824E+02 -1.781958249E+02  1.684057460E+02  4.579106956E+02  1.250000000E+02  0.00000E+00  9.000E+00
      25     1     1     2     0     0 -3.654252334E+02  1.641514109E+02 -1.152249285E+03  1.226288996E+03  1.250000000E+02  0.00000E+00  9.000E+00
      21     1     1     2   502   511 -5.569489997E-01  1.404441407E+01 -2.196878585E+02  2.201370276E+02  0.000000000E+00  0.00000E+00  9.000E+00
#rwgt            1           1   2.8813677808930675E-002           5       81613           0
</event>
<event>
      5   9999  3.19816E-02  1.39554E+01 -1.00000E+00  1.80389E-01
      21    -1     0     0   502   501  0.000000000E+00  0.000000000E+00  8.799071280E+02  8.799071280E+02  0.000000000E+00  0.00000E+00  9.000E+00
      21    -1     0     0   501   512  0.000000000E+00  0.000000000E+00 -1.393400205E+02  1.393400205E+02  0.000000000E+00  0.00000E+00  9.000E+00
      25     1     1     2     0     0 -1.844823385E+02 -2.216867164E+02  4.869779023E+02  5.796129836E+02  1.250000000E+02  0.00000E+00  9.000E+00
      25     1     1     2     0     0  1.942438146E+02  2.316600017E+02  2.654725672E+02  4.213047588E+02  1.250000000E+02  0.00000E+00  9.000E+00
      21     1     1     2   502   512 -9.761476034E+00 -9.973285297E+00 -1.188336197E+01  1.832940604E+01  4.129530925E-07  0.00000E+00  9.000E+00
#rwgt            1           1   2.9987653981889482E-002           5       81934           0
</event>
<event>
      5   9999  3.19816E-02  1.46868E+01 -1.00000E+00  1.78251E-01
      21    -1     0     0   511   501  0.000000000E+00  0.000000000E+00  2.627462836E+02  2.627462836E+02  0.000000000E+00  0.00000E+00  9.000E+00
      21    -1     0     0   501   502  0.000000000E+00  0.000000000E+00 -2.308800729E+02  2.308800729E+02  0.000000000E+00  0.00000E+00  9.000E+00
      25     1     1     2     0     0 -6.215649535E+01 -1.134693510E+02  1.581459171E+02  2.395284004E+02  1.250000000E+02  0.00000E+00  9.000E+00
      25     1     1     2     0     0  6.473175820E+01  9.901005648E+01 -1.486016117E+02  2.273777272E+02  1.250000000E+02  0.00000E+00  9.000E+00
      21     1     1     2   511   502 -2.575262853E+00  1.445929450E+01  2.232190529E+01  2.672022889E+01  2.384185791E-07  0.00000E+00  9.000E+00
#rwgt            1           1   3.5930010083915900E-002           5       82101           0
</event>
<event>
      5   9999  3.19816E-02  1.72154E+01 -1.00000E+00  1.71927E-01
      21    -1     0     0   502   501  0.000000000E+00  0.000000000E+00  2.170274122E+02  2.170274122E+02  0.000000000E+00  0.00000E+00  9.000E+00
      21    -1     0     0   501   512  0.000000000E+00  0.000000000E+00 -2.763242175E+02  2.763242175E+02  0.000000000E+00  0.00000E+00  9.000E+00
      25     1     1     2     0     0 -1.617056773E+02  2.741147170E+00  8.640923445E+01  2.219184439E+02  1.250000000E+02  0.00000E+00  9.000E+00
      25     1     1     2     0     0  1.518621585E+02  1.138237189E+01 -9.665985999E+01  2.194534167E+02  1.250000000E+02  0.00000E+00  9.000E+00
      21     1     1     2   502   512  9.843518740E+00 -1.412351906E+01 -4.904617975E+01  5.197976914E+01  0.000000000E+00  0.00000E+00  9.000E+00
#rwgt            1           1   2.8604506132992043E-002           5       82265           0
</event>
<event>
      5   9999  3.26946E-02  6.07772E+01 -1.00000E+00  1.34405E-01
      21    -1     0     0   502   501  0.000000000E+00  0.000000000E+00  2.406950868E+02  2.406950868E+02  0.000000000E+00  0.00000E+00  9.000E+00
      21    -1     0     0   511   502  0.000000000E+00  0.000000000E+00 -4.706104733E+02  4.706104733E+02  0.000000000E+00  0.00000E+00  9.000E+00
      25     1     1     2     0     0  8.068444689E+01 -7.957716835E+01  1.113654688E+01  1.690902965E+02  1.250000000E+02  0.00000E+00  9.000E+00
      25     1     1     2     0     0 -3.159589784E+01  4.374163287E+01  1.167108944E+02  1.793266965E+02  1.250000000E+02  0.00000E+00  9.000E+00
      21     1     1     2   511   501 -4.908854905E+01  3.583553548E+01 -3.577628277E+02  3.628885671E+02  3.814697266E-06  0.00000E+00  9.000E+00
#rwgt            1           1   8.5928430878149803E-002           5       82387           0
</event>
<event>
      5   9999  3.19816E-02  3.94679E+02 -1.00000E+00  1.01861E-01
      21    -1     0     0   502   501  0.000000000E+00  0.000000000E+00  2.446985046E+02  2.446985046E+02  0.000000000E+00  0.00000E+00  9.000E+00
      21    -1     0     0   512   502  0.000000000E+00  0.000000000E+00 -1.310934114E+03  1.310934114E+03  0.000000000E+00  0.00000E+00  9.000E+00
      25     1     1     2     0     0  2.346252861E+01 -5.979056618E+01  8.328016552E+01  1.633584648E+02  1.250000000E+02  0.00000E+00  9.000E+00
      25     1     1     2     0     0  3.634436051E+02 -1.815094551E+01 -4.811679311E+02  6.160911368E+02  1.250000000E+02  0.00000E+00  9.000E+00
      21     1     1     2   512   501 -3.869061337E+02  7.794151169E+01 -6.683478433E+02  7.761830165E+02  7.629394531E-06  0.00000E+00  9.000E+00
#rwgt            2          11   2.3078901768482812E-003           5       82456           0
</event>
<event>
      5   9999  3.19816E-02  4.00261E+01 -1.00000E+00  1.44823E-01
      21    -1     0     0   502   501  0.000000000E+00  0.000000000E+00  1.082615981E+03  1.082615981E+03  0.000000000E+00  0.00000E+00  9.000E+00
      21    -1     0     0   511   502  0.000000000E+00  0.000000000E+00 -4.065316428E+02  4.065316428E+02  0.000000000E+00  0.00000E+00  9.000E+00
      25     1     1     2     0     0 -1.455101478E+02  5.185391507E+02 -1.599179482E+01  5.531155317E+02  1.250000000E+02  0.00000E+00  9.000E+00
      25     1     1     2     0     0  1.295677569E+02 -5.552532942E+02  6.753659193E+02  8.926579128E+02  1.250000000E+02  0.00000E+00  9.000E+00
      21     1     1     2   511   501  1.594239094E+01  3.671414349E+01  1.671021339E+01  4.337417887E+01  5.840038640E-07  0.00000E+00  9.000E+00
#rwgt            1           1   3.4657669548251134E-002           5       82476           0
</event>
<event>
      5   9999  3.19816E-02  1.41923E+02 -1.00000E+00  1.17354E-01
      21    -1     0     0   502   501  0.000000000E+00  0.000000000E+00  6.316267802E+02  6.316267802E+02  0.000000000E+00  0.00000E+00  9.000E+00
      21    -1     0     0   501   512  0.000000000E+00  0.000000000E+00 -6.513164451E+02  6.513164451E+02  0.000000000E+00  0.00000E+00  9.000E+00
      25     1     1     2     0     0  4.644972660E+02  5.341791203E+01  6.658751471E+01  4.885387196E+02  1.250000000E+02  0.00000E+00  9.000E+00
      25     1     1     2     0     0 -5.195950995E+02 -1.842087121E+02  8.536694024E+01  5.716856055E+02  1.250000000E+02  0.00000E+00  9.000E+00
      21     1     1     2   502   512  5.509783346E+01  1.307908001E+02 -1.716441199E+02  2.227189002E+02  2.697398305E-06  0.00000E+00  9.000E+00
#rwgt            1           1   2.8888144897627276E-002           5       82676           0
</event>
<event>
      5   9999  3.19816E-02  2.22126E+01 -1.00000E+00  1.62695E-01
      -2    -1     0     0     0   501  0.000000000E+00  0.000000000E+00  4.559246376E+01  4.559246376E+01  0.000000000E+00  0.00000E+00  9.000E+00
      21    -1     0     0   501   502  0.000000000E+00  0.000000000E+00 -9.790808093E+02  9.790808093E+02  0.000000000E+00  0.00000E+00  9.000E+00
      25     1     1     2     0     0 -5.767382506E+01  5.907838150E+01 -3.210350659E+02  3.542669034E+02  1.250000000E+02  0.00000E+00  9.000E+00
      25     1     1     2     0     0  4.848504465E+01 -3.885552886E+01 -6.279785322E+02  6.433059837E+02  1.250000000E+02  0.00000E+00  9.000E+00
      -2     1     1     2     0   502  9.188780413E+00 -2.022285263E+01  1.552525263E+01  2.710038604E+01  8.760057960E-07  0.00000E+00  9.000E+00
#rwgt            1           1   6.4212801309639203E-002           5       82797           0
</event>
<event>
      5   9999  3.19816E-02  4.82305E+01 -1.00000E+00  1.39974E-01
      21    -1     0     0   511   501  0.000000000E+00  0.000000000E+00  1.190839269E+03  1.190839269E+03  0.000000000E+00  0.00000E+00  9.000E+00
      21    -1     0     0   501   502  0.000000000E+00  0.000000000E+00 -2.014130143E+02  2.014130143E+02  0.000000000E+00  0.00000E+00  9.000E+00
      25     1     1     2     0     0  4.087051292E+02  1.509474956E+02  5.182182762E+02  6.884767323E+02  1.250000000E+02  0.00000E+00  9.000E+00
      25     1     1     2     0     0 -4.112248567E+02 -1.991121169E+02  4.155274999E+02  6.301108006E+02  1.250000000E+02  0.00000E+00  9.000E+00
      21     1     1     2   511   502  2.519727493E+00  4.816462133E+01  5.568047850E+01  7.366475046E+01  9.536743164E-07  0.00000E+00  9.000E+00
#rwgt            1           1   3.1519749821643267E-002           5       82870           0
</event>
<event>
      5   9999  3.19816E-02  2.38666E+02 -1.00000E+00  1.08923E-01
      21    -1     0     0   502   501  0.000000000E+00  0.000000000E+00  9.331660979E+02  9.331660979E+02  0.000000000E+00  0.00000E+00  9.000E+00
      21    -1     0     0   501   512  0.000000000E+00  0.000000000E+00 -1.024734605E+03  1.024734605E+03  0.000000000E+00  0.00000E+00  9.000E+00
      25     1     1     2     0     0  7.280540581E+02  6.194444438E+01  5.131118142E+02  9.015589607E+02  1.250000000E+02  0.00000E+00  9.000E+00
      25     1     1     2     0     0 -4.903973266E+02 -4.001814175E+01 -1.284535968E+02  5.236566778E+02  1.250000000E+02  0.00000E+00  9.000E+00
      21     1     1     2   502   512 -2.376567315E+02 -2.192630263E+01 -4.762267248E+02  5.326850647E+02  5.394796609E-06  0.00000E+00  9.000E+00
#rwgt            2          11   3.4070509542619577E-003           5       83037           0
</event>
<event>
      5   9999  3.19816E-02  1.02635E+01 -1.00000E+00  1.94461E-01
      21    -1     0     0   502   501  0.000000000E+00  0.000000000E+00  6.634181496E+01  6.634181496E+01  0.000000000E+00  0.00000E+00  9.000E+00
      21    -1     0     0   511   502  0.000000000E+00  0.000000000E+00 -1.418317843E+03  1.418317843E+03  0.000000000E+00  0.00000E+00  9.000E+00
      25     1     1     2     0     0 -1.304070546E+02  6.594418165E+01 -8.534800370E+02  8.748758818E+02  1.250000000E+02  0.00000E+00  9.000E+00
      25     1     1     2     0     0  1.377526923E+02 -7.311217589E+01 -1.241260702E+02  2.352731940E+02  1.250000000E+02  0.00000E+00  9.000E+00
      21     1     1     2   511   501 -7.345637772E+00  7.167994242E+00 -3.743699209E+02  3.745105823E+02  5.394796609E-06  0.00000E+00  9.000E+00
#rwgt            1           1   3.2313595198932989E-002           5       83057           0
</event>
<event>
      5   9999  3.19816E-02  2.12746E+02 -1.00000E+00  1.10680E-01
      21    -1     0     0   502   501  0.000000000E+00  0.000000000E+00  3.245906230E+02  3.245906230E+02  0.000000000E+00  0.00000E+00  9.000E+00
       2    -1     0     0   501     0  0.000000000E+00  0.000000000E+00 -6.864809456E+02  6.864809456E+02  0.000000000E+00  0.00000E+00  9.000E+00
      25     1     1     2     0     0 -1.951484186E+02 -1.382090199E+02 -8.136531172E+01  2.818331996E+02  1.250000000E+02  0.00000E+00  9.000E+00
      25     1     1     2     0     0  2.190375787E+02 -7.319133083E+01  1.098536208E+02  2.846528584E+02  1.250000000E+02  0.00000E+00  9.000E+00
       2     1     1     2   502     0 -2.388916010E+01  2.114003507E+02 -3.903786316E+02  4.445855107E+02  5.394796609E-06  0.00000E+00  9.000E+00
#rwgt            1           1   2.7776503100385739E-002           5       83256           0
</event>
<event>
      5   9999  3.19816E-02  7.74360E+01 -1.00000E+00  1.29038E-01
      21    -1     0     0   502   501  0.000000000E+00  0.000000000E+00  1.296774021E+03  1.296774021E+03  0.000000000E+00  0.00000E+00  9.000E+00
      -3    -1     0     0     0   502  0.000000000E+00  0.000000000E+00 -8.463587582E+02  8.463587582E+02  0.000000000E+00  0.00000E+00  9.000E+00
      25     1     1     2     0     0 -9.621823818E+01 -3.757257343E+02  1.146451296E+03  1.216718271E+03  1.250000000E+02  0.00000E+00  9.000E+00
      25     1     1     2     0     0  3.975285135E+01  4.287163009E+02 -3.416673762E+02  5.636839113E+02  1.250000000E+02  0.00000E+00  9.000E+00
      -3     1     1     2     0   501  5.646538684E+01 -5.299056662E+01 -3.543686576E+02  3.627305963E+02  3.814697266E-06  0.00000E+00  9.000E+00
#rwgt            1           1   3.0159700618259282E-002           5       83306           0
</event>
<event>
      5   9999  3.19816E-02  6.97675E+01 -1.00000E+00  1.31294E-01
      21    -1     0     0   502   501  0.000000000E+00  0.000000000E+00  2.075258796E+02  2.075258796E+02  0.000000000E+00  0.00000E+00  9.000E+00
      21    -1     0     0   511   502  0.000000000E+00  0.000000000E+00 -3.270953167E+02  3.270953167E+02  0.000000000E+00  0.00000E+00  9.000E+00
      25     1     1     2     0     0 -1.004274570E+02 -1.719501612E+02 -9.639934140E+01  2.541069953E+02  1.250000000E+02  0.00000E+00  9.000E+00
      25     1     1     2     0     0  3.173330631E+01  1.597591185E+02  4.739100542E+00  2.053714628E+02  1.250000000E+02  0.00000E+00  9.000E+00
      21     1     1     2   511   501  6.869415066E+01  1.219104267E+01 -2.790919623E+01  7.514273811E+01  1.168007728E-06  0.00000E+00  9.000E+00
#rwgt            1           1   3.3413062498687890E-002           5       83396           0
</event>
<event>
      5   9999  3.19816E-02  4.39365E+01 -1.00000E+00  1.42356E-01
      21    -1     0     0   502   501  0.000000000E+00  0.000000000E+00  1.422511720E+03  1.422511720E+03  0.000000000E+00  0.00000E+00  9.000E+00
      21    -1     0     0   501   512  0.000000000E+00  0.000000000E+00 -9.790807360E+01  9.790807360E+01  0.000000000E+00  0.00000E+00  9.000E+00
      25     1     1     2     0     0 -1.592060320E+01 -1.986582408E+01  1.113354948E+02  1.693183657E+02  1.250000000E+02  0.00000E+00  9.000E+00
      25     1     1     2     0     0 -1.425119349E+01 -1.207280705E+01  1.271716124E+03  1.277981123E+03  1.250000000E+02  0.00000E+00  9.000E+00
      21     1     1     2   502   512  3.017179668E+01  3.193863112E+01 -5.844797286E+01  7.312030501E+01  2.023048729E-06  0.00000E+00  9.000E+00
#rwgt            1           1   4.2113057518552266E-002           5       83496           0
</event>
<event>
      5   9999  3.19816E-02  4.98287E+01 -1.00000E+00  1.39161E-01
       2    -1     0     0   502     0  0.000000000E+00  0.000000000E+00  7.276949476E+01  7.276949476E+01  0.000000000E+00  0.00000E+00  9.000E+00
      21    -1     0     0   501   502  0.000000000E+00  0.000000000E+00 -1.462955907E+03  1.462955907E+03  0.000000000E+00  0.00000E+00  9.000E+00
      25     1     1     2     0     0  1.593781601E+02  2.011618040E+02 -4.828495808E+02  5.609244040E+02  1.250000000E+02  0.00000E+00  9.000E+00
      25     1     1     2     0     0 -1.964041671E+02 -1.678155954E+02 -8.578175414E+02  9.045510518E+02  1.250000000E+02  0.00000E+00  9.000E+00
       2     1     1     2   501     0  3.702600703E+01 -3.334620858E+01 -4.951928993E+01  7.024994590E+01  6.743495762E-07  0.00000E+00  9.000E+00
#rwgt            1           1   3.9372835451617273E-002           5       83650           0
</event>
<event>
      5   9999  3.19816E-02  5.31212E+01 -1.00000E+00  1.37591E-01
      21    -1     0     0   511   501  0.000000000E+00  0.000000000E+00  1.955802297E+02  1.955802297E+02  0.000000000E+00  0.00000E+00  9.000E+00
      21    -1     0     0   501   502  0.000000000E+00  0.000000000E+00 -1.269614223E+03  1.269614223E+03  0.000000000E+00  0.00000E+00  9.000E+00
      25     1     1     2     0     0  8.427791267E+01 -3.609770869E+02 -1.608381050E+02  4.229670435E+02  1.250000000E+02  0.00000E+00  9.000E+00
      25     1     1     2     0     0 -8.278105855E+01  4.140772347E+02 -8.643078423E+02  9.700338686E+02  1.250000000E+02  0.00000E+00  9.000E+00
      21     1     1     2   511   502 -1.496854116E+00 -5.310014779E+01 -4.888804582E+01  7.219354051E+01  1.651812370E-06  0.00000E+00  9.000E+00
#rwgt            1           1   2.0352273960047865E-002           5       83723           0
</event>
<event>
      5   9999  3.19816E-02  1.95881E+02 -1.00000E+00  1.11978E-01
      21    -1     0     0   512   501  0.000000000E+00  0.000000000E+00  4.416595487E+02  4.416595487E+02  0.000000000E+00  0.00000E+00  9.000E+00
      21    -1     0     0   501   502  0.000000000E+00  0.000000000E+00 -2.339351931E+02  2.339351931E+02  0.000000000E+00  0.00000E+00  9.000E+00
      25     1     1     2     0     0 -8.633164080E+01 -6.285038185E+01  9.994120046E+01  1.923968977E+02  1.250000000E+02  0.00000E+00  9.000E+00
      25     1     1     2     0     0 -2.422340968E+00  2.374706930E+02  2.173618866E+01  2.692501805E+02  1.250000000E+02  0.00000E+00  9.000E+00
      21     1     1     2   512   502  8.875398177E+01 -1.746203112E+02  8.604696641E+01  2.139476636E+02  4.473129043E-06  0.00000E+00  9.000E+00
#rwgt            1           1   2.9560558157402991E-002           5       83855           0
</event>
<event>
      5   9999  3.19816E-02  3.81529E+01 -1.00000E+00  1.46125E-01
      21    -1     0     0   502   501  0.000000000E+00  0.000000000E+00  2.439084815E+02  2.439084815E+02  0.000000000E+00  0.00000E+00  9.000E+00
       2    -1     0     0   501     0  0.000000000E+00  0.000000000E+00 -1.785376792E+03  1.785376792E+03  0.000000000E+00  0.00000E+00  9.000E+00
      25     1     1     2     0     0 -4.068773286E+01 -1.712655005E+02 -6.523776647E+02  6.871746362E+02  1.250000000E+02  0.00000E+00  9.000E+00
      25     1     1     2     0     0  7.059696630E+01  1.475784122E+02  1.793148996E+02  2.730240880E+02  1.250000000E+02  0.00000E+00  9.000E+00
       2     1     1     2   502     0 -2.990923344E+01  2.368708828E+01 -1.068405545E+03  1.069086549E+03  0.000000000E+00  0.00000E+00  9.000E+00
#rwgt            1           1   3.0407177255422954E-002           5       83902           0
</event>
<event>
      5   9999  3.19816E-02  1.85134E+02 -1.00000E+00  1.12883E-01
      21    -1     0     0   502   501  0.000000000E+00  0.000000000E+00  1.194127539E+03  1.194127539E+03  0.000000000E+00  0.00000E+00  9.000E+00
      21    -1     0     0   501   511  0.000000000E+00  0.000000000E+00 -1.359149565E+03  1.359149565E+03  0.000000000E+00  0.00000E+00  9.000E+00
      25     1     1     2     0     0  1.025843331E+03 -3.889677335E+02 -1.479364841E+02  1.114073894E+03  1.250000000E+02  0.00000E+00  9.000E+00
      25     1     1     2     0     0 -1.037282900E+03  2.041876543E+02  2.693929303E+02  1.098110178E+03  1.250000000E+02  0.00000E+00  9.000E+00
      21     1     1     2   502   511  1.143956851E+01  1.847800791E+02 -2.864784722E+02  3.410930319E+02  3.814697266E-06  0.00000E+00  9.000E+00
#rwgt            2          11   5.0835082916510146E-003           5       84029           0
</event>
<event>
      5   9999  3.19816E-02  3.71479E+01 -1.00000E+00  1.46861E-01
      21    -1     0     0   502   501  0.000000000E+00  0.000000000E+00  6.325496053E+02  6.325496053E+02  0.000000000E+00  0.00000E+00  9.000E+00
      21    -1     0     0   501   512  0.000000000E+00  0.000000000E+00 -2.956485974E+02  2.956485974E+02  0.000000000E+00  0.00000E+00  9.000E+00
      25     1     1     2     0     0 -1.388616843E+02  3.807839606E+02  2.220859852E+02  4.787757062E+02  1.250000000E+02  0.00000E+00  9.000E+00
      25     1     1     2     0     0  1.491619254E+02 -3.450926080E+02  1.140179460E+02  4.122660307E+02  1.250000000E+02  0.00000E+00  9.000E+00
      21     1     1     2   502   512 -1.030024107E+01 -3.569135262E+01  7.970767803E-01  3.715646578E+01  3.936840538E-07  0.00000E+00  9.000E+00
#rwgt            1           1   2.8947579543599278E-002           5       84049           0
</event>
<event>
      5   9999  3.19816E-02  6.91618E+01 -1.00000E+00  1.31486E-01
      21    -1     0     0   511   501  0.000000000E+00  0.000000000E+00  1.625580993E+02  1.625580993E+02  0.000000000E+00  0.00000E+00  9.000E+00
      21    -1     0     0   501   502  0.000000000E+00  0.000000000E+00 -9.243985935E+02  9.243985935E+02  0.000000000E+00  0.00000E+00  9.000E+00
      25     1     1     2     0     0 -1.672208939E+02  1.883330325E+02 -2.269919461E+02  3.613620097E+02  1.250000000E+02  0.00000E+00  9.000E+00
      25     1     1     2     0     0  1.116402469E+02 -2.294930663E+02 -5.779964207E+02  6.440772272E+02  1.250000000E+02  0.00000E+00  9.000E+00
      21     1     1     2   511   502  5.558064697E+01  4.116003384E+01  4.314787257E+01  8.151745587E+01  6.743495762E-07  0.00000E+00  9.000E+00
#rwgt            1           1   2.8118576835507451E-002           5       84159           0
</event>
<event>
      5   9999  3.19816E-02  9.55691E+01 -1.00000E+00  1.24720E-01
      21    -1     0     0   502   501  0.000000000E+00  0.000000000E+00  1.433966485E+03  1.433966485E+03  0.000000000E+00  0.00000E+00  9.000E+00
      21    -1     0     0   512   502  0.000000000E+00  0.000000000E+00 -1.845327558E+02  1.845327558E+02  0.000000000E+00  0.00000E+00  9.000E+00
      25     1     1     2     0     0 -1.671351205E+02 -6.116440635E+01 -1.353878982E+01  2.179071636E+02  1.250000000E+02  0.00000E+00  9.000E+00
      25     1     1     2     0     0  7.689828248E+01  2.968787055E+01  1.292050193E+03  1.300697281E+03  1.250000000E+02  0.00000E+00  9.000E+00
      21     1     1     2   512   501  9.023683803E+01  3.147653580E+01 -2.907767371E+01  9.989479642E+01  2.105655877E-06  0.00000E+00  9.000E+00
#rwgt            1           1   2.6538121231081041E-002           5       84287           0
</event>
<event>
      5   9999  3.19816E-02  9.68207E+01 -1.00000E+00  1.24462E-01
      21    -1     0     0   502   501  0.000000000E+00  0.000000000E+00  9.494840572E+02  9.494840572E+02  0.000000000E+00  0.00000E+00  9.000E+00
      21    -1     0     0   511   502  0.000000000E+00  0.000000000E+00 -1.235845812E+03  1.235845812E+03  0.000000000E+00  0.00000E+00  9.000E+00
      25     1     1     2     0     0 -5.062283660E+02  6.435355312E+02 -1.041545455E+02  8.347923741E+02  1.250000000E+02  0.00000E+00  9.000E+00
      25     1     1     2     0     0  5.413443077E+02 -5.533074094E+02  3.142427038E+02  8.447344113E+02  1.250000000E+02  0.00000E+00  9.000E+00
      21     1     1     2   511   501 -3.511594171E+01 -9.022812175E+01 -4.964499133E+02  5.058030840E+02  5.394796609E-06  0.00000E+00  9.000E+00
#rwgt            1           1   1.9504711410470121E-002           5       84403           0
</event>
<event>
      5   9999  3.19816E-02  1.94813E+02 -1.00000E+00  1.12065E-01
       2    -1     0     0   502     0  0.000000000E+00  0.000000000E+00  1.430794899E+03  1.430794899E+03  0.000000000E+00  0.00000E+00  9.000E+00
      21    -1     0     0   501   502  0.000000000E+00  0.000000000E+00 -1.691651959E+02  1.691651959E+02  0.000000000E+00  0.00000E+00  9.000E+00
      25     1     1     2     0     0 -2.399650219E+01 -4.234895010E+02  3.217515180E+02  5.468713093E+02  1.250000000E+02  0.00000E+00  9.000E+00
      25     1     1     2     0     0  7.731639389E+01  2.361157771E+02  5.037507621E+02  5.754288099E+02  1.250000000E+02  0.00000E+00  9.000E+00
       2     1     1     2   501     0 -5.331989170E+01  1.873737240E+02  4.361274230E+02  4.776599756E+02  5.394796609E-06  0.00000E+00  9.000E+00
#rwgt            1           1   2.7233659055539896E-002           5       84504           0
</event>
<event>
      5   9999  3.19816E-02  2.40465E+01 -1.00000E+00  1.60026E-01
      21    -1     0     0   511   501  0.000000000E+00  0.000000000E+00  1.026332013E+03  1.026332013E+03  0.000000000E+00  0.00000E+00  9.000E+00
      21    -1     0     0   501   502  0.000000000E+00  0.000000000E+00 -1.423946745E+02  1.423946745E+02  0.000000000E+00  0.00000E+00  9.000E+00
      25     1     1     2     0     0  8.110786233E+01 -3.209977678E+02  2.565937599E+02  4.371308841E+02  1.250000000E+02  0.00000E+00  9.000E+00
      25     1     1     2     0     0 -5.727960518E+01  3.242302767E+02  5.816697347E+02  6.799786069E+02  1.250000000E+02  0.00000E+00  9.000E+00
      21     1     1     2   511   502 -2.382825715E+01 -3.232508981E+00  4.567384348E+01  5.161719608E+01  0.000000000E+00  0.00000E+00  9.000E+00
#rwgt            1           1   2.8742204974915878E-002           5       84571           0
</event>
<event>
      5   9999  3.19816E-02  2.88835E+01 -1.00000E+00  1.54193E-01
      21    -1     0     0   502   501  0.000000000E+00  0.000000000E+00  1.583547170E+02  1.583547170E+02  0.000000000E+00  0.00000E+00  9.000E+00
      21    -1     0     0   501   512  0.000000000E+00  0.000000000E+00 -5.850376260E+02  5.850376260E+02  0.000000000E+00  0.00000E+00  9.000E+00
      25     1     1     2     0     0 -3.717272575E+01 -2.525593213E+02 -1.998580500E+02  3.474712398E+02  1.250000000E+02  0.00000E+00  9.000E+00
      25     1     1     2     0     0  6.544133529E+01  2.584876132E+02 -1.964158993E+02  3.539811013E+02  1.250000000E+02  0.00000E+00  9.000E+00
      21     1     1     2   502   512 -2.826860954E+01 -5.928291896E+00 -3.040895971E+01  4.194000192E+01  4.768371582E-07  0.00000E+00  9.000E+00
#rwgt            2          11   2.3906990620145181E-003           5       84770           0
</event>
<event>
      5   9999  3.19816E-02  3.67778E+01 -1.00000E+00  1.47139E-01
      -2    -1     0     0     0   501  0.000000000E+00  0.000000000E+00  4.585091992E+02  4.585091992E+02  0.000000000E+00  0.00000E+00  9.000E+00
      21    -1     0     0   501   502  0.000000000E+00  0.000000000E+00 -3.320799828E+02  3.320799828E+02  0.000000000E+00  0.00000E+00  9.000E+00
      25     1     1     2     0     0  2.477871146E+01  4.449287494E+01 -2.231012606E+02  2.607542386E+02  1.250000000E+02  0.00000E+00  9.000E+00
      25     1     1     2     0     0 -6.152559360E+01 -4.298464961E+01 -2.972473009E+01  1.488006665E+02  1.250000000E+02  0.00000E+00  9.000E+00
      -2     1     1     2     0   502  3.674688214E+01 -1.508225335E+00  3.792552071E+02  3.810342769E+02  5.394796609E-06  0.00000E+00  9.000E+00
#rwgt            1           1   2.3494545830746290E-002           5       84790           0
</event>
<event>
      5   9999  3.19816E-02  4.66119E+01 -1.00000E+00  1.40837E-01
      21    -1     0     0   502   501  0.000000000E+00  0.000000000E+00  1.647064313E+03  1.647064313E+03  0.000000000E+00  0.00000E+00  9.000E+00
      21    -1     0     0   501   511  0.000000000E+00  0.000000000E+00 -2.176567603E+03  2.176567603E+03  0.000000000E+00  0.00000E+00  9.000E+00
      25     1     1     2     0     0  1.188122833E+03  1.165058784E+03  2.743672878E+02  1.691123959E+03  1.250000000E+02  0.00000E+00  9.000E+00
      25     1     1     2     0     0 -1.152385479E+03 -1.194983818E+03 -3.820091119E+02  1.708079208E+03  1.250000000E+02  0.00000E+00  9.000E+00
      21     1     1     2   502   511 -3.573735387E+01  2.992503437E+01 -4.218614665E+02  4.244287491E+02  5.394796609E-06  0.00000E+00  9.000E+00
#rwgt            1           1   2.8623939597182985E-002           5       84890           0
</event>
<event>
      5   9999  3.19816E-02  9.40847E+01 -1.00000E+00  1.25031E-01
      21    -1     0     0   512   501  0.000000000E+00  0.000000000E+00  6.160262474E+02  6.160262474E+02  0.000000000E+00  0.00000E+00  9.000E+00
      21    -1     0     0   501   502  0.000000000E+00  0.000000000E+00 -1.348415588E+03  1.348415588E+03  0.000000000E+00  0.00000E+00  9.000E+00
      25     1     1     2     0     0 -6.322917160E+02 -2.962492090E+02 -7.895796889E+02  1.061422391E+03  1.250000000E+02  0.00000E+00  9.000E+00
      25     1     1     2     0     0  5.933832972E+02  2.105866512E+02 -1.640869344E+02  6.625707488E+02  1.250000000E+02  0.00000E+00  9.000E+00
      21     1     1     2   512   502  3.890841873E+01  8.566255775E+01  2.212772831E+02  2.404486949E+02  3.814697266E-06  0.00000E+00  9.000E+00
#rwgt            1           1   3.2202427530905228E-002           5       85125           0
</event>
<event>
      5   9999  3.19816E-02  5.41061E+00 -1.00000E+00  2.32680E-01
      21    -1     0     0   502   511  0.000000000E+00  0.000000000E+00  8.296438376E+02  8.296438376E+02  0.000000000E+00  0.00000E+00  9.000E+00
      21    -1     0     0   501   502  0.000000000E+00  0.000000000E+00 -1.189250984E+02  1.189250984E+02  0.000000000E+00  0.00000E+00  9.000E+00
      25     1     1     2     0     0 -2.443539211E+02  2.735631457E+01  2.523814110E+02  3.738697411E+02  1.250000000E+02  0.00000E+00  9.000E+00
      25     1     1     2     0     0  2.395865603E+02 -2.991501433E+01  2.596939637E+02  3.759821574E+02  1.250000000E+02  0.00000E+00  9.000E+00
      21     1     1     2   501   511  4.767360869E+00  2.558699756E+00  1.986433646E+02  1.987170374E+02  2.697398305E-06  0.00000E+00  9.000E+00
#rwgt            1           1   2.3585342486825221E-002           5       85207           0
</event>
<event>
      5   9999  3.19816E-02  8.86308E+01 -1.00000E+00  1.26232E-01
      21    -1     0     0   502   501  0.000000000E+00  0.000000000E+00  3.507849780E+02  3.507849780E+02  0.000000000E+00  0.00000E+00  9.000E+00
      21    -1     0     0   512   502  0.000000000E+00  0.000000000E+00 -4.658187537E+02  4.658187537E+02  0.000000000E+00  0.00000E+00  9.000E+00
      25     1     1     2     0     0  5.756565341E+01 -2.905233931E+02 -7.100508226E+01  3.292178125E+02  1.250000000E+02  0.00000E+00  9.000E+00
      25     1     1     2     0     0 -1.173393443E+02  3.559643387E+02 -2.024015694E+01  3.956182454E+02  1.250000000E+02  0.00000E+00  9.000E+00
      21     1     1     2   512   501  5.977369091E+01 -6.544094564E+01 -2.378853649E+01  9.176767383E+01  5.840038640E-07  0.00000E+00  9.000E+00
#rwgt            1           1   2.8391484118875487E-002           5       85484           0
</event>
<event>
      5   9999  3.19816E-02  5.26930E+01 -1.00000E+00  1.37788E-01
      21    -1     0     0   502   501  0.000000000E+00  0.000000000E+00  8.144191558E+02  8.144191558E+02  0.000000000E+00  0.00000E+00  9.000E+00
      21    -1     0     0   501   511  0.000000000E+00  0.000000000E+00 -7.409630108E+02  7.409630108E+02  0.000000000E+00  0.00000E+00  9.000E+00
      25     1     1     2     0     0 -5.836508082E+02 -1.088747720E+02  5.131660005E+02  7.946485550E+02  1.250000000E+02  0.00000E+00  9.000E+00
      25     1     1     2     0     0  5.417198199E+02  7.696330425E+01 -3.657090487E+02  6.698894101E+02  1.250000000E+02  0.00000E+00  9.000E+00
      21     1     1     2   502   511  4.193098825E+01  3.191146778E+01 -7.400080674E+01  9.084420152E+01  1.348699152E-06  0.00000E+00  9.000E+00
#rwgt            1           1   3.1409088898660981E-002           5       85538           0
</event>
<event>
      5   9999  3.19816E-02  4.94025E+02 -1.00000E+00  9.90005E-02
      21    -1     0     0   502   501  0.000000000E+00  0.000000000E+00  4.425406565E+02  4.425406565E+02  0.000000000E+00  0.00000E+00  9.000E+00
      21    -1     0     0   512   502  0.000000000E+00  0.000000000E+00 -1.411247212E+03  1.411247212E+03  0.000000000E+00  0.00000E+00  9.000E+00
      25     1     1     2     0     0  1.196300669E+01  1.136769796E+02 -1.999672796E+02  2.620638893E+02  1.250000000E+02  0.00000E+00  9.000E+00
      25     1     1     2     0     0  1.877482697E+02 -5.655359211E+02  7.554351989E+01  6.135243387E+02  1.250000000E+02  0.00000E+00  9.000E+00
      21     1     1     2   512   501 -1.997112764E+02  4.518589415E+02 -8.442827958E+02  9.781996403E+02  0.000000000E+00  0.00000E+00  9.000E+00
#rwgt            2          11   1.9107388151551712E-003           5       85662           0
</event>
<event>
      5   9999  3.19816E-02  5.67751E+02 -1.00000E+00  9.73091E-02
       2    -1     0     0   502     0  0.000000000E+00  0.000000000E+00  3.093600556E+03  3.093600556E+03  0.000000000E+00  0.00000E+00  9.000E+00
      21    -1     0     0   501   502  0.000000000E+00  0.000000000E+00 -6.561941144E+02  6.561941144E+02  0.000000000E+00  0.00000E+00  9.000E+00
      25     1     1     2     0     0 -5.882429746E+01 -1.723599512E+02  7.231129554E+02  7.560989334E+02  1.250000000E+02  0.00000E+00  9.000E+00
      25     1     1     2     0     0 -3.881672092E+02  5.224168805E+02 -4.203760341E+02  7.848147485E+02  1.250000000E+02  0.00000E+00  9.000E+00
       2     1     1     2   501     0  4.469915067E+02 -3.500569294E+02  2.134669520E+03  2.208880988E+03  3.051757812E-05  0.00000E+00  9.000E+00
#rwgt            1           1   2.4435846960683055E-002           5       85682           0
</event>
<event>
      5   9999  3.19816E-02  5.61337E+01 -1.00000E+00  1.36268E-01
      21    -1     0     0   502   501  0.000000000E+00  0.000000000E+00  9.858380255E+02  9.858380255E+02  0.000000000E+00  0.00000E+00  9.000E+00
      21    -1     0     0   501   511  0.000000000E+00  0.000000000E+00 -1.644968827E+02  1.644968827E+02  0.000000000E+00  0.00000E+00  9.000E+00
      25     1     1     2     0     0  1.351678054E+02  1.162411394E+02  7.919384741E+02  8.213244699E+02  1.250000000E+02  0.00000E+00  9.000E+00
      25     1     1     2     0     0 -1.485875089E+02 -1.707471630E+02  5.948663575E+01  2.653233900E+02  1.250000000E+02  0.00000E+00  9.000E+00
      21     1     1     2   502   511  1.341970349E+01  5.450602359E+01 -3.008396708E+01  6.368704833E+01  8.920806376E-07  0.00000E+00  9.000E+00
#rwgt            1           1   3.0208035106517154E-002           5       85713           0
</event>
<event>
      5   9999  3.19816E-02  7.90288E+01 -1.00000E+00  1.28607E-01
      21    -1     0     0   502   501  0.000000000E+00  0.000000000E+00  3.222448987E+02  3.222448987E+02  0.000000000E+00  0.00000E+00  9.000E+00
       2    -1     0     0   501     0  0.000000000E+00  0.000000000E+00 -5.975942001E+02  5.975942001E+02  0.000000000E+00  0.00000E+00  9.000E+00
      25     1     1     2     0     0  2.087385116E+01  6.394126366E+01  1.410974643E+02  2.001441913E+02  1.250000000E+02  0.00000E+00  9.000E+00
      25     1     1     2     0     0 -9.689251521E+01 -8.554481426E+01  9.418591769E+01  2.029829102E+02  1.250000000E+02  0.00000E+00  9.000E+00
       2     1     1     2   502     0  7.601866405E+01  2.160355060E+01 -5.106326835E+02  5.167119973E+02  5.394796609E-06  0.00000E+00  9.000E+00
#rwgt            1           1   7.5828230683366943E-002           5       85818           0
</event>
<event>
      5   9999  3.19816E-02  4.29526E+01 -1.00000E+00  1.42948E-01
       2    -1     0     0   502     0  0.000000000E+00  0.000000000E+00  3.338875947E+03  3.338875947E+03  0.000000000E+00  0.00000E+00  9.000E+00
      21    -1     0     0   501   502  0.000000000E+00  0.000000000E+00 -9.924589146E+01  9.924589146E+01  0.000000000E+00  0.00000E+00  9.000E+00
      25     1     1     2     0     0  2.475794866E+02 -2.965323107E+02  2.301356455E+03  2.336898275E+03  1.250000000E+02  0.00000E+00  9.000E+00
      25     1     1     2     0     0 -2.843416752E+02  3.187463499E+02  5.360976543E+02  6.967604457E+02  1.250000000E+02  0.00000E+00  9.000E+00
       2     1     1     2   501     0  3.676218861E+01 -2.221403927E+01  4.021759463E+02  4.044631181E+02  0.000000000E+00  0.00000E+00  9.000E+00
#rwgt            1           1   5.5998464547398132E-002           5       85868           0
</event>
<event>
      5   9999  3.19816E-02  1.43759E+02 -1.00000E+00  1.17130E-01
      21    -1     0     0   502   501  0.000000000E+00  0.000000000E+00  2.888894306E+02  2.888894306E+02  0.000000000E+00  0.00000E+00  9.000E+00
      21    -1     0     0   501   511  0.000000000E+00  0.000000000E+00 -8.995519578E+02  8.995519578E+02  0.000000000E+00  0.00000E+00  9.000E+00
      25     1     1     2     0     0  1.640706097E+02  1.709968163E+01 -5.941877081E+02  6.292023495E+02  1.250000000E+02  0.00000E+00  9.000E+00
      25     1     1     2     0     0 -2.543127599E+02  9.480683859E+01  1.540648433E+02  3.361908572E+02  1.250000000E+02  0.00000E+00  9.000E+00
      21     1     1     2   502   511  9.024215015E+01 -1.119065202E+02 -1.705396624E+02  2.230481817E+02  1.907348633E-06  0.00000E+00  9.000E+00
#rwgt            1           1   2.6174412247490873E-002           5       86068           0
</event>
<event>
      5   9999  3.35585E-02  7.98979E+01 -1.00000E+00  1.28376E-01
      -2    -1     0     0     0   501  0.000000000E+00  0.000000000E+00  1.375847954E+02  1.375847954E+02  0.000000000E+00  0.00000E+00  9.000E+00
      21    -1     0     0   501   502  0.000000000E+00  0.000000000E+00 -2.225701725E+03  2.225701725E+03  0.000000000E+00  0.00000E+00  9.000E+00
      25     1     1     2     0     0  6.939769258E+00  1.744561296E+02 -2.024616220E+03  2.035971252E+03  1.250000000E+02  0.00000E+00  9.000E+00
      25     1     1     2     0     0 -8.132176828E+01 -1.452842390E+02 -1.093815852E+02  2.351809331E+02  1.250000000E+02  0.00000E+00  9.000E+00
      -2     1     1     2     0   502  7.438199902E+01 -2.917189057E+01  4.588087549E+01  9.213433516E+01  3.090257978E-06  0.00000E+00  9.000E+00
#rwgt            1           1  0.10277217175690614                5       86152           0
</event>
<event>
      5   9999  3.19816E-02  7.81723E+01 -1.00000E+00  1.28837E-01
       2    -1     0     0   502     0  0.000000000E+00  0.000000000E+00  7.967653626E+02  7.967653626E+02  0.000000000E+00  0.00000E+00  9.000E+00
      21    -1     0     0   501   502  0.000000000E+00  0.000000000E+00 -1.766986301E+02  1.766986301E+02  0.000000000E+00  0.00000E+00  9.000E+00
      25     1     1     2     0     0  2.179277387E+02  2.136438583E+02  9.543689761E+01  3.433211309E+02  1.250000000E+02  0.00000E+00  9.000E+00
      25     1     1     2     0     0 -1.423638320E+02 -1.936186708E+02  4.072243710E+02  4.890933844E+02  1.250000000E+02  0.00000E+00  9.000E+00
       2     1     1     2   501     0 -7.556390669E+01 -2.002518749E+01  1.174054638E+02  1.410494774E+02  0.000000000E+00  0.00000E+00  9.000E+00
#rwgt            1           1   3.0649045094663881E-002           5       86213           0
</event>
<event>
      5   9999  3.19816E-02  5.98772E+01 -1.00000E+00  1.34751E-01
      21    -1     0     0   502   501  0.000000000E+00  0.000000000E+00  6.312215621E+02  6.312215621E+02  0.000000000E+00  0.00000E+00  9.000E+00
      21    -1     0     0   511   502  0.000000000E+00  0.000000000E+00 -9.090498379E+02  9.090498379E+02  0.000000000E+00  0.00000E+00  9.000E+00
      25     1     1     2     0     0 -1.636043401E+02  4.757747956E+02  1.575725306E+02  5.418322053E+02  1.250000000E+02  0.00000E+00  9.000E+00
      25     1     1     2     0     0  1.247590744E+02 -5.213415307E+02  8.510135719E+00  5.505081659E+02  1.250000000E+02  0.00000E+00  9.000E+00
      21     1     1     2   511   501  3.884526572E+01  4.556673509E+01 -4.439109421E+02  4.479310288E+02  7.629394531E-06  0.00000E+00  9.000E+00
#rwgt            1           1   2.3838293434467705E-002           5       86302           0
</event>
<event>
      5   9999  3.19816E-02  4.28459E+02 -1.00000E+00  1.00795E-01
      21    -1     0     0   502   501  0.000000000E+00  0.000000000E+00  1.474919188E+02  1.474919188E+02  0.000000000E+00  0.00000E+00  9.000E+00
      -3    -1     0     0     0   502  0.000000000E+00  0.000000000E+00 -1.829268101E+03  1.829268101E+03  0.000000000E+00  0.00000E+00  9.000E+00
      25     1     1     2     0     0  2.371511631E+01  1.479587798E+02 -2.593167108E+02  3.245371531E+02  1.250000000E+02  0.00000E+00  9.000E+00
      25     1     1     2     0     0 -3.120313895E+02  1.689812768E+02 -9.070620737E+02  9.819902574E+02  1.250000000E+02  0.00000E+00  9.000E+00
      -3     1     1     2     0   501  2.883162732E+02 -3.169400565E+02 -5.153973973E+02  6.702326088E+02  7.629394531E-06  0.00000E+00  9.000E+00
#rwgt            1           1   3.0427949798316777E-002           5       86456           0
</event>
<event>
      5   9999  3.19816E-02  6.62727E+01 -1.00000E+00  1.32436E-01
      21    -1     0     0   502   501  0.000000000E+00  0.000000000E+00  8.282324306E+02  8.282324306E+02  0.000000000E+00  0.00000E+00  9.000E+00
      21    -1     0     0   501   511  0.000000000E+00  0.000000000E+00 -2.754860260E+02  2.754860260E+02  0.000000000E+00  0.00000E+00  9.000E+00
      25     1     1     2     0     0 -1.755282793E+02  9.662804248E+01  6.231975381E+02  6.664437913E+02  1.250000000E+02  0.00000E+00  9.000E+00
      25     1     1     2     0     0  1.412120643E+02 -3.993173713E+01  1.257656466E+02  2.301681746E+02  1.250000000E+02  0.00000E+00  9.000E+00
      21     1     1     2   502   511  3.431621502E+01 -5.669630535E+01 -1.962167801E+02  2.071064906E+02  5.394796609E-06  0.00000E+00  9.000E+00
#rwgt            1           1   2.3940799605161295E-002           5       86568           0
</event>
<event>
      5   9999  3.19816E-02  3.04242E+01 -1.00000E+00  1.52617E-01
      21    -1     0     0   502   501  0.000000000E+00  0.000000000E+00  9.452009394E+01  9.452009394E+01  0.000000000E+00  0.00000E+00  9.000E+00
      21    -1     0     0   512   502  0.000000000E+00  0.000000000E+00 -1.235096240E+03  1.235096240E+03  0.000000000E+00  0.00000E+00  9.000E+00
      25     1     1     2     0     0 -1.794915614E+02  1.637457939E+02 -1.738381568E+02  3.238434967E+02  1.250000000E+02  0.00000E+00  9.000E+00
      25     1     1     2     0     0  1.567341212E+02 -1.435534291E+02 -8.405872469E+02  8.760051891E+02  1.250000000E+02  0.00000E+00  9.000E+00
      21     1     1     2   512   501  2.275744020E+01 -2.019236486E+01 -1.261507429E+02  1.297676485E+02  1.348699152E-06  0.00000E+00  9.000E+00
#rwgt            1           1   3.1095587782824938E-002           5       86624           0
</event>
<event>
      5   9999  3.19816E-02  1.86453E+02 -1.00000E+00  1.12768E-01
       2    -1     0     0   502     0  0.000000000E+00  0.000000000E+00  2.510007996E+03  2.510007996E+03  0.000000000E+00  0.00000E+00  9.000E+00
      21    -1     0     0   501   502  0.000000000E+00  0.000000000E+00 -7.769519138E+02  7.769519138E+02  0.000000000E+00  0.00000E+00  9.000E+00
      25     1     1     2     0     0 -1.952078188E+02  1.384842915E+02 -6.189444076E+02  6.752785879E+02  1.250000000E+02  0.00000E+00  9.000E+00
      25     1     1     2     0     0  2.267649671E+01 -2.091780264E+02 -7.477199786E+00  2.448480728E+02  1.250000000E+02  0.00000E+00  9.000E+00
       2     1     1     2   501     0  1.725313221E+02  7.069373493E+01  2.359477689E+03  2.366833249E+03  0.000000000E+00  0.00000E+00  9.000E+00
#rwgt            1           1   2.7657131529430688E-002           5       86724           0
</event>
<event>
      5   9999  3.33182E-02  2.07563E+01 -1.00000E+00  1.65050E-01
      21    -1     0     0   511   501  0.000000000E+00  0.000000000E+00  6.575415492E+01  6.575415492E+01  0.000000000E+00  0.00000E+00  9.000E+00
      21    -1     0     0   501   502  0.000000000E+00  0.000000000E+00 -1.405622468E+03  1.405622468E+03  0.000000000E+00  0.00000E+00  9.000E+00
      25     1     1     2     0     0  3.737961083E+01 -1.213986234E+02 -6.260059350E+02  6.508788611E+02  1.250000000E+02  0.00000E+00  9.000E+00
      25     1     1     2     0     0 -2.774090602E+01  1.397812337E+02 -7.528397754E+02  7.763382502E+02  1.250000000E+02  0.00000E+00  9.000E+00
      21     1     1     2   511   502 -9.638704815E+00 -1.838261029E+01  3.897739724E+01  4.415951185E+01  2.697398305E-06  0.00000E+00  9.000E+00
#rwgt            1           1   5.0681542521346164E-002           5       86768           0
</event>
<event>
      5   9999  3.19816E-02  3.93228E+01 -1.00000E+00  1.45302E-01
      21    -1     0     0   502   501  0.000000000E+00  0.000000000E+00  2.843981101E+02  2.843981101E+02  0.000000000E+00  0.00000E+00  9.000E+00
      21    -1     0     0   501   512  0.000000000E+00  0.000000000E+00 -4.087078143E+02  4.087078143E+02  0.000000000E+00  0.00000E+00  9.000E+00
      25     1     1     2     0     0  4.712970717E+01  2.299219053E+02  7.435286344E+01  2.761134552E+02  1.250000000E+02  0.00000E+00  9.000E+00
      25     1     1     2     0     0 -5.940992503E+01 -2.672779781E+02 -1.107994234E+02  3.207313034E+02  1.250000000E+02  0.00000E+00  9.000E+00
      21     1     1     2   502   512  1.228021787E+01  3.735607280E+01 -8.786314426E+01  9.626116582E+01  9.536743164E-07  0.00000E+00  9.000E+00
#rwgt            1           1   3.0549805341376211E-002           5       86858           0
</event>
<event>
      5   9999  3.19816E-02  9.79600E+01 -1.00000E+00  1.24232E-01
      21    -1     0     0   502   511  0.000000000E+00  0.000000000E+00  3.509810988E+02  3.509810988E+02  0.000000000E+00  0.00000E+00  9.000E+00
      21    -1     0     0   501   502  0.000000000E+00  0.000000000E+00 -2.191618972E+02  2.191618972E+02  0.000000000E+00  0.00000E+00  9.000E+00
      25     1     1     2     0     0  1.397204550E+02 -9.690964928E+01 -3.901270485E+01  2.146165809E+02  1.250000000E+02  0.00000E+00  9.000E+00
      25     1     1     2     0     0 -6.312273001E+01  1.579748017E+02  9.427475882E+01  2.311995830E+02  1.250000000E+02  0.00000E+00  9.000E+00
      21     1     1     2   501   511 -7.659772502E+01 -6.106515243E+01  7.655714767E+01  1.243268321E+02  1.348699152E-06  0.00000E+00  9.000E+00
#rwgt            1           1   3.5916079925514384E-002           5       87002           0
</event>
<event>
      5   9999  3.19816E-02  2.83537E+01 -1.00000E+00  1.54762E-01
      21    -1     0     0   502   512  0.000000000E+00  0.000000000E+00  1.629988207E+02  1.629988207E+02  0.000000000E+00  0.00000E+00  9.000E+00
      21    -1     0     0   501   502  0.000000000E+00  0.000000000E+00 -9.878407486E+02  9.878407486E+02  0.000000000E+00  0.00000E+00  9.000E+00
      25     1     1     2     0     0 -1.819677401E+02  2.332227540E+02 -1.238381048E+02  3.441888836E+02  1.250000000E+02  0.00000E+00  9.000E+00
      25     1     1     2     0     0  1.827774167E+02 -2.615648742E+02 -6.986766454E+02  7.782016592E+02  1.250000000E+02  0.00000E+00  9.000E+00
      21     1     1     2   501   512 -8.096765601E-01  2.834212022E+01 -2.327177642E+00  2.844902653E+01  5.092623082E-07  0.00000E+00  9.000E+00
#rwgt            1           1   3.1029403082019298E-002           5       87050           0
</event>
<event>
      5   9999  3.19816E-02  1.44701E+02 -1.00000E+00  1.17016E-01
       2    -1     0     0   502     0  0.000000000E+00  0.000000000E+00  1.330938314E+03  1.330938314E+03  0.000000000E+00  0.00000E+00  9.000E+00
      21    -1     0     0   501   502  0.000000000E+00  0.000000000E+00 -6.940012847E+02  6.940012847E+02  0.000000000E+00  0.00000E+00  9.000E+00
      25     1     1     2     0     0  4.779298670E+02  6.081397532E+02  5.279582134E+02  9.447834632E+02  1.250000000E+02  0.00000E+00  9.000E+00
      25     1     1     2     0     0 -3.376792807E+02 -6.437506704E+02 -1.779802190E+02  7.587780839E+02  1.250000000E+02  0.00000E+00  9.000E+00
       2     1     1     2   501     0 -1.402505863E+02  3.561091724E+01  2.869590353E+02  3.213780520E+02  5.394796609E-06  0.00000E+00  9.000E+00
#rwgt            1           1   3.0911124023288536E-002           5       87192           0
</event>
<event>
      5   9999  3.19816E-02  5.47750E+01 -1.00000E+00  1.36852E-01
      21    -1     0     0   511   501  0.000000000E+00  0.000000000E+00  2.013458783E+02  2.013458783E+02  0.000000000E+00  0.00000E+00  9.000E+00
      21    -1     0     0   501   502  0.000000000E+00  0.000000000E+00 -2.781743551E+02  2.781743551E+02  0.000000000E+00  0.00000E+00  9.000E+00
      25     1     1     2     0     0  1.401520853E+02 -8.410935474E+01 -1.088854134E+02  2.328046903E+02  1.250000000E+02  0.00000E+00  9.000E+00
      25     1     1     2     0     0 -1.397403162E+02  2.933591173E+01  2.747266052E+01  1.917490515E+02  1.250000000E+02  0.00000E+00  9.000E+00
      21     1     1     2   511   502 -4.117691767E-01  5.477344301E+01  4.584275984E+00  5.496649161E+01  6.899736466E-07  0.00000E+00  9.000E+00
#rwgt            1           1   2.6406344216024925E-002           5       87272           0
</event>
<event>
      5   9999  3.19816E-02  1.18662E+02 -1.00000E+00  1.20575E-01
      21    -1     0     0   512   501  0.000000000E+00  0.000000000E+00  4.535050707E+02  4.535050707E+02  0.000000000E+00  0.00000E+00  9.000E+00
      21    -1     0     0   501   502  0.000000000E+00  0.000000000E+00 -2.716243470E+02  2.716243470E+02  0.000000000E+00  0.00000E+00  9.000E+00
      25     1     1     2     0     0 -9.112101720E+01 -1.431399755E+02 -7.028836763E+01  2.221655846E+02  1.250000000E+02  0.00000E+00  9.000E+00
      25     1     1     2     0     0  2.030195297E+02  1.036500985E+02  4.445591606E+01  2.637453333E+02  1.250000000E+02  0.00000E+00  9.000E+00
      21     1     1     2   512   502 -1.118985125E+02  3.948987700E+01  2.077131752E+02  2.392184998E+02  4.672030912E-06  0.00000E+00  9.000E+00
#rwgt            1           1   3.2195977853971089E-002           5       87339           0
</event>
<event>
      5   9999  3.19816E-02  1.94893E+02 -1.00000E+00  1.12059E-01
      21    -1     0     0   502   501  0.000000000E+00  0.000000000E+00  6.335502567E+02  6.335502567E+02  0.000000000E+00  0.00000E+00  9.000E+00
      -2    -1     0     0     0   502  0.000000000E+00  0.000000000E+00 -6.183090501E+02  6.183090501E+02  0.000000000E+00  0.00000E+00  9.000E+00
      25     1     1     2     0     0  1.910336271E+02  1.011957300E+02  4.990145073E+02  5.580097678E+02  1.250000000E+02  0.00000E+00  9.000E+00
      25     1     1     2     0     0 -1.420659747E+02  8.744527695E+01 -4.431748695E+01  2.131160653E+02  1.250000000E+02  0.00000E+00  9.000E+00
      -2     1     1     2     0   501 -4.896765239E+01 -1.886410070E+02 -4.394558138E+02  4.807334738E+02  5.394796609E-06  0.00000E+00  9.000E+00
#rwgt            2           9   1.9007430532571706E-004           5       87431           0
</event>
<event>
      5   9999  3.19816E-02  5.86369E+01 -1.00000E+00  1.35239E-01
      21    -1     0     0   502   501  0.000000000E+00  0.000000000E+00  4.508809644E+02  4.508809644E+02  0.000000000E+00  0.00000E+00  9.000E+00
      21    -1     0     0   511   502  0.000000000E+00  0.000000000E+00 -1.548014082E+02  1.548014082E+02  0.000000000E+00  0.00000E+00  9.000E+00
      25     1     1     2     0     0 -4.020391147E+01  1.980287898E+00  1.246542571E+02  1.810634139E+02  1.250000000E+02  0.00000E+00  9.000E+00
      25     1     1     2     0     0  9.862778246E+01 -6.973528182E+00  2.678993736E+02  3.117228640E+02  1.250000000E+02  0.00000E+00  9.000E+00
      21     1     1     2   511   501 -5.842387099E+01  4.993240284E+00 -9.647407453E+01  1.128960947E+02  1.348699152E-06  0.00000E+00  9.000E+00
#rwgt            1           1   4.0828111769207399E-002           5       87465           0
</event>
<event>
      5   9999  3.19816E-02  1.49812E+01 -1.00000E+00  1.77435E-01
      21    -1     0     0   512   501  0.000000000E+00  0.000000000E+00  1.373823367E+02  1.373823367E+02  0.000000000E+00  0.00000E+00  9.000E+00
      21    -1     0     0   501   502  0.000000000E+00  0.000000000E+00 -4.799617311E+02  4.799617311E+02  0.000000000E+00  0.00000E+00  9.000E+00
      25     1     1     2     0     0 -9.681064536E+01 -3.495301145E+01 -3.016429199E+02  3.423557582E+02  1.250000000E+02  0.00000E+00  9.000E+00
      25     1     1     2     0     0  1.094562950E+02  4.298575012E+01 -1.103110007E+02  2.040146370E+02  1.250000000E+02  0.00000E+00  9.000E+00
      21     1     1     2   512   502 -1.264564966E+01 -8.032738675E+00  6.937452607E+01  7.097367268E+01  9.536743164E-07  0.00000E+00  9.000E+00
#rwgt            1           1   2.8595758387174888E-002           5       87558           0
</event>
<event>
      5   9999  3.19816E-02  3.72644E+01 -1.00000E+00  1.46774E-01
      -1    -1     0     0     0   501  0.000000000E+00  0.000000000E+00  6.271166750E+02  6.271166750E+02  0.000000000E+00  0.00000E+00  9.000E+00
      21    -1     0     0   501   502  0.000000000E+00  0.000000000E+00 -1.147676990E+03  1.147676990E+03  0.000000000E+00  0.00000E+00  9.000E+00
      25     1     1     2     0     0 -2.337061189E+02  7.325611518E+02 -4.665324537E+02  9.080429073E+02  1.250000000E+02  0.00000E+00  9.000E+00
      25     1     1     2     0     0  2.275674076E+02 -6.958059013E+02 -1.553937481E+02  7.587522614E+02  1.250000000E+02  0.00000E+00  9.000E+00
      -1     1     1     2     0   502  6.138711235E+00 -3.675525051E+01  1.013658867E+02  1.079984963E+02  1.348699152E-06  0.00000E+00  9.000E+00
#rwgt            1           1   2.0380533174142977E-002           5       87733           0
</event>
<event>
      5   9999  3.19816E-02  6.85343E+01 -1.00000E+00  1.31688E-01
      21    -1     0     0   502   501  0.000000000E+00  0.000000000E+00  2.429394825E+02  2.429394825E+02  0.000000000E+00  0.00000E+00  9.000E+00
      21    -1     0     0   501   511  0.000000000E+00  0.000000000E+00 -2.912762992E+03  2.912762992E+03  0.000000000E+00  0.00000E+00  9.000E+00
      25     1     1     2     0     0 -2.832279446E+02  6.784027668E+02 -1.606588537E+03  1.771214304E+03  1.250000000E+02  0.00000E+00  9.000E+00
      25     1     1     2     0     0  2.645638705E+02 -7.443467314E+02 -8.814877461E+02  1.190248606E+03  1.250000000E+02  0.00000E+00  9.000E+00
      21     1     1     2   502   511  1.866407410E+01  6.594396464E+01 -1.817472259E+02  1.942395641E+02  0.000000000E+00  0.00000E+00  9.000E+00
#rwgt            1           1   2.6949808177723168E-002           5       87911           0
</event>
<event>
      5   9999  3.19816E-02  1.65933E+02 -1.00000E+00  1.14682E-01
      21    -1     0     0   502   501  0.000000000E+00  0.000000000E+00  5.194800699E+02  5.194800699E+02  0.000000000E+00  0.00000E+00  9.000E+00
      21    -1     0     0   512   502  0.000000000E+00  0.000000000E+00 -1.171806404E+03  1.171806404E+03  0.000000000E+00  0.00000E+00  9.000E+00
      25     1     1     2     0     0 -2.819770265E+02  4.442058844E+02 -5.817869537E+02  7.943116332E+02  1.250000000E+02  0.00000E+00  9.000E+00
      25     1     1     2     0     0  4.376003910E+02 -5.017826618E+02  6.797467083E+01  6.808270689E+02  1.250000000E+02  0.00000E+00  9.000E+00
      21     1     1     2   512   501 -1.556233645E+02  5.757677739E+01 -1.385140514E+02  2.161477720E+02  2.697398305E-06  0.00000E+00  9.000E+00
#rwgt            1           1   2.3008372120602926E-002           5       88105           0
</event>
<event>
      5   9999  3.19816E-02  1.26749E+02 -1.00000E+00  1.19368E-01
       2    -1     0     0   502     0  0.000000000E+00  0.000000000E+00  1.749910442E+03  1.749910442E+03  0.000000000E+00  0.00000E+00  9.000E+00
      21    -1     0     0   501   502  0.000000000E+00  0.000000000E+00 -2.256379753E+02  2.256379753E+02  0.000000000E+00  0.00000E+00  9.000E+00
      25     1     1     2     0     0  1.810694732E+02 -8.736740752E+00  6.270839436E+02  6.646215142E+02  1.250000000E+02  0.00000E+00  9.000E+00
      25     1     1     2     0     0 -8.584844613E+01  9.239165363E+01 -1.642862992E+02  2.419114745E+02  1.250000000E+02  0.00000E+00  9.000E+00
       2     1     1     2   501     0 -9.522102710E+01 -8.365491288E+01  1.061474822E+03  1.069015428E+03  0.000000000E+00  0.00000E+00  9.000E+00
#rwgt            1           1   2.3090668547746784E-002           5       88157           0
</event>
<event>
      5   9999  3.19816E-02  4.73694E+01 -1.00000E+00  1.40428E-01
      21    -1     0     0   502   501  0.000000000E+00  0.000000000E+00  4.445970439E+01  4.445970439E+01  0.000000000E+00  0.00000E+00  9.000E+00
      21    -1     0     0   511   502  0.000000000E+00  0.000000000E+00 -1.349856708E+03  1.349856708E+03  0.000000000E+00  0.00000E+00  9.000E+00
      25     1     1     2     0     0 -5.193575854E+01  1.431879963E+02 -4.693205693E+02  5.090058173E+02  1.250000000E+02  0.00000E+00  9.000E+00
      25     1     1     2     0     0  7.079526904E+00 -1.584122174E+02 -4.143157146E+02  4.608981034E+02  1.250000000E+02  0.00000E+00  9.000E+00
      21     1     1     2   511   501  4.485623164E+01  1.522422106E+01 -4.217607201E+02  4.244124921E+02  9.344061824E-06  0.00000E+00  9.000E+00
#rwgt            1           1   3.5428096040742055E-002           5       88237           0
</event>
<event>
      5   9999  3.19816E-02  4.46748E+02 -1.00000E+00  1.00262E-01
      21    -1     0     0   512   501  0.000000000E+00  0.000000000E+00  1.317117300E+03  1.317117300E+03  0.000000000E+00  0.00000E+00  9.000E+00
      21    -1     0     0   501   502  0.000000000E+00  0.000000000E+00 -6.233036830E+02  6.233036830E+02  0.000000000E+00  0.00000E+00  9.000E+00
      25     1     1     2     0     0  2.523286437E+02  1.388723762E+01 -3.829317401E+02  4.755253068E+02  1.250000000E+02  0.00000E+00  9.000E+00
      25     1     1     2     0     0 -9.779800918E+01  4.052832322E+02  1.960454155E+02  4.773654301E+02  1.250000000E+02  0.00000E+00  9.000E+00
      21     1     1     2   512   502 -1.545306345E+02 -4.191704698E+02  8.806999417E+02  9.875302462E+02  0.000000000E+00  0.00000E+00  9.000E+00
#rwgt            2          11   2.0162368304077879E-003           5       88482           0
</event>
<event>
      5   9999  3.19816E-02  5.36434E+01 -1.00000E+00  1.37355E-01
      21    -1     0     0   511   501  0.000000000E+00  0.000000000E+00  1.323518967E+03  1.323518967E+03  0.000000000E+00  0.00000E+00  9.000E+00
      21    -1     0     0   501   502  0.000000000E+00  0.000000000E+00 -6.710005844E+02  6.710005844E+02  0.000000000E+00  0.00000E+00  9.000E+00
      25     1     1     2     0     0 -4.907880195E+02  7.262257290E+02  3.348993804E+02  9.466040802E+02  1.250000000E+02  0.00000E+00  9.000E+00
      25     1     1     2     0     0  5.403660927E+02 -7.057409952E+02  2.014092312E+02  9.199220319E+02  1.250000000E+02  0.00000E+00  9.000E+00
      21     1     1     2   511   502 -4.957807320E+01 -2.048473389E+01  1.162097713E+02  1.279934397E+02  1.907348633E-06  0.00000E+00  9.000E+00
#rwgt            1           1   3.1248005499127041E-002           5       88502           0
</event>
<event>
      5   9999  3.19816E-02  1.34387E+02 -1.00000E+00  1.18317E-01
      21    -1     0     0   502   501  0.000000000E+00  0.000000000E+00  1.261119743E+03  1.261119743E+03  0.000000000E+00  0.00000E+00  9.000E+00
      21    -1     0     0   512   502  0.000000000E+00  0.000000000E+00 -4.368649023E+02  4.368649023E+02  0.000000000E+00  0.00000E+00  9.000E+00
      25     1     1     2     0     0  5.820349920E+02  2.906528069E+01  3.029020948E+02  6.685687709E+02  1.250000000E+02  0.00000E+00  9.000E+00
      25     1     1     2     0     0 -6.476396560E+02 -1.463510344E+02  5.725528010E+02  8.856057019E+02  1.250000000E+02  0.00000E+00  9.000E+00
      21     1     1     2   512   501  6.560466403E+01  1.172857537E+02 -5.120005531E+01  1.438101722E+02  2.023048729E-06  0.00000E+00  9.000E+00
#rwgt            1           1   3.1580758960525479E-002           5       88649           0
</event>
<event>
      5   9999  3.19816E-02  1.39578E+01 -1.00000E+00  1.80381E-01
      21    -1     0     0   511   501  0.000000000E+00  0.000000000E+00  1.090648284E+02  1.090648284E+02  0.000000000E+00  0.00000E+00  9.000E+00
      21    -1     0     0   501   502  0.000000000E+00  0.000000000E+00 -1.459933604E+03  1.459933604E+03  0.000000000E+00  0.00000E+00  9.000E+00
      25     1     1     2     0     0  2.223484647E+02 -4.438587852E+01 -8.981454573E+01  2.740448843E+02  1.250000000E+02  0.00000E+00  9.000E+00
      25     1     1     2     0     0 -2.336342502E+02  3.617301450E+01 -1.246195423E+03  1.274567174E+03  1.250000000E+02  0.00000E+00  9.000E+00
      21     1     1     2   511   502  1.128578553E+01  8.212864020E+00 -1.485880690E+01  2.038637371E+01  2.384185791E-07  0.00000E+00  9.000E+00
#rwgt            1           1   2.8293540226232136E-002           5       88717           0
</event>
<event>
      5   9999  3.19816E-02  4.84337E+01 -1.00000E+00  1.39869E-01
      21    -1     0     0   502   501  0.000000000E+00  0.000000000E+00  1.875164618E+03  1.875164618E+03  0.000000000E+00  0.00000E+00  9.000E+00
      -3    -1     0     0     0   502  0.000000000E+00  0.000000000E+00 -4.354288193E+02  4.354288193E+02  0.000000000E+00  0.00000E+00  9.000E+00
      25     1     1     2     0     0  2.783821088E+02 -2.688808747E+02  1.657437297E+03  1.706609773E+03  1.250000000E+02  0.00000E+00  9.000E+00
      25     1     1     2     0     0 -2.807445174E+02  2.205048145E+02  2.775624303E+00  3.782493375E+02  1.250000000E+02  0.00000E+00  9.000E+00
      -3     1     1     2     0   501  2.362408595E+00  4.837606018E+01 -2.204771233E+02  2.257343263E+02  0.000000000E+00  0.00000E+00  9.000E+00
#rwgt            1           1   2.9805125823769162E-002           5       88962           0
</event>
<event>
      5   9999  3.19816E-02  3.93963E+01 -1.00000E+00  1.45251E-01
      21    -1     0     0   502   511  0.000000000E+00  0.000000000E+00  3.888457372E+02  3.888457372E+02  0.000000000E+00  0.00000E+00  9.000E+00
      21    -1     0     0   501   502  0.000000000E+00  0.000000000E+00 -1.359316353E+02  1.359316353E+02  0.000000000E+00  0.00000E+00  9.000E+00
      25     1     1     2     0     0  6.001078588E-01 -1.011780463E+02 -4.610692763E+01  1.672967601E+02  1.250000000E+02  0.00000E+00  9.000E+00
      25     1     1     2     0     0  3.610882869E+01  8.687677471E+01  2.352884156E+02  2.825545257E+02  1.250000000E+02  0.00000E+00  9.000E+00
      21     1     1     2   501   511 -3.670893655E+01  1.430127157E+01  6.373261391E+01  7.492608669E+01  2.023048729E-06  0.00000E+00  9.000E+00
#rwgt            1           1   2.5840308770065250E-002           5       89107           0
</event>
<event>
      5   9999  3.19816E-02  1.09581E+02 -1.00000E+00  1.22067E-01
      21    -1     0     0   502   501  0.000000000E+00  0.000000000E+00  8.685027903E+01  8.685027903E+01  0.000000000E+00  0.00000E+00  9.000E+00
       2    -1     0     0   501     0  0.000000000E+00  0.000000000E+00 -4.158053780E+03  4.158053780E+03  0.000000000E+00  0.00000E+00  9.000E+00
      25     1     1     2     0     0  1.358687227E+02  7.886601034E+01 -5.754832546E+01  2.088467552E+02  1.250000000E+02  0.00000E+00  9.000E+00
      25     1     1     2     0     0 -6.649473178E+01 -1.636911912E+02 -1.142923222E+03  1.163234648E+03  1.250000000E+02  0.00000E+00  9.000E+00
       2     1     1     2   502     0 -6.937399088E+01  8.482518082E+01 -2.870731954E+03  2.872822656E+03  0.000000000E+00  0.00000E+00  9.000E+00
#rwgt            1           1   3.9278391544881587E-002           5       89254           0
</event>
<event>
      5   9999  3.19816E-02  4.86911E+01 -1.00000E+00  1.39736E-01
      21    -1     0     0   502   501  0.000000000E+00  0.000000000E+00  1.342638337E+03  1.342638337E+03  0.000000000E+00  0.00000E+00  9.000E+00
      21    -1     0     0   501   511  0.000000000E+00  0.000000000E+00 -8.887118375E+01  8.887118375E+01  0.000000000E+00  0.00000E+00  9.000E+00
      25     1     1     2     0     0  4.653502948E+01 -8.225258974E+00 -1.733845953E+01  1.347545399E+02  1.250000000E+02  0.00000E+00  9.000E+00
      25     1     1     2     0     0 -4.032991681E+01  5.651932368E+01  1.210950570E+03  1.219363449E+03  1.250000000E+02  0.00000E+00  9.000E+00
      21     1     1     2   502   511 -6.205112662E+00 -4.829406471E+01  6.015504222E+01  7.739153193E+01  6.743495762E-07  0.00000E+00  9.000E+00
#rwgt            1           1   3.0439420175976246E-002           5       89317           0
</event>
<event>
      5   9999  3.19816E-02  3.06588E+01 -1.00000E+00  1.52387E-01
      21    -1     0     0   502   501  0.000000000E+00  0.000000000E+00  1.292202241E+03  1.292202241E+03  0.000000000E+00  0.00000E+00  9.000E+00
      21    -1     0     0   501   512  0.000000000E+00  0.000000000E+00 -2.126189100E+03  2.126189100E+03  0.000000000E+00  0.00000E+00  9.000E+00
      25     1     1     2     0     0  1.105071773E+03 -3.029861627E+02 -6.136224929E+02  1.305810784E+03  1.250000000E+02  0.00000E+00  9.000E+00
      25     1     1     2     0     0 -1.081647801E+03  2.832054012E+02  6.112522499E+02  1.280398992E+03  1.250000000E+02  0.00000E+00  9.000E+00
      21     1     1     2   502   512 -2.342397216E+01  1.978076143E+01 -8.316166164E+02  8.321815653E+02  0.000000000E+00  0.00000E+00  9.000E+00
#rwgt            1           1   2.8739757244260884E-002           5       89431           0
</event>
<event>
      5   9999  3.19816E-02  3.80680E+01 -1.00000E+00  1.46186E-01
      21    -1     0     0   502   501  0.000000000E+00  0.000000000E+00  2.423120523E+02  2.423120523E+02  0.000000000E+00  0.00000E+00  9.000E+00
       2    -1     0     0   501     0  0.000000000E+00  0.000000000E+00 -3.348755651E+03  3.348755651E+03  0.000000000E+00  0.00000E+00  9.000E+00
      25     1     1     2     0     0  1.571691647E+02 -2.651164276E+02  1.041736677E+02  3.485197549E+02  1.250000000E+02  0.00000E+00  9.000E+00
      25     1     1     2     0     0 -1.693868950E+02  3.011705832E+02 -2.144623872E+03  2.175875041E+03  1.250000000E+02  0.00000E+00  9.000E+00
       2     1     1     2   502     0  1.221773027E+01 -3.605415568E+01 -1.065993395E+03  1.066672908E+03  1.525878906E-05  0.00000E+00  9.000E+00
#rwgt            1           1   2.7633725503837307E-002           5       89633           0
</event>
<event>
      5   9999  3.19816E-02  3.12756E+01 -1.00000E+00  1.51794E-01
      21    -1     0     0   502   511  0.000000000E+00  0.000000000E+00  5.657534930E+01  5.657534930E+01  0.000000000E+00  0.00000E+00  9.000E+00
      21    -1     0     0   501   502  0.000000000E+00  0.000000000E+00 -8.005286320E+02  8.005286320E+02  0.000000000E+00  0.00000E+00  9.000E+00
      25     1     1     2     0     0  6.048953027E+01  4.448217653E+01 -6.392746998E+02  6.556941277E+02  1.250000000E+02  0.00000E+00  9.000E+00
      25     1     1     2     0     0 -6.338768877E+01 -1.334115310E+01 -8.489544365E+01  1.644026210E+02  1.250000000E+02  0.00000E+00  9.000E+00
      21     1     1     2   501   511  2.898158495E+00 -3.114102344E+01 -1.978313927E+01  3.700723258E+01  3.371747881E-07  0.00000E+00  9.000E+00
#rwgt            1           1   2.9289569397242858E-002           5       89810           0
</event>
<event>
      5   9999  3.19816E-02  1.07469E+02 -1.00000E+00  1.22437E-01
      21    -1     0     0   502   501  0.000000000E+00  0.000000000E+00  4.299585668E+02  4.299585668E+02  0.000000000E+00  0.00000E+00  9.000E+00
       1    -1     0     0   501     0  0.000000000E+00  0.000000000E+00 -2.810705451E+03  2.810705451E+03  0.000000000E+00  0.00000E+00  9.000E+00
      25     1     1     2     0     0 -2.983302214E+02 -4.053606038E+02 -4.046201580E+01  5.201733508E+02  1.250000000E+02  0.00000E+00  9.000E+00
      25     1     1     2     0     0  3.087253776E+02  5.123258243E+02 -3.060755423E+02  6.834444722E+02  1.250000000E+02  0.00000E+00  9.000E+00
       1     1     1     2   502     0 -1.039515619E+01 -1.069652205E+02 -2.034209326E+03  2.037046195E+03  3.737624730E-05  0.00000E+00  9.000E+00
#rwgt            2          12   1.2643759676998730E-003           5       89988           0
</event>
<event>
      5   9999  3.19816E-02  2.30981E+01 -1.00000E+00  1.61369E-01
      21    -1     0     0   502   501  0.000000000E+00  0.000000000E+00  3.525343754E+02  3.525343754E+02  0.000000000E+00  0.00000E+00  9.000E+00
       2    -1     0     0   501     0  0.000000000E+00  0.000000000E+00 -2.902106589E+03  2.902106589E+03  0.000000000E+00  0.00000E+00  9.000E+00
      25     1     1     2     0     0 -1.578375019E+02  4.096831701E+02 -8.762492050E+02  9.880236061E+02  1.250000000E+02  0.00000E+00  9.000E+00
      25     1     1     2     0     0  1.469694918E+02 -4.300647188E+02  1.092818923E+02  4.838628172E+02  1.250000000E+02  0.00000E+00  9.000E+00
       2     1     1     2   502     0  1.086801012E+01  2.038154864E+01 -1.782604900E+03  1.782754541E+03  0.000000000E+00  0.00000E+00  9.000E+00
#rwgt            1           1   2.9752888479270823E-002           5       90037           0
</event>
<event>
      5   9999  3.19816E-02  3.51466E+01 -1.00000E+00  1.48412E-01
      21    -1     0     0   511   501  0.000000000E+00  0.000000000E+00  2.119745745E+03  2.119745745E+03  0.000000000E+00  0.00000E+00  9.000E+00
      21    -1     0     0   501   502  0.000000000E+00  0.000000000E+00 -1.746279422E+02  1.746279422E+02  0.000000000E+00  0.00000E+00  9.000E+00
      25     1     1     2     0     0 -2.866116932E+02 -4.617618744E+02  9.080948882E+02  1.065660179E+03  1.250000000E+02  0.00000E+00  9.000E+00
      25     1     1     2     0     0  3.214942688E+02  4.660615242E+02  7.940695121E+02  9.832310509E+02  1.250000000E+02  0.00000E+00  9.000E+00
      21     1     1     2   511   502 -3.488257560E+01 -4.299649857E+00  2.429534028E+02  2.454824576E+02  2.697398305E-06  0.00000E+00  9.000E+00
#rwgt            1           1   1.8090818955071919E-002           5       90239           0
</event>
<event>
      5   9999  3.19816E-02  1.58059E+02 -1.00000E+00  1.15500E-01
      21    -1     0     0   502   501  0.000000000E+00  0.000000000E+00  3.184499695E+02  3.184499695E+02  0.000000000E+00  0.00000E+00  9.000E+00
      21    -1     0     0   512   502  0.000000000E+00  0.000000000E+00 -4.780927021E+02  4.780927021E+02  0.000000000E+00  0.00000E+00  9.000E+00
      25     1     1     2     0     0  2.323389446E+01  6.165867314E+01  1.888856199E+02  2.358906171E+02  1.250000000E+02  0.00000E+00  9.000E+00
      25     1     1     2     0     0 -1.081740105E+02 -1.949547255E+02 -3.024934978E+02  3.960256024E+02  1.250000000E+02  0.00000E+00  9.000E+00
      21     1     1     2   512   501  8.494011608E+01  1.332960524E+02 -4.603485462E+01  1.646264521E+02  1.784161275E-06  0.00000E+00  9.000E+00
#rwgt            1           1   2.7103368613002308E-002           5       90366           0
</event>
<event>
      5   9999  3.19816E-02  3.25237E+01 -1.00000E+00  1.50643E-01
      21    -1     0     0   502   501  0.000000000E+00  0.000000000E+00  1.312197849E+02  1.312197849E+02  0.000000000E+00  0.00000E+00  9.000E+00
      21    -1     0     0   501   511  0.000000000E+00  0.000000000E+00 -1.248778004E+03  1.248778004E+03  0.000000000E+00  0.00000E+00  9.000E+00
      25     1     1     2     0     0 -2.169864415E+02  8.040046516E+01 -4.978625591E+02  5.630625883E+02  1.250000000E+02  0.00000E+00  9.000E+00
      25     1     1     2     0     0  2.029891123E+02 -1.097579973E+02 -7.733501685E+01  2.736002604E+02  1.250000000E+02  0.00000E+00  9.000E+00
      21     1     1     2   502   511  1.399732923E+01  2.935753209E+01 -5.423606430E+02  5.433349399E+02  1.078959322E-05  0.00000E+00  9.000E+00
#rwgt            1           1   2.7458213410550863E-002           5       90418           0
</event>
<event>
      5   9999  3.19816E-02  2.26039E+02 -1.00000E+00  1.09747E-01
      21    -1     0     0   502   512  0.000000000E+00  0.000000000E+00  9.981486459E+02  9.981486459E+02  0.000000000E+00  0.00000E+00  9.000E+00
      21    -1     0     0   501   502  0.000000000E+00  0.000000000E+00 -5.875441147E+02  5.875441147E+02  0.000000000E+00  0.00000E+00  9.000E+00
      25     1     1     2     0     0 -4.229312599E+02 -2.084048218E+02 -2.344842242E+02  5.412127786E+02  1.250000000E+02  0.00000E+00  9.000E+00
      25     1     1     2     0     0  5.761529819E+02  4.222201863E+01  5.132260761E+02  7.827904973E+02  1.250000000E+02  0.00000E+00  9.000E+00
      21     1     1     2   501   512 -1.532217220E+02  1.661828032E+02  1.318626794E+02  2.616894847E+02  3.814697266E-06  0.00000E+00  9.000E+00
#rwgt            1           1   3.1281366963184044E-002           5       90525           0
</event>
<event>
      5   9999  3.19816E-02  2.44192E+01 -1.00000E+00  1.59519E-01
      21    -1     0     0   502   511  0.000000000E+00  0.000000000E+00  6.080456513E+02  6.080456513E+02  0.000000000E+00  0.00000E+00  9.000E+00
      21    -1     0     0   501   502  0.000000000E+00  0.000000000E+00 -1.393047227E+03  1.393047227E+03  0.000000000E+00  0.00000E+00  9.000E+00
      25     1     1     2     0     0  1.943488573E+02  6.641728956E+02  6.794607215E+01  7.064975459E+02  1.250000000E+02  0.00000E+00  9.000E+00
      25     1     1     2     0     0 -1.736786700E+02 -6.511714021E+02 -9.629115815E+02  1.181952702E+03  1.250000000E+02  0.00000E+00  9.000E+00
      21     1     1     2   501   511 -2.067018727E+01 -1.300149354E+01  1.099639338E+02  1.126426305E+02  1.348699152E-06  0.00000E+00  9.000E+00
#rwgt            1           1   2.3391229614414994E-002           5       90585           0
</event>
<event>
      5   9999  3.19816E-02  3.49315E+02 -1.00000E+00  1.03488E-01
      -3    -1     0     0     0   501  0.000000000E+00  0.000000000E+00  3.467108111E+02  3.467108111E+02  0.000000000E+00  0.00000E+00  9.000E+00
      21    -1     0     0   501   502  0.000000000E+00  0.000000000E+00 -1.119441322E+03  1.119441322E+03  0.000000000E+00  0.00000E+00  9.000E+00
      25     1     1     2     0     0 -3.497451119E+02 -4.309851410E+01 -7.855986864E+02  8.700398964E+02  1.250000000E+02  0.00000E+00  9.000E+00
      25     1     1     2     0     0  4.558661315E-01  4.735454922E+01 -1.582391617E+02  2.071407576E+02  1.250000000E+02  0.00000E+00  9.000E+00
      -3     1     1     2     0   502  3.492892458E+02 -4.256035120E+00  1.711073370E+02  3.889714794E+02  1.112165812E-05  0.00000E+00  9.000E+00
#rwgt            2           3   2.8235419101338378E-004           5       90778           0
</event>
<event>
      5   9999  3.19816E-02  4.44221E+01 -1.00000E+00  1.42071E-01
       2    -1     0     0   502     0  0.000000000E+00  0.000000000E+00  3.486433793E+03  3.486433793E+03  0.000000000E+00  0.00000E+00  9.000E+00
      21    -1     0     0   501   502  0.000000000E+00  0.000000000E+00 -7.796841704E+01  7.796841704E+01  0.000000000E+00  0.00000E+00  9.000E+00
      25     1     1     2     0     0  3.431955541E+00 -1.617828461E+02  4.362195215E+02  4.817654393E+02  1.250000000E+02  0.00000E+00  9.000E+00
      25     1     1     2     0     0 -4.296785767E+01  1.415284941E+02  1.153682181E+02  2.254137910E+02  1.250000000E+02  0.00000E+00  9.000E+00
       2     1     1     2   501     0  3.953590213E+01  2.025435206E+01  2.856877636E+03  2.857222980E+03  0.000000000E+00  0.00000E+00  9.000E+00
#rwgt            1           1   3.4603812026095436E-002           5       90797           0
</event>
<event>
      5   9999  3.19816E-02  3.15026E+01 -1.00000E+00  1.51580E-01
      21    -1     0     0   511   501  0.000000000E+00  0.000000000E+00  3.388401957E+02  3.388401957E+02  0.000000000E+00  0.00000E+00  9.000E+00
      21    -1     0     0   501   502  0.000000000E+00  0.000000000E+00 -6.028323099E+02  6.028323099E+02  0.000000000E+00  0.00000E+00  9.000E+00
      25     1     1     2     0     0  3.521789836E+02 -1.986674099E+02  1.307005376E+00  4.232321875E+02  1.250000000E+02  0.00000E+00  9.000E+00
      25     1     1     2     0     0 -3.243557960E+02  2.134418569E+02 -2.659196818E+02  4.869316028E+02  1.250000000E+02  0.00000E+00  9.000E+00
      21     1     1     2   511   502 -2.782318758E+01 -1.477444691E+01  6.205621731E-01  3.150871539E+01  6.949438939E-08  0.00000E+00  9.000E+00
#rwgt            1           1   2.5621085924753578E-002           5       90836           0
</event>
<event>
      5   9999  3.19816E-02  2.77433E+01 -1.00000E+00  1.55437E-01
      21    -1     0     0   502   501  0.000000000E+00  0.000000000E+00  1.153789151E+01  1.153789151E+01  0.000000000E+00  0.00000E+00  9.000E+00
       2    -1     0     0   501     0  0.000000000E+00  0.000000000E+00 -2.617250141E+03  2.617250141E+03  0.000000000E+00  0.00000E+00  9.000E+00
      25     1     1     2     0     0  3.751934908E+01 -4.311929642E+01 -1.121122987E+03  1.129517033E+03  1.250000000E+02  0.00000E+00  9.000E+00
      25     1     1     2     0     0 -4.889104073E+01  6.842492425E+01 -7.965164304E+02  8.106390862E+02  1.250000000E+02  0.00000E+00  9.000E+00
       2     1     1     2   502     0  1.137169166E+01 -2.530562783E+01 -6.880728325E+02  6.886319140E+02  1.078959322E-05  0.00000E+00  9.000E+00
#rwgt            1           1  0.11294640141557098                5       90944           0
</event>
<event>
      5   9999  3.19816E-02  3.60010E+01 -1.00000E+00  1.47736E-01
      21    -1     0     0   502   501  0.000000000E+00  0.000000000E+00  6.710091374E+02  6.710091374E+02  0.000000000E+00  0.00000E+00  9.000E+00
       2    -1     0     0   501     0  0.000000000E+00  0.000000000E+00 -8.850516910E+02  8.850516910E+02  0.000000000E+00  0.00000E+00  9.000E+00
      25     1     1     2     0     0  5.373510317E+01 -2.092667639E+01 -9.460817015E+01  1.670362025E+02  1.250000000E+02  0.00000E+00  9.000E+00
      25     1     1     2     0     0 -8.947316952E+01  2.526963844E+01  6.247956375E+02  6.439243677E+02  1.250000000E+02  0.00000E+00  9.000E+00
       2     1     1     2   502     0  3.573806634E+01 -4.342962058E+00 -7.442300210E+02  7.451002582E+02  0.000000000E+00  0.00000E+00  9.000E+00
#rwgt            1           1   2.8316973381186151E-002           5       91031           0
</event>
<event>
      5   9999  3.19816E-02  7.04217E+01 -1.00000E+00  1.31089E-01
      21    -1     0     0   502   511  0.000000000E+00  0.000000000E+00  7.649417197E+02  7.649417197E+02  0.000000000E+00  0.00000E+00  9.000E+00
      21    -1     0     0   501   502  0.000000000E+00  0.000000000E+00 -5.538213552E+02  5.538213552E+02  0.000000000E+00  0.00000E+00  9.000E+00
      25     1     1     2     0     0  1.482034818E+02 -3.219965993E+02  1.825019096E+02  4.178253570E+02  1.250000000E+02  0.00000E+00  9.000E+00
      25     1     1     2     0     0 -2.029853010E+02  2.777454505E+02 -3.556020339E+02  5.103169351E+02  1.250000000E+02  0.00000E+00  9.000E+00
      21     1     1     2   501   511  5.478181926E+01  4.425114878E+01  3.842204889E+02  3.906207828E+02  5.394796609E-06  0.00000E+00  9.000E+00
#rwgt            1           1   3.3604035818062511E-002           5       91110           0
</event>
<event>
      5   9999  3.19816E-02  2.75695E+01 -1.00000E+00  1.55633E-01
      21    -1     0     0   502   501  0.000000000E+00  0.000000000E+00  1.012512837E+02  1.012512837E+02  0.000000000E+00  0.00000E+00  9.000E+00
      21    -1     0     0   512   502  0.000000000E+00  0.000000000E+00 -6.516336318E+02  6.516336318E+02  0.000000000E+00  0.00000E+00  9.000E+00
      25     1     1     2     0     0 -1.346612074E+02 -3.096226160E+00 -4.436853334E+02  4.802342163E+02  1.250000000E+02  0.00000E+00  9.000E+00
      25     1     1     2     0     0  1.468117926E+02 -2.165133653E+01 -3.676709932E+01  1.974824104E+02  1.250000000E+02  0.00000E+00  9.000E+00
      21     1     1     2   512   501 -1.215058523E+01  2.474756269E+01 -6.992991539E+01  7.516828884E+01  9.536743164E-07  0.00000E+00  9.000E+00
#rwgt            1           1   2.6768376401304389E-002           5       91190           0
</event>
<event>
      5   9999  3.19816E-02  5.31421E+00 -1.00000E+00  2.33983E-01
      21    -1     0     0   502   501  0.000000000E+00  0.000000000E+00  1.006367051E+03  1.006367051E+03  0.000000000E+00  0.00000E+00  9.000E+00
      21    -1     0     0   501   511  0.000000000E+00  0.000000000E+00 -3.784847399E+02  3.784847399E+02  0.000000000E+00  0.00000E+00  9.000E+00
      25     1     1     2     0     0  5.235271052E+01 -3.507813592E+00  9.877773918E+02  9.970367530E+02  1.250000000E+02  0.00000E+00  9.000E+00
      25     1     1     2     0     0 -4.742108679E+01  5.487691118E+00 -3.579745637E+02  3.821644443E+02  1.250000000E+02  0.00000E+00  9.000E+00
      21     1     1     2   502   511 -4.931623729E+00 -1.979877526E+00 -1.920516662E+00  5.650593940E+00  8.688795410E-08  0.00000E+00  9.000E+00
#rwgt            1           1   2.8829136180109610E-002           5       91359           0
</event>
<event>
      5   9999  3.19816E-02  1.83433E+02 -1.00000E+00  1.13032E-01
      21    -1     0     0   502   501  0.000000000E+00  0.000000000E+00  2.832434229E+03  2.832434229E+03  0.000000000E+00  0.00000E+00  9.000E+00
       2    -1     0     0   501     0  0.000000000E+00  0.000000000E+00 -2.898902370E+03  2.898902370E+03  0.000000000E+00  0.00000E+00  9.000E+00
      25     1     1     2     0     0 -1.207135392E+03 -1.450338081E+03  8.065260670E+02  2.055909945E+03  1.250000000E+02  0.00000E+00  9.000E+00
      25     1     1     2     0     0  1.080867836E+03  1.583394538E+03  7.350001153E+02  2.057003576E+03  1.250000000E+02  0.00000E+00  9.000E+00
       2     1     1     2   502     0  1.262675562E+02 -1.330564564E+02 -1.607994323E+03  1.618423078E+03  3.051757812E-05  0.00000E+00  9.000E+00
#rwgt            1           1   1.6785101055965566E-002           5       91754           0
</event>
<event>
      5   9999  3.19816E-02  2.31758E+02 -1.00000E+00  1.09367E-01
      21    -1     0     0   502   501  0.000000000E+00  0.000000000E+00  5.113002261E+02  5.113002261E+02  0.000000000E+00  0.00000E+00  9.000E+00
      21    -1     0     0   501   511  0.000000000E+00  0.000000000E+00 -2.453767749E+03  2.453767749E+03  0.000000000E+00  0.00000E+00  9.000E+00
      25     1     1     2     0     0  9.138099458E+02 -3.742399349E+02 -8.838020240E+02  1.331102988E+03  1.250000000E+02  0.00000E+00  9.000E+00
      25     1     1     2     0     0 -9.650385136E+02  1.482151076E+02 -7.035192567E+02  1.209889001E+03  1.250000000E+02  0.00000E+00  9.000E+00
      21     1     1     2   502   511  5.122856773E+01  2.260248273E+02 -3.551462424E+02  4.240759864E+02  6.607249480E-06  0.00000E+00  9.000E+00
#rwgt            2          11   4.5822181431060321E-003           5       92002           0
</event>
<event>
      5   9999  3.19816E-02  2.24593E+01 -1.00000E+00  1.62318E-01
      21    -1     0     0   502   501  0.000000000E+00  0.000000000E+00  6.074520961E+01  6.074520961E+01  0.000000000E+00  0.00000E+00  9.000E+00
      21    -1     0     0   512   502  0.000000000E+00  0.000000000E+00 -1.191136123E+03  1.191136123E+03  0.000000000E+00  0.00000E+00  9.000E+00
      25     1     1     2     0     0  1.109497967E+02  1.823163348E+02 -5.802934519E+02  6.308047191E+02  1.250000000E+02  0.00000E+00  9.000E+00
      25     1     1     2     0     0 -9.054884044E+01 -1.917088273E+02 -4.025476443E+02  4.718272702E+02  1.250000000E+02  0.00000E+00  9.000E+00
      21     1     1     2   512   501 -2.040095623E+01  9.392492453E+00 -1.475498168E+02  1.492493430E+02  3.814697266E-06  0.00000E+00  9.000E+00
#rwgt            1           1   3.1268766861821930E-002           5       92037           0
</event>
<event>
      5   9999  3.19816E-02  2.70339E+02 -1.00000E+00  1.07082E-01
      21    -1     0     0   502   501  0.000000000E+00  0.000000000E+00  2.076039034E+03  2.076039034E+03  0.000000000E+00  0.00000E+00  9.000E+00
      21    -1     0     0   511   502  0.000000000E+00  0.000000000E+00 -2.262106906E+02  2.262106906E+02  0.000000000E+00  0.00000E+00  9.000E+00
      25     1     1     2     0     0 -9.832789946E+01 -2.306282879E+02  1.300195105E+03  1.330033870E+03  1.250000000E+02  0.00000E+00  9.000E+00
      25     1     1     2     0     0  1.066174465E+02  5.008397446E+02  4.110430104E+02  6.684228348E+02  1.250000000E+02  0.00000E+00  9.000E+00
      21     1     1     2   511   501 -8.289547045E+00 -2.702114568E+02  1.385902282E+02  3.037930205E+02  4.264961200E-06  0.00000E+00  9.000E+00
#rwgt            1           1   3.0328338308919529E-002           5       92186           0
</event>
<event>
      5   9999  3.19816E-02  3.23917E+01 -1.00000E+00  1.50762E-01
      21    -1     0     0   502   501  0.000000000E+00  0.000000000E+00  1.465163204E+02  1.465163204E+02  0.000000000E+00  0.00000E+00  9.000E+00
      21    -1     0     0   512   502  0.000000000E+00  0.000000000E+00 -2.162889522E+03  2.162889522E+03  0.000000000E+00  0.00000E+00  9.000E+00
      25     1     1     2     0     0  2.540664719E+02  1.869311509E+02 -1.280550116E+02  3.626515040E+02  1.250000000E+02  0.00000E+00  9.000E+00
      25     1     1     2     0     0 -2.658090975E+02 -2.171194667E+02 -1.126320663E+03  1.184068653E+03  1.250000000E+02  0.00000E+00  9.000E+00
      21     1     1     2   512   501  1.174262556E+01  3.018831576E+01 -7.619975272E+02  7.626856856E+02  0.000000000E+00  0.00000E+00  9.000E+00
#rwgt            1           1   2.8736264217152405E-002           5       92226           0
</event>
<event>
      5   9999  3.19816E-02  1.26342E+02 -1.00000E+00  1.19427E-01
      21    -1     0     0   502   501  0.000000000E+00  0.000000000E+00  1.604683831E+02  1.604683831E+02  0.000000000E+00  0.00000E+00  9.000E+00
      21    -1     0     0   511   502  0.000000000E+00  0.000000000E+00 -7.759211902E+02  7.759211902E+02  0.000000000E+00  0.00000E+00  9.000E+00
      25     1     1     2     0     0 -2.041886960E+02  5.594297564E+00 -2.888994285E+02  3.752495163E+02  1.250000000E+02  0.00000E+00  9.000E+00
      25     1     1     2     0     0  2.790544113E+02 -1.073651804E+02 -1.925118262E+02  3.769409100E+02  1.250000000E+02  0.00000E+00  9.000E+00
      21     1     1     2   511   501 -7.486571527E+01  1.017708829E+02 -1.340415525E+02  1.841991469E+02  0.000000000E+00  0.00000E+00  9.000E+00
#rwgt            1           1   2.6179367355676456E-002           5       92365           0
</event>
<event>
      5   9999  3.19816E-02  9.26014E+01 -1.00000E+00  1.25348E-01
      21    -1     0     0   512   501  0.000000000E+00  0.000000000E+00  1.008181632E+03  1.008181632E+03  0.000000000E+00  0.00000E+00  9.000E+00
      21    -1     0     0   501   502  0.000000000E+00  0.000000000E+00 -5.731840702E+02  5.731840702E+02  0.000000000E+00  0.00000E+00  9.000E+00
      25     1     1     2     0     0  6.095718563E+02  1.232964926E+02  1.861908738E+02  6.611141464E+02  1.250000000E+02  0.00000E+00  9.000E+00
      25     1     1     2     0     0 -6.255126043E+02 -2.145155206E+02  1.984946660E+01  6.732770069E+02  1.250000000E+02  0.00000E+00  9.000E+00
      21     1     1     2   512   502  1.594074800E+01  9.121902799E+01  2.289572210E+02  2.469745484E+02  0.000000000E+00  0.00000E+00  9.000E+00
#rwgt            1           1   3.0587838479098541E-002           5       92428           0
</event>
<event>
      5   9999  3.19816E-02  1.82585E+02  7.55638E-03  1.13108E-01
      -1    -1     0     0     0   501  0.000000000E+00  0.000000000E+00  1.875420231E+03  1.875420231E+03  0.000000000E+00  0.00000E+00  9.000E+00
       1    -1     0     0   502     0  0.000000000E+00  0.000000000E+00 -1.099670114E+02  1.099670114E+02  0.000000000E+00  0.00000E+00  9.000E+00
      25     1     1     2     0     0  1.057084760E+02 -1.816443823E+02  1.249334032E+03  1.273039468E+03  1.250000000E+02  0.00000E+00  9.000E+00
      25     1     1     2     0     0 -2.241088348E+02  4.265352931E+01  4.468733468E+02  5.170733811E+02  1.250000000E+02  0.00000E+00  9.000E+00
      21     1     1     2   502   501  1.184003588E+02  1.389908529E+02  6.924584049E+01  1.952743931E+02  3.303624740E-06  0.00000E+00  9.000E+00
#rwgt            3           5   2.5172230224849764E-006           5       92567           0
</event>
<event>
      5   9999  3.19816E-02  2.95670E+01 -1.00000E+00  1.53480E-01
      21    -1     0     0   502   501  0.000000000E+00  0.000000000E+00  3.170655738E+01  3.170655738E+01  0.000000000E+00  0.00000E+00  9.000E+00
       2    -1     0     0   501     0  0.000000000E+00  0.000000000E+00 -1.998052519E+03  1.998052519E+03  0.000000000E+00  0.00000E+00  9.000E+00
      25     1     1     2     0     0 -1.507755241E+02  1.136279348E+02 -5.942503915E+02  6.359269565E+02  1.250000000E+02  0.00000E+00  9.000E+00
      25     1     1     2     0     0  1.233262509E+02 -1.246164357E+02 -1.182326905E+03  1.201773910E+03  1.250000000E+02  0.00000E+00  9.000E+00
       2     1     1     2   502     0  2.744927324E+01  1.098850086E+01 -1.897686652E+02  1.920582101E+02  2.697398305E-06  0.00000E+00  9.000E+00
#rwgt            1           1   4.4415290776710109E-002           5       92601           0
</event>
<event>
      5   9999  3.19816E-02  2.73532E+01 -1.00000E+00  1.55879E-01
      21    -1     0     0   511   501  0.000000000E+00  0.000000000E+00  1.070250755E+02  1.070250755E+02  0.000000000E+00  0.00000E+00  9.000E+00
      21    -1     0     0   501   502  0.000000000E+00  0.000000000E+00 -5.645261519E+02  5.645261519E+02  0.000000000E+00  0.00000E+00  9.000E+00
      25     1     1     2     0     0 -5.138344653E+01 -1.334557022E+02 -7.087384974E+01  2.027283542E+02  1.250000000E+02  0.00000E+00  9.000E+00
      25     1     1     2     0     0  7.395829098E+01  1.489015578E+02 -3.892530661E+02  4.413439160E+02  1.250000000E+02  0.00000E+00  9.000E+00
      21     1     1     2   511   502 -2.257484445E+01 -1.544585559E+01  2.625839425E+00  2.747895721E+01  6.350063012E-07  0.00000E+00  9.000E+00
#rwgt            1           1   2.6249597114763285E-002           5       92723           0
</event>
<event>
      5   9999  3.19816E-02  2.13364E+02 -1.00000E+00  1.10635E-01
       1    -1     0     0   502     0  0.000000000E+00  0.000000000E+00  4.259632160E+02  4.259632160E+02  0.000000000E+00  0.00000E+00  9.000E+00
      21    -1     0     0   501   502  0.000000000E+00  0.000000000E+00 -1.406049683E+03  1.406049683E+03  0.000000000E+00  0.00000E+00  9.000E+00
      25     1     1     2     0     0  1.854552940E+02 -6.830252167E+02 -6.043847170E+02  9.390543109E+02  1.250000000E+02  0.00000E+00  9.000E+00
      25     1     1     2     0     0 -2.334044747E+02  4.751187084E+02 -1.147535803E+02  5.558856179E+02  1.250000000E+02  0.00000E+00  9.000E+00
       1     1     1     2   501     0  4.794918075E+01  2.079065082E+02 -2.609481700E+02  3.370729707E+02  3.814697266E-06  0.00000E+00  9.000E+00
#rwgt            1           1   2.3255118900061041E-002           5       92818           0
</event>
<event>
      5   9999  3.19816E-02  2.49191E+02 -1.00000E+00  1.08278E-01
      21    -1     0     0   502   501  0.000000000E+00  0.000000000E+00  7.323287223E+02  7.323287223E+02  0.000000000E+00  0.00000E+00  9.000E+00
       5    -1     0     0   501     0  0.000000000E+00  0.000000000E+00 -5.627764117E+02  5.627764117E+02  0.000000000E+00  0.00000E+00  9.000E+00
      25     1     1     2     0     0 -4.196948508E+02 -3.124558964E+02  1.996296831E+02  5.738026362E+02  1.250000000E+02  0.00000E+00  9.000E+00
      25     1     1     2     0     0  3.195324205E+02  8.428094755E+01  1.789543506E+02  3.960478575E+02  1.250000000E+02  0.00000E+00  9.000E+00
       5     1     1     2   502     0  1.001624303E+02  2.281749489E+02 -2.090317231E+02  3.252546403E+02  5.394796609E-06  0.00000E+00  9.000E+00
#rwgt            1           1   3.1356539963639109E-002           5       92894           0
</event>
<event>
      5   9999  3.19816E-02  6.48858E+01 -1.00000E+00  1.32911E-01
      21    -1     0     0   502   501  0.000000000E+00  0.000000000E+00  4.915844969E+02  4.915844969E+02  0.000000000E+00  0.00000E+00  9.000E+00
      21    -1     0     0   501   511  0.000000000E+00  0.000000000E+00 -9.564197763E+02  9.564197763E+02  0.000000000E+00  0.00000E+00  9.000E+00
      25     1     1     2     0     0  1.336340146E+02  3.900743583E+02  2.903557847E+02  5.195647568E+02  1.250000000E+02  0.00000E+00  9.000E+00
      25     1     1     2     0     0 -1.934668975E+02 -4.151780396E+02 -6.523010143E+02  8.067985239E+02  1.250000000E+02  0.00000E+00  9.000E+00
      21     1     1     2   502   511  5.983288287E+01  2.510368128E+01 -1.028900498E+02  1.216409924E+02  1.348699152E-06  0.00000E+00  9.000E+00
#rwgt            1           1   2.7731054802093976E-002           5       92996           0
</event>
<event>
      5   9999  3.19816E-02  1.50310E+02 -1.00000E+00  1.16358E-01
      21    -1     0     0   502   501  0.000000000E+00  0.000000000E+00  1.705916818E+03  1.705916818E+03  0.000000000E+00  0.00000E+00  9.000E+00
      21    -1     0     0   501   512  0.000000000E+00  0.000000000E+00 -6.338945682E+02  6.338945682E+02  0.000000000E+00  0.00000E+00  9.000E+00
      25     1     1     2     0     0  8.891620351E+02  2.151139585E+02  3.969813634E+02  1.005038478E+03  1.250000000E+02  0.00000E+00  9.000E+00
      25     1     1     2     0     0 -7.537457198E+02 -2.803473274E+02  7.985785765E+02  1.140210497E+03  1.250000000E+02  0.00000E+00  9.000E+00
      21     1     1     2   502   512 -1.354163153E+02  6.523336889E+01 -1.235376903E+02  1.945624110E+02  2.697398305E-06  0.00000E+00  9.000E+00
#rwgt            1           1   2.2874126160716452E-002           5       93152           0
</event>
<event>
      5   9999  3.19816E-02  6.92417E+01 -1.00000E+00  1.31461E-01
      21    -1     0     0   511   501  0.000000000E+00  0.000000000E+00  1.836661449E+03  1.836661449E+03  0.000000000E+00  0.00000E+00  9.000E+00
      21    -1     0     0   501   502  0.000000000E+00  0.000000000E+00 -3.899138555E+02  3.899138555E+02  0.000000000E+00  0.00000E+00  9.000E+00
      25     1     1     2     0     0 -1.357352204E+02  6.242416282E+02  1.132029976E+03  1.305840161E+03  1.250000000E+02  0.00000E+00  9.000E+00
      25     1     1     2     0     0  2.043399988E+02 -6.148717368E+02  6.671524056E+01  6.632480766E+02  1.250000000E+02  0.00000E+00  9.000E+00
      21     1     1     2   511   502 -6.860477838E+01 -9.369891380E+00  2.480023772E+02  2.574870668E+02  2.697398305E-06  0.00000E+00  9.000E+00
#rwgt            1           1   3.3128548221617128E-002           5       93252           0
</event>
<event>
      5   9999  3.19816E-02  1.05521E+02 -1.00000E+00  1.22787E-01
      21    -1     0     0   502   501  0.000000000E+00  0.000000000E+00  1.376605965E+03  1.376605965E+03  0.000000000E+00  0.00000E+00  9.000E+00
      21    -1     0     0   512   502  0.000000000E+00  0.000000000E+00 -3.388223244E+02  3.388223244E+02  0.000000000E+00  0.00000E+00  9.000E+00
      25     1     1     2     0     0 -1.682529420E+02  2.850940200E+02  6.759863187E+02  7.630007574E+02  1.250000000E+02  0.00000E+00  9.000E+00
      25     1     1     2     0     0  2.711397206E+02 -2.616639549E+02  5.841616287E+02  7.062963838E+02  1.250000000E+02  0.00000E+00  9.000E+00
      21     1     1     2   512   501 -1.028867786E+02 -2.343006511E+01 -2.223643068E+02  2.461311482E+02  8.092194914E-06  0.00000E+00  9.000E+00
#rwgt            1           1   3.2890159497752355E-002           5       93391           0
</event>
<event>
      5   9999  3.19816E-02  1.05492E+02 -1.00000E+00  1.22792E-01
       2    -1     0     0   502     0  0.000000000E+00  0.000000000E+00  9.110729803E+02  9.110729803E+02  0.000000000E+00  0.00000E+00  9.000E+00
      21    -1     0     0   501   502  0.000000000E+00  0.000000000E+00 -1.580868728E+02  1.580868728E+02  0.000000000E+00  0.00000E+00  9.000E+00
      25     1     1     2     0     0  1.709306294E+02 -4.337384460E+01  1.297682464E+01  2.165455343E+02  1.250000000E+02  0.00000E+00  9.000E+00
      25     1     1     2     0     0 -2.361694398E+02  1.262742184E+02  4.048707624E+02  5.012649168E+02  1.250000000E+02  0.00000E+00  9.000E+00
       2     1     1     2   501     0  6.523881041E+01 -8.290037383E+01  3.351385205E+02  3.513494020E+02  3.814697266E-06  0.00000E+00  9.000E+00
#rwgt            2          18   3.5253427703409092E-004           5       93747           0
</event>
<event>
      5   9999  3.19816E-02  6.12874E+01 -1.00000E+00  1.34213E-01
      21    -1     0     0   502   501  0.000000000E+00  0.000000000E+00  6.903043030E+02  6.903043030E+02  0.000000000E+00  0.00000E+00  9.000E+00
      21    -1     0     0   501   511  0.000000000E+00  0.000000000E+00 -4.757744443E+02  4.757744443E+02  0.000000000E+00  0.00000E+00  9.000E+00
      25     1     1     2     0     0 -3.413297015E+00 -3.942097023E+02  1.277045329E+02  4.328352894E+02  1.250000000E+02  0.00000E+00  9.000E+00
      25     1     1     2     0     0  5.372054185E+01  4.292143972E+02  2.802411076E+02  5.303498598E+02  1.250000000E+02  0.00000E+00  9.000E+00
      21     1     1     2   502   511 -5.030724483E+01 -3.500469490E+01 -1.934157818E+02  2.028935982E+02  2.697398305E-06  0.00000E+00  9.000E+00
#rwgt            1           1   3.0818324795688124E-002           5       93766           0
</event>
<event>
      5   9999  3.19816E-02  1.33194E+02 -1.00000E+00  1.18476E-01
      21    -1     0     0   512   501  0.000000000E+00  0.000000000E+00  1.500013060E+03  1.500013060E+03  0.000000000E+00  0.00000E+00  9.000E+00
      21    -1     0     0   501   502  0.000000000E+00  0.000000000E+00 -4.841771887E+02  4.841771887E+02  0.000000000E+00  0.00000E+00  9.000E+00
      25     1     1     2     0     0 -4.763433864E+02 -3.540554147E+02  6.249863125E+02  8.709139735E+02  1.250000000E+02  0.00000E+00  9.000E+00
      25     1     1     2     0     0  5.181008242E+02  2.275762586E+02 -1.144523564E+02  5.907146176E+02  1.250000000E+02  0.00000E+00  9.000E+00
      21     1     1     2   512   502 -4.175743786E+01  1.264791561E+02  5.053019153E+02  5.225616578E+02  1.078959322E-05  0.00000E+00  9.000E+00
#rwgt            2          11   2.5161032765734009E-003           5       93849           0
</event>
<event>
      5   9999  3.19816E-02  1.35206E+02 -1.00000E+00  1.18209E-01
      21    -1     0     0   502   501  0.000000000E+00  0.000000000E+00  8.009550972E+02  8.009550972E+02  0.000000000E+00  0.00000E+00  9.000E+00
      21    -1     0     0   501   511  0.000000000E+00  0.000000000E+00 -8.635766468E+02  8.635766468E+02  0.000000000E+00  0.00000E+00  9.000E+00
      25     1     1     2     0     0  2.551361828E+02  7.273822413E+01  6.213833318E+02  6.871153950E+02  1.250000000E+02  0.00000E+00  9.000E+00
      25     1     1     2     0     0 -3.882468771E+02 -9.644958121E+01 -1.809614925E+02  4.565196831E+02  1.250000000E+02  0.00000E+00  9.000E+00
      21     1     1     2   502   511  1.331106943E+02  2.371135708E+01 -5.030433889E+02  5.208966659E+02  5.394796609E-06  0.00000E+00  9.000E+00
#rwgt            1           1   2.7981659299630941E-002           5       93869           0
</event>
<event>
      5   9999  3.19816E-02  7.67196E+02 -1.00000E+00  9.38419E-02
       2    -1     0     0   502     0  0.000000000E+00  0.000000000E+00  5.598257483E+02  5.598257483E+02  0.000000000E+00  0.00000E+00  9.000E+00
      21    -1     0     0   501   502  0.000000000E+00  0.000000000E+00 -2.178600066E+03  2.178600066E+03  0.000000000E+00  0.00000E+00  9.000E+00
      25     1     1     2     0     0 -1.037387482E+02 -1.980096632E-01 -3.947822858E+02  4.268955614E+02  1.250000000E+02  0.00000E+00  9.000E+00
      25     1     1     2     0     0  6.861752994E+01 -7.661933866E+02  9.553319424E+01  7.851829483E+02  1.250000000E+02  0.00000E+00  9.000E+00
       2     1     1     2   501     0  3.512121831E+01  7.663913963E+02 -1.319525226E+03  1.526347305E+03  2.642899792E-05  0.00000E+00  9.000E+00
#rwgt            2          18   2.7749771641193218E-005           5       93980           0
</event>
<event>
      5   9999  3.19816E-02  5.38927E+01 -1.00000E+00  1.37243E-01
      21    -1     0     0   511   501  0.000000000E+00  0.000000000E+00  7.003713967E+02  7.003713967E+02  0.000000000E+00  0.00000E+00  9.000E+00
      21    -1     0     0   501   502  0.000000000E+00  0.000000000E+00 -5.186715255E+02  5.186715255E+02  0.000000000E+00  0.00000E+00  9.000E+00
      25     1     1     2     0     0 -1.569048660E+02 -1.275235215E+00 -4.419902745E+02  4.853876450E+02  1.250000000E+02  0.00000E+00  9.000E+00
      25     1     1     2     0     0  1.255152226E+02  4.508294861E+01  1.022619189E+02  2.094493815E+02  1.250000000E+02  0.00000E+00  9.000E+00
      21     1     1     2   511   502  3.138964337E+01 -4.380771340E+01  5.214282267E+02  5.242058957E+02  7.629394531E-06  0.00000E+00  9.000E+00
#rwgt            1           1   2.7567029940234120E-002           5       93999           0
</event>
<event>
      5   9999  3.19816E-02  8.24369E+01 -1.00000E+00  1.27722E-01
      21    -1     0     0   502   512  0.000000000E+00  0.000000000E+00  5.836785757E+02  5.836785757E+02  0.000000000E+00  0.00000E+00  9.000E+00
      21    -1     0     0   501   502  0.000000000E+00  0.000000000E+00 -5.604488144E+02  5.604488144E+02  0.000000000E+00  0.00000E+00  9.000E+00
      25     1     1     2     0     0  1.299304948E+02 -2.721041811E+02  1.839878185E+02  3.746987272E+02  1.250000000E+02  0.00000E+00  9.000E+00
      25     1     1     2     0     0 -1.010445983E+02  3.493145567E+02 -3.766963934E+02  5.382897390E+02  1.250000000E+02  0.00000E+00  9.000E+00
      21     1     1     2   501   512 -2.888589649E+01 -7.721037560E+01  2.159383362E+02  2.311389240E+02  0.000000000E+00  0.00000E+00  9.000E+00
#rwgt            1           1   2.2344556242387507E-002           5       94110           0
</event>
<event>
      5   9999  3.19816E-02  5.30770E+01 -1.00000E+00  1.37612E-01
      21    -1     0     0   502   511  0.000000000E+00  0.000000000E+00  6.217785639E+02  6.217785639E+02  0.000000000E+00  0.00000E+00  9.000E+00
      21    -1     0     0   501   502  0.000000000E+00  0.000000000E+00 -6.988007835E+02  6.988007835E+02  0.000000000E+00  0.00000E+00  9.000E+00
      25     1     1     2     0     0 -2.815070448E+02  1.209216673E+02  3.175772791E+02  4.586377591E+02  1.250000000E+02  0.00000E+00  9.000E+00
      25     1     1     2     0     0  2.885939427E+02 -6.831996191E+01 -5.831486939E+02  6.660641712E+02  1.250000000E+02  0.00000E+00  9.000E+00
      21     1     1     2   501   511 -7.086897904E+00 -5.260170534E+01  1.885491951E+02  1.958774170E+02  0.000000000E+00  0.00000E+00  9.000E+00
#rwgt            1           1   3.0758942189540738E-002           5       94203           0
</event>
<event>
      5   9999  3.19816E-02  5.98421E+01 -1.00000E+00  1.34765E-01
      21    -1     0     0   512   501  0.000000000E+00  0.000000000E+00  2.372749771E+02  2.372749771E+02  0.000000000E+00  0.00000E+00  9.000E+00
      21    -1     0     0   501   502  0.000000000E+00  0.000000000E+00 -3.614381332E+02  3.614381332E+02  0.000000000E+00  0.00000E+00  9.000E+00
      25     1     1     2     0     0  3.511673218E+01  2.057846409E+02 -6.754305358E+01  2.525224097E+02  1.250000000E+02  0.00000E+00  9.000E+00
      25     1     1     2     0     0  2.450789491E+01 -2.006877033E+02 -1.136979496E+02  2.634927227E+02  1.250000000E+02  0.00000E+00  9.000E+00
      21     1     1     2   512   502 -5.962462709E+01 -5.096937602E+00  5.707784704E+01  8.269797791E+01  9.536743164E-07  0.00000E+00  9.000E+00
#rwgt            1           1   2.9604561395397563E-002           5       94327           0
</event>
<event>
      5   9999  3.19816E-02  1.85481E+01 -1.00000E+00  1.69116E-01
      21    -1     0     0   502   501  0.000000000E+00  0.000000000E+00  2.378018123E+02  2.378018123E+02  0.000000000E+00  0.00000E+00  9.000E+00
      21    -1     0     0   501   511  0.000000000E+00  0.000000000E+00 -6.429636919E+02  6.429636919E+02  0.000000000E+00  0.00000E+00  9.000E+00
      25     1     1     2     0     0 -1.105853595E+02 -2.500584238E+02  3.875154500E+01  3.031254184E+02  1.250000000E+02  0.00000E+00  9.000E+00
      25     1     1     2     0     0  9.320791917E+01  2.435734450E+02 -2.483719288E+02  3.812208734E+02  1.250000000E+02  0.00000E+00  9.000E+00
      21     1     1     2   502   511  1.737744031E+01  6.484978789E+00 -1.955414958E+02  1.964192123E+02  0.000000000E+00  0.00000E+00  9.000E+00
#rwgt            1           1   2.6136847930793995E-002           5       94415           0
</event>
<event>
      5   9999  3.19816E-02  2.55214E+02 -1.00000E+00  1.07925E-01
      21    -1     0     0   502   501  0.000000000E+00  0.000000000E+00  5.975792394E+02  5.975792394E+02  0.000000000E+00  0.00000E+00  9.000E+00
      21    -1     0     0   512   502  0.000000000E+00  0.000000000E+00 -2.558225715E+02  2.558225715E+02  0.000000000E+00  0.00000E+00  9.000E+00
      25     1     1     2     0     0 -1.847032342E+02  2.269707199E+01  2.209976520E+01  2.252639372E+02  1.250000000E+02  0.00000E+00  9.000E+00
      25     1     1     2     0     0  1.132758545E+02  2.223177917E+02  2.150478657E+02  3.523169088E+02  1.250000000E+02  0.00000E+00  9.000E+00
      21     1     1     2   512   501  7.142737972E+01 -2.450148637E+02  1.046090370E+02  2.758209648E+02  2.336015456E-06  0.00000E+00  9.000E+00
#rwgt            1           1   2.3583484897821718E-002           5       94557           0
</event>
<event>
      5   9999  3.19816E-02  8.74040E+01 -1.00000E+00  1.26516E-01
      21    -1     0     0   502   501  0.000000000E+00  0.000000000E+00  6.025709734E+02  6.025709734E+02  0.000000000E+00  0.00000E+00  9.000E+00
      21    -1     0     0   501   511  0.000000000E+00  0.000000000E+00 -2.977966210E+03  2.977966210E+03  0.000000000E+00  0.00000E+00  9.000E+00
      25     1     1     2     0     0  9.767364413E+02  3.767150374E+02 -3.639706385E+02  1.115359996E+03  1.250000000E+02  0.00000E+00  9.000E+00
      25     1     1     2     0     0 -9.906978289E+02 -2.904332609E+02 -9.764031021E+02  1.426471761E+03  1.250000000E+02  0.00000E+00  9.000E+00
      21     1     1     2   502   511  1.396138760E+01 -8.628177646E+01 -1.035021496E+03  1.038705426E+03  2.157918644E-05  0.00000E+00  9.000E+00
#rwgt            1           1   3.0284091785716269E-002           5       94599           0
</event>
<event>
      5   9999  3.19816E-02  1.39092E+02 -1.00000E+00  1.17708E-01
      21    -1     0     0   502   501  0.000000000E+00  0.000000000E+00  2.313544128E+02  2.313544128E+02  0.000000000E+00  0.00000E+00  9.000E+00
      21    -1     0     0   501   512  0.000000000E+00  0.000000000E+00 -9.598038033E+02  9.598038033E+02  0.000000000E+00  0.00000E+00  9.000E+00
      25     1     1     2     0     0 -1.493605289E+02  3.794928079E+01  1.313958473E+02  2.379886220E+02  1.250000000E+02  0.00000E+00  9.000E+00
      25     1     1     2     0     0  1.011412932E+02 -1.684158132E+02 -3.203564546E+02  3.960387675E+02  1.250000000E+02  0.00000E+00  9.000E+00
      21     1     1     2   502   512  4.821923574E+01  1.304665324E+02 -5.394887832E+02  5.571308266E+02  7.629394531E-06  0.00000E+00  9.000E+00
#rwgt            1           1   2.8256443353755243E-002           5       94696           0
</event>
<event>
      5   9999  3.19816E-02  8.98998E+01 -1.00000E+00  1.25944E-01
      21    -1     0     0   502   501  0.000000000E+00  0.000000000E+00  8.147000011E+02  8.147000011E+02  0.000000000E+00  0.00000E+00  9.000E+00
      21    -1     0     0   511   502  0.000000000E+00  0.000000000E+00 -1.532106142E+02  1.532106142E+02  0.000000000E+00  0.00000E+00  9.000E+00
      25     1     1     2     0     0  2.450666356E+02  8.188569582E+01  4.387737574E+02  5.243189232E+02  1.250000000E+02  0.00000E+00  9.000E+00
      25     1     1     2     0     0 -1.648094658E+02 -4.137940518E+01  2.695038967E+02  3.422451834E+02  1.250000000E+02  0.00000E+00  9.000E+00
      21     1     1     2   511   501 -8.025716978E+01 -4.050629063E+01 -4.678826719E+01  1.013465087E+02  2.611744678E-06  0.00000E+00  9.000E+00
#rwgt            2          11   2.6164392998045765E-003           5       94822           0
</event>
<event>
      5   9999  3.19816E-02  1.08468E+02 -1.00000E+00  1.22261E-01
      21    -1     0     0   502   512  0.000000000E+00  0.000000000E+00  2.285289542E+02  2.285289542E+02  0.000000000E+00  0.00000E+00  9.000E+00
      21    -1     0     0   501   502  0.000000000E+00  0.000000000E+00 -8.727242246E+02  8.727242246E+02  0.000000000E+00  0.00000E+00  9.000E+00
      25     1     1     2     0     0 -8.433871550E+01  2.525347097E+02  1.283358358E+01  2.944087285E+02  1.250000000E+02  0.00000E+00  9.000E+00
      25     1     1     2     0     0  1.760715697E+02 -1.946512352E+02 -6.318070817E+02  6.954821993E+02  1.250000000E+02  0.00000E+00  9.000E+00
      21     1     1     2   501   512 -9.173285423E+01 -5.788347453E+01 -2.522177227E+01  1.113622511E+02  1.784161275E-06  0.00000E+00  9.000E+00
#rwgt            1           1   2.7782157084319716E-002           5       94842           0
</event>
<event>
      5   9999  3.19816E-02  4.82645E+01 -1.00000E+00  1.39957E-01
       2    -1     0     0   502     0  0.000000000E+00  0.000000000E+00  3.129184357E+03  3.129184357E+03  0.000000000E+00  0.00000E+00  9.000E+00
      21    -1     0     0   501   502  0.000000000E+00  0.000000000E+00 -9.508528341E+01  9.508528341E+01  0.000000000E+00  0.00000E+00  9.000E+00
      25     1     1     2     0     0  2.451077501E+02 -7.581759346E+01  7.366857060E+02  7.900360410E+02  1.250000000E+02  0.00000E+00  9.000E+00
      25     1     1     2     0     0 -2.139803268E+02  1.127032216E+02  2.038202923E+02  3.400842659E+02  1.250000000E+02  0.00000E+00  9.000E+00
       2     1     1     2   501     0 -3.112742333E+01 -3.688562811E+01  2.093593075E+03  2.094149333E+03  4.315837288E-05  0.00000E+00  9.000E+00
#rwgt            1           1   2.9138174188261173E-002           5       94928           0
</event>
<event>
      5   9999  3.19816E-02  5.09181E+01 -1.00000E+00  1.38626E-01
      21    -1     0     0   502   511  0.000000000E+00  0.000000000E+00  6.201763479E+01  6.201763479E+01  0.000000000E+00  0.00000E+00  9.000E+00
      21    -1     0     0   501   502  0.000000000E+00  0.000000000E+00 -1.401023607E+03  1.401023607E+03  0.000000000E+00  0.00000E+00  9.000E+00
      25     1     1     2     0     0  1.459803814E+02  6.681264676E+01 -1.056478006E+03  1.075892642E+03  1.250000000E+02  0.00000E+00  9.000E+00
      25     1     1     2     0     0 -1.181633154E+02 -1.094607301E+02 -2.626289069E+02  3.324803201E+02  1.250000000E+02  0.00000E+00  9.000E+00
      21     1     1     2   501   511 -2.781706599E+01  4.264808333E+01 -1.989905949E+01  5.466827910E+01  2.172096629E-06  0.00000E+00  9.000E+00
#rwgt            1           1   3.4891402609845933E-002           5       95093           0
</event>
<event>
      5   9999  3.19816E-02  5.43306E+01 -1.00000E+00  1.37048E-01
      21    -1     0     0   512   501  0.000000000E+00  0.000000000E+00  1.102703450E+02  1.102703450E+02  0.000000000E+00  0.00000E+00  9.000E+00
      21    -1     0     0   501   502  0.000000000E+00  0.000000000E+00 -1.158332116E+03  1.158332116E+03  0.000000000E+00  0.00000E+00  9.000E+00
      25     1     1     2     0     0  2.044419733E+02 -1.325142122E+02 -1.990891689E+02  3.385528526E+02  1.250000000E+02  0.00000E+00  9.000E+00
      25     1     1     2     0     0 -1.881934620E+02  1.843582103E+02 -8.159048063E+02  8.664469873E+02  1.250000000E+02  0.00000E+00  9.000E+00
      21     1     1     2   512   502 -1.624851125E+01 -5.184399815E+01 -3.306779566E+01  6.360262079E+01  9.536743164E-07  0.00000E+00  9.000E+00
#rwgt            1           1   2.8122218220705399E-002           5       95148           0
</event>
<event>
      5   9999  3.19816E-02  2.70248E+01 -1.00000E+00  1.56259E-01
       1    -1     0     0   502     0  0.000000000E+00  0.000000000E+00  1.671836786E+03  1.671836786E+03  0.000000000E+00  0.00000E+00  9.000E+00
      21    -1     0     0   501   502  0.000000000E+00  0.000000000E+00 -3.711610343E+02  3.711610343E+02  0.000000000E+00  0.00000E+00  9.000E+00
      25     1     1     2     0     0 -1.125832120E+02  4.792106501E+02  5.206733388E+02  7.273538014E+02  1.250000000E+02  0.00000E+00  9.000E+00
      25     1     1     2     0     0  8.817938621E+01 -4.676006781E+02 -4.146606036E+01  4.937311338E+02  1.250000000E+02  0.00000E+00  9.000E+00
       1     1     1     2   501     0  2.440382579E+01 -1.160997198E+01  8.214684733E+02  8.219128851E+02  0.000000000E+00  0.00000E+00  9.000E+00
#rwgt            1           1   2.9727220660510166E-002           5       95242           0
</event>
<event>
      5   9999  3.19816E-02  1.64190E+02 -1.00000E+00  1.14859E-01
      21    -1     0     0   511   501  0.000000000E+00  0.000000000E+00  9.725181703E+01  9.725181703E+01  0.000000000E+00  0.00000E+00  9.000E+00
      21    -1     0     0   501   502  0.000000000E+00  0.000000000E+00 -1.284306358E+03  1.284306358E+03  0.000000000E+00  0.00000E+00  9.000E+00
      25     1     1     2     0     0 -1.196120571E+02 -2.801009901E+01 -7.497912785E+02  7.700023190E+02  1.250000000E+02  0.00000E+00  9.000E+00
      25     1     1     2     0     0  1.157181427E+02  1.921543105E+02 -2.130948551E+02  3.336890542E+02  1.250000000E+02  0.00000E+00  9.000E+00
      21     1     1     2   511   502  3.893914323E+00 -1.641442115E+02 -2.241684072E+02  2.778668018E+02  2.697398305E-06  0.00000E+00  9.000E+00
#rwgt            1           1   3.4408318567108735E-002           5       95429           0
</event>
<event>
      5   9999  3.19816E-02  5.36610E+01 -1.00000E+00  1.37347E-01
      21    -1     0     0   502   501  0.000000000E+00  0.000000000E+00  8.286893371E+01  8.286893371E+01  0.000000000E+00  0.00000E+00  9.000E+00
       4    -1     0     0   501     0  0.000000000E+00  0.000000000E+00 -6.911395820E+02  6.911395820E+02  0.000000000E+00  0.00000E+00  9.000E+00
      25     1     1     2     0     0 -1.533193316E+02 -5.134696368E+01 -3.238674241E+02  3.829600978E+02  1.250000000E+02  0.00000E+00  9.000E+00
      25     1     1     2     0     0  1.116955710E+02  8.521387249E+01 -1.327583183E+02  2.301892172E+02  1.250000000E+02  0.00000E+00  9.000E+00
       4     1     1     2   502     0  4.162376056E+01 -3.386690881E+01 -1.516449059E+02  1.608592007E+02  3.303624740E-06  0.00000E+00  9.000E+00
#rwgt            1           1   2.5450560764878113E-002           5       95507           0
</event>
<event>
      5   9999  3.19816E-02  2.39017E+01 -1.00000E+00  1.60226E-01
      21    -1     0     0   502   501  0.000000000E+00  0.000000000E+00  4.371824423E+02  4.371824423E+02  0.000000000E+00  0.00000E+00  9.000E+00
      21    -1     0     0   501   511  0.000000000E+00  0.000000000E+00 -2.338095915E+02  2.338095915E+02  0.000000000E+00  0.00000E+00  9.000E+00
      25     1     1     2     0     0 -1.522798837E+02  1.426829834E+02  2.983499112E+02  3.849483942E+02  1.250000000E+02  0.00000E+00  9.000E+00
      25     1     1     2     0     0  1.361287483E+02 -1.603020901E+02 -9.411388006E+01  2.621263409E+02  1.250000000E+02  0.00000E+00  9.000E+00
      21     1     1     2   502   511  1.615113540E+01  1.761910673E+01 -8.631803355E-01  2.391729869E+01  6.170052473E-07  0.00000E+00  9.000E+00
#rwgt            1           1   2.6900808707447352E-002           5       95582           0
</event>
<event>
      5   9999  3.19816E-02  2.64339E+01 -1.00000E+00  1.56958E-01
      21    -1     0     0   502   501  0.000000000E+00  0.000000000E+00  3.225512614E+03  3.225512614E+03  0.000000000E+00  0.00000E+00  9.000E+00
      21    -1     0     0   501   512  0.000000000E+00  0.000000000E+00 -3.342573527E+01  3.342573527E+01  0.000000000E+00  0.00000E+00  9.000E+00
      25     1     1     2     0     0  1.810119679E+02  2.112530278E+02  1.337308449E+03  1.371645749E+03  1.250000000E+02  0.00000E+00  9.000E+00
      25     1     1     2     0     0 -2.004993042E+02 -1.933925886E+02  1.807667316E+03  1.833272154E+03  1.250000000E+02  0.00000E+00  9.000E+00
      21     1     1     2   502   512  1.948733633E+01 -1.786043917E+01  4.711111447E+01  5.402044679E+01  9.536743164E-07  0.00000E+00  9.000E+00
#rwgt            1           1   2.6484631826391325E-002           5       95756           0
</event>
<event>
      5   9999  3.19816E-02  1.56450E+02 -1.00000E+00  1.15674E-01
      21    -1     0     0   511   501  0.000000000E+00  0.000000000E+00  3.368642030E+02  3.368642030E+02  0.000000000E+00  0.00000E+00  9.000E+00
      21    -1     0     0   501   502  0.000000000E+00  0.000000000E+00 -8.274259437E+02  8.274259437E+02  0.000000000E+00  0.00000E+00  9.000E+00
      25     1     1     2     0     0  1.335683706E+02 -4.844899543E+01 -6.114681117E+02  6.400828590E+02  1.250000000E+02  0.00000E+00  9.000E+00
      25     1     1     2     0     0 -2.691638470E+02  1.264902037E+02  1.640461830E+02  3.619186350E+02  1.250000000E+02  0.00000E+00  9.000E+00
      21     1     1     2   511   502  1.355954764E+02 -7.804120824E+01 -4.313981207E+01  1.622886527E+02  3.337860107E-06  0.00000E+00  9.000E+00
#rwgt            1           1   3.0039407400127054E-002           5       95886           0
</event>
<event>
      5   9999  3.19816E-02  2.50816E+01 -1.00000E+00  1.58645E-01
      21    -1     0     0   502   501  0.000000000E+00  0.000000000E+00  8.233748248E+02  8.233748248E+02  0.000000000E+00  0.00000E+00  9.000E+00
      21    -1     0     0   501   512  0.000000000E+00  0.000000000E+00 -4.571054176E+02  4.571054176E+02  0.000000000E+00  0.00000E+00  9.000E+00
      25     1     1     2     0     0  3.184034747E+02 -1.295211357E+02 -3.102580057E+02  4.796264457E+02  1.250000000E+02  0.00000E+00  9.000E+00
      25     1     1     2     0     0 -3.111356367E+02  1.055156257E+02  6.885134222E+02  7.730554082E+02  1.250000000E+02  0.00000E+00  9.000E+00
      21     1     1     2   502   512 -7.267838029E+00  2.400551006E+01 -1.198600931E+01  2.779838848E+01  2.384185791E-07  0.00000E+00  9.000E+00
#rwgt            2          11   1.0197435852352945E-002           5       95950           0
</event>
<event>
      5   9999  3.19816E-02  4.82485E+01 -1.00000E+00  1.39965E-01
      21    -1     0     0   502   501  0.000000000E+00  0.000000000E+00  1.296200924E+03  1.296200924E+03  0.000000000E+00  0.00000E+00  9.000E+00
      21    -1     0     0   501   511  0.000000000E+00  0.000000000E+00 -1.498564853E+02  1.498564853E+02  0.000000000E+00  0.00000E+00  9.000E+00
      25     1     1     2     0     0 -1.718083276E+02  3.032983094E+02  5.272234302E+02  6.442806153E+02  1.250000000E+02  0.00000E+00  9.000E+00
      25     1     1     2     0     0  2.198364223E+02 -2.986916766E+02  6.392158203E+02  7.495109306E+02  1.250000000E+02  0.00000E+00  9.000E+00
      21     1     1     2   502   511 -4.802809468E+01 -4.606632837E+00 -2.009481223E+01  5.226586289E+01  7.907449699E-07  0.00000E+00  9.000E+00
#rwgt            2          11   2.4242834221141958E-003           5       96000           0
</event>
<event>
      5   9999  3.19816E-02  1.12984E+02 -1.00000E+00  1.21489E-01
      21    -1     0     0   512   501  0.000000000E+00  0.000000000E+00  4.736552768E+02  4.736552768E+02  0.000000000E+00  0.00000E+00  9.000E+00
      21    -1     0     0   501   502  0.000000000E+00  0.000000000E+00 -3.846968337E+02  3.846968337E+02  0.000000000E+00  0.00000E+00  9.000E+00
      25     1     1     2     0     0 -3.166775378E+02  1.720964358E+02  7.926107645E+01  3.896269554E+02  1.250000000E+02  0.00000E+00  9.000E+00
      25     1     1     2     0     0  2.852217371E+02 -6.357978823E+01 -7.614672131E+01  3.268289338E+02  1.250000000E+02  0.00000E+00  9.000E+00
      21     1     1     2   512   502  3.145580068E+01 -1.085166475E+02  8.584408799E+01  1.418962214E+02  1.348699152E-06  0.00000E+00  9.000E+00
#rwgt            1           1   2.8124992356668869E-002           5       96035           0
</event>
<event>
      5   9999  3.19816E-02  1.52857E+02 -1.00000E+00  1.16070E-01
      -1    -1     0     0     0   501  0.000000000E+00  0.000000000E+00  1.184638582E+03  1.184638582E+03  0.000000000E+00  0.00000E+00  9.000E+00
      21    -1     0     0   501   502  0.000000000E+00  0.000000000E+00 -1.338698509E+02  1.338698509E+02  0.000000000E+00  0.00000E+00  9.000E+00
      25     1     1     2     0     0  6.150828864E+01 -2.610020134E+02  6.339451626E+02  6.995832972E+02  1.250000000E+02  0.00000E+00  9.000E+00
      25     1     1     2     0     0  1.628738993E+01  1.294222332E+02  6.199646804E+00  1.807728662E+02  1.250000000E+02  0.00000E+00  9.000E+00
      -1     1     1     2     0   502 -7.779567857E+01  1.315797802E+02  4.106239217E+02  4.381522695E+02  5.394796609E-06  0.00000E+00  9.000E+00
#rwgt            1           1   2.9663107660244648E-002           5       96095           0
</event>
<event>
      5   9999  3.19816E-02  1.24337E+02 -1.00000E+00  1.19717E-01
      21    -1     0     0   511   501  0.000000000E+00  0.000000000E+00  9.483791397E+02  9.483791397E+02  0.000000000E+00  0.00000E+00  9.000E+00
      21    -1     0     0   501   502  0.000000000E+00  0.000000000E+00 -3.086752352E+02  3.086752352E+02  0.000000000E+00  0.00000E+00  9.000E+00
      25     1     1     2     0     0 -2.382052052E+02 -4.757736738E+01 -8.000995694E+00  2.733026557E+02  1.250000000E+02  0.00000E+00  9.000E+00
      25     1     1     2     0     0  1.424037520E+02  1.268355280E+02 -8.291824824E+01  2.426242272E+02  1.250000000E+02  0.00000E+00  9.000E+00
      21     1     1     2   511   502  9.580145319E+01 -7.925816061E+01  7.306231484E+02  7.411274920E+02  0.000000000E+00  0.00000E+00  9.000E+00
#rwgt            1           1   3.1498718048551089E-002           5       96182           0
</event>
<event>
      5   9999  3.19816E-02  7.91850E+01 -1.00000E+00  1.28565E-01
      21    -1     0     0   502   501  0.000000000E+00  0.000000000E+00  4.703101172E+02  4.703101172E+02  0.000000000E+00  0.00000E+00  9.000E+00
      21    -1     0     0   501   512  0.000000000E+00  0.000000000E+00 -1.724612302E+03  1.724612302E+03  0.000000000E+00  0.00000E+00  9.000E+00
      25     1     1     2     0     0  5.268924355E+02  2.714500299E+02 -3.288839062E+01  6.066361377E+02  1.250000000E+02  0.00000E+00  9.000E+00
      25     1     1     2     0     0 -5.996403304E+02 -2.401768292E+02 -4.147615606E+02  7.777567661E+02  1.250000000E+02  0.00000E+00  9.000E+00
      21     1     1     2   502   512  7.274789483E+01 -3.127320072E+01 -8.066522334E+02  8.105295151E+02  0.000000000E+00  0.00000E+00  9.000E+00
#rwgt            1           1   2.9559733804891939E-002           5       96244           0
</event>
<event>
      5   9999  3.19816E-02  3.56910E+01 -1.00000E+00  1.47979E-01
      21    -1     0     0   511   501  0.000000000E+00  0.000000000E+00  3.370813488E+02  3.370813488E+02  0.000000000E+00  0.00000E+00  9.000E+00
      21    -1     0     0   501   502  0.000000000E+00  0.000000000E+00 -9.660353449E+02  9.660353449E+02  0.000000000E+00  0.00000E+00  9.000E+00
      25     1     1     2     0     0  3.349021931E+02  3.418086902E+02 -5.078435473E+02  7.088883750E+02  1.250000000E+02  0.00000E+00  9.000E+00
      25     1     1     2     0     0 -3.705224466E+02 -3.440543557E+02 -1.566128599E+02  5.438868182E+02  1.250000000E+02  0.00000E+00  9.000E+00
      21     1     1     2   511   502  3.562025355E+01  2.245665543E+00  3.550241107E+01  5.034150046E+01  8.259061849E-07  0.00000E+00  9.000E+00
#rwgt            1           1   3.0189675920041896E-002           5       96371           0
</event>
<event>
      5   9999  3.19816E-02  6.59204E+01 -1.00000E+00  1.32555E-01
      21    -1     0     0   512   501  0.000000000E+00  0.000000000E+00  6.683537867E+02  6.683537867E+02  0.000000000E+00  0.00000E+00  9.000E+00
      21    -1     0     0   501   502  0.000000000E+00  0.000000000E+00 -3.002127931E+02  3.002127931E+02  0.000000000E+00  0.00000E+00  9.000E+00
      25     1     1     2     0     0  2.863037422E+02  1.481927394E+02 -9.542793784E+01  3.586954309E+02  1.250000000E+02  0.00000E+00  9.000E+00
      25     1     1     2     0     0 -2.772554975E+02 -8.289630866E+01  3.071243084E+02  4.401053847E+02  1.250000000E+02  0.00000E+00  9.000E+00
      21     1     1     2   512   502 -9.048244755E+00 -6.529643070E+01  1.564446231E+02  1.697657642E+02  3.814697266E-06  0.00000E+00  9.000E+00
#rwgt            1           1   2.8944666261480081E-002           5       96495           0
</event>
<event>
      5   9999  3.19816E-02  1.54164E+02 -1.00000E+00  1.15924E-01
      21    -1     0     0   502   501  0.000000000E+00  0.000000000E+00  8.640879825E+01  8.640879825E+01  0.000000000E+00  0.00000E+00  9.000E+00
       2    -1     0     0   501     0  0.000000000E+00  0.000000000E+00 -2.243360748E+03  2.243360748E+03  0.000000000E+00  0.00000E+00  9.000E+00
      25     1     1     2     0     0 -7.742340974E+01 -1.108671229E+02 -1.943775136E+03  1.952478599E+03  1.250000000E+02  0.00000E+00  9.000E+00
      25     1     1     2     0     0 -2.649718878E+01 -3.005974115E+00 -1.780499998E+02  2.191755902E+02  1.250000000E+02  0.00000E+00  9.000E+00
       2     1     1     2   502     0  1.039205985E+02  1.138730970E+02 -3.512681472E+01  1.581153571E+02  2.567846683E-06  0.00000E+00  9.000E+00
#rwgt            1           1   6.9340885717712769E-002           5       96577           0
</event>
<event>
      5   9999  3.19816E-02  9.07973E+00 -1.00000E+00  2.00732E-01
       2    -1     0     0   502     0  0.000000000E+00  0.000000000E+00  1.866784826E+02  1.866784826E+02  0.000000000E+00  0.00000E+00  9.000E+00
      21    -1     0     0   501   502  0.000000000E+00  0.000000000E+00 -9.422671631E+02  9.422671631E+02  0.000000000E+00  0.00000E+00  9.000E+00
      25     1     1     2     0     0  7.138982154E+01  3.139540594E+02 -3.132771889E+02  4.662952446E+02  1.250000000E+02  0.00000E+00  9.000E+00
      25     1     1     2     0     0 -7.581002141E+01 -3.218852200E+02 -4.955018312E+02  6.086906595E+02  1.250000000E+02  0.00000E+00  9.000E+00
       2     1     1     2   501     0  4.420199874E+00  7.931160603E+00  5.319033965E+01  5.395974154E+01  6.743495762E-07  0.00000E+00  9.000E+00
#rwgt            2          18   2.2546100372471464E-005           5       96638           0
</event>
<event>
      5   9999  3.19816E-02  1.88233E+02 -1.00000E+00  1.12615E-01
      -3    -1     0     0     0   501  0.000000000E+00  0.000000000E+00  6.545891894E+02  6.545891894E+02  0.000000000E+00  0.00000E+00  9.000E+00
      21    -1     0     0   501   502  0.000000000E+00  0.000000000E+00 -1.562369566E+03  1.562369566E+03  0.000000000E+00  0.00000E+00  9.000E+00
      25     1     1     2     0     0 -1.490706269E+02  5.158933297E+01 -3.331600258E+02  3.892352937E+02  1.250000000E+02  0.00000E+00  9.000E+00
      25     1     1     2     0     0  2.915971338E+01  9.350686747E+01 -1.181601657E+03  1.192225356E+03  1.250000000E+02  0.00000E+00  9.000E+00
      -3     1     1     2     0   502  1.199109135E+02 -1.450962004E+02  6.069813070E+02  6.354981051E+02  7.629394531E-06  0.00000E+00  9.000E+00
#rwgt            1           1   4.0786089616073995E-002           5       96672           0
</event>
<event>
      5   9999  3.19816E-02  9.91637E+01 -1.00000E+00  1.23992E-01
      21    -1     0     0   502   501  0.000000000E+00  0.000000000E+00  2.447570697E+02  2.447570697E+02  0.000000000E+00  0.00000E+00  9.000E+00
      21    -1     0     0   511   502  0.000000000E+00  0.000000000E+00 -7.845418097E+02  7.845418097E+02  0.000000000E+00  0.00000E+00  9.000E+00
      25     1     1     2     0     0 -2.697526178E+02  1.642047412E+02 -4.434438922E+02  5.585670572E+02  1.250000000E+02  0.00000E+00  9.000E+00
      25     1     1     2     0     0  1.708828653E+02 -1.565753826E+02  7.408879251E+01  2.735524689E+02  1.250000000E+02  0.00000E+00  9.000E+00
      21     1     1     2   511   501  9.886975249E+01 -7.629358657E+00 -1.704296402E+02  1.971793532E+02  3.303624740E-06  0.00000E+00  9.000E+00
#rwgt            1           1   2.8340694379333266E-002           5       96730           0
</event>
<event>
      5   9999  3.20399E-02  5.57993E+01 -1.00000E+00  1.36410E-01
      21    -1     0     0   502   501  0.000000000E+00  0.000000000E+00  2.006472187E+02  2.006472187E+02  0.000000000E+00  0.00000E+00  9.000E+00
      21    -1     0     0   512   502  0.000000000E+00  0.000000000E+00 -3.094577658E+03  3.094577658E+03  0.000000000E+00  0.00000E+00  9.000E+00
      25     1     1     2     0     0 -1.941411200E+02 -3.393505681E+01 -2.892705229E+03  2.902104565E+03  1.250000000E+02  0.00000E+00  9.000E+00
      25     1     1     2     0     0  1.384623966E+02  3.026820783E+01  1.439702594E+02  2.375719580E+02  1.250000000E+02  0.00000E+00  9.000E+00
      21     1     1     2   512   501  5.567872341E+01  3.666848981E+00 -1.451954695E+02  1.555483538E+02  0.000000000E+00  0.00000E+00  9.000E+00
#rwgt            1           1   9.0668768607060940E-002           5       96784           0
</event>
<event>
      5   9999  3.19816E-02  4.21035E+02 -1.00000E+00  1.01020E-01
      21    -1     0     0   511   501  0.000000000E+00  0.000000000E+00  5.530514906E+02  5.530514906E+02  0.000000000E+00  0.00000E+00  9.000E+00
      21    -1     0     0   501   502  0.000000000E+00  0.000000000E+00 -1.391536197E+03  1.391536197E+03  0.000000000E+00  0.00000E+00  9.000E+00
      25     1     1     2     0     0 -4.844469999E+02  5.354560314E+01 -6.828460583E+02  8.482097421E+02  1.250000000E+02  0.00000E+00  9.000E+00
      25     1     1     2     0     0  3.496058227E+02  3.453137022E+02 -3.663665368E+02  6.255519350E+02  1.250000000E+02  0.00000E+00  9.000E+00
      21     1     1     2   511   502  1.348411773E+02 -3.988593054E+02  2.107278890E+02  4.708260101E+02  6.031565972E-06  0.00000E+00  9.000E+00
#rwgt            1           1   2.9793776926784556E-002           5       96912           0
</event>
<event>
      5   9999  3.19816E-02  5.51418E+01 -1.00000E+00  1.36693E-01
      21    -1     0     0   502   512  0.000000000E+00  0.000000000E+00  1.190894343E+03  1.190894343E+03  0.000000000E+00  0.00000E+00  9.000E+00
      21    -1     0     0   501   502  0.000000000E+00  0.000000000E+00 -3.199396224E+02  3.199396224E+02  0.000000000E+00  0.00000E+00  9.000E+00
      25     1     1     2     0     0  2.350452285E+02 -2.732816045E+02 -1.345540887E+02  4.045477693E+02  1.250000000E+02  0.00000E+00  9.000E+00
      25     1     1     2     0     0 -2.028003063E+02  3.180128567E+02  9.408045094E+02  1.021272866E+03  1.250000000E+02  0.00000E+00  9.000E+00
      21     1     1     2   501   512 -3.224492225E+01 -4.473125214E+01  6.470430022E+01  8.501333069E+01  0.000000000E+00  0.00000E+00  9.000E+00
#rwgt            1           1   2.6626692616623968E-002           5       96942           0
</event>
<event>
      5   9999  3.19816E-02  2.12493E+02 -1.00000E+00  1.10698E-01
      21    -1     0     0   502   501  0.000000000E+00  0.000000000E+00  5.014120141E+02  5.014120141E+02  0.000000000E+00  0.00000E+00  9.000E+00
      21    -1     0     0   501   511  0.000000000E+00  0.000000000E+00 -2.567473568E+02  2.567473568E+02  0.000000000E+00  0.00000E+00  9.000E+00
      25     1     1     2     0     0  4.207586448E+01 -1.018354623E+02  1.334954529E+02  2.135108327E+02  1.250000000E+02  0.00000E+00  9.000E+00
      25     1     1     2     0     0  8.981414499E+01  2.684434652E+02  1.201944687E+02  3.319641321E+02  1.250000000E+02  0.00000E+00  9.000E+00
      21     1     1     2   502   511 -1.318900095E+02 -1.666080029E+02 -9.025264321E+00  2.126844061E+02  1.278377210E-06  0.00000E+00  9.000E+00
#rwgt            2          11   3.5378277965789234E-003           5       97232           0
</event>
<event>
      5   9999  3.19816E-02  4.94568E+01 -1.00000E+00  1.39347E-01
      21    -1     0     0   512   501  0.000000000E+00  0.000000000E+00  1.159296304E+03  1.159296304E+03  0.000000000E+00  0.00000E+00  9.000E+00
      21    -1     0     0   501   502  0.000000000E+00  0.000000000E+00 -3.937453861E+01  3.937453861E+01  0.000000000E+00  0.00000E+00  9.000E+00
      25     1     1     2     0     0 -8.569547884E+01 -9.698483719E+01  4.339321803E+02  4.697572893E+02  1.250000000E+02  0.00000E+00  9.000E+00
      25     1     1     2     0     0  1.296616119E+02  7.433629539E+01  5.048518084E+02  5.411454211E+02  1.250000000E+02  0.00000E+00  9.000E+00
      21     1     1     2   512   502 -4.396613309E+01  2.264854180E+01  1.811377770E+02  1.877681325E+02  2.697398305E-06  0.00000E+00  9.000E+00
#rwgt            1           1   3.5250884975268432E-002           5       97267           0
</event>
<event>
      5   9999  3.19816E-02  7.72697E+01 -1.00000E+00  1.29084E-01
      21    -1     0     0   502   501  0.000000000E+00  0.000000000E+00  2.468044284E+03  2.468044284E+03  0.000000000E+00  0.00000E+00  9.000E+00
      21    -1     0     0   501   511  0.000000000E+00  0.000000000E+00 -2.132961058E+02  2.132961058E+02  0.000000000E+00  0.00000E+00  9.000E+00
      25     1     1     2     0     0 -1.808400667E+02  2.531091535E+02  3.300104954E+01  3.368700678E+02  1.250000000E+02  0.00000E+00  9.000E+00
      25     1     1     2     0     0  1.732811007E+02 -3.300082089E+02  2.232147597E+03  2.266503839E+03  1.250000000E+02  0.00000E+00  9.000E+00
      21     1     1     2   502   511  7.558966012E+00  7.689905540E+01 -1.040046851E+01  7.796648276E+01  1.410503336E-06  0.00000E+00  9.000E+00
#rwgt            1           1   3.0718739332087960E-002           5       97342           0
</event>
<event>
      5   9999  3.19816E-02  4.29729E+01 -1.00000E+00  1.42935E-01
      21    -1     0     0   512   501  0.000000000E+00  0.000000000E+00  2.464964588E+02  2.464964588E+02  0.000000000E+00  0.00000E+00  9.000E+00
      21    -1     0     0   501   502  0.000000000E+00  0.000000000E+00 -4.218276781E+02  4.218276781E+02  0.000000000E+00  0.00000E+00  9.000E+00
      25     1     1     2     0     0  1.055003221E+02  2.170537757E+02 -1.138483819E+02  2.946678021E+02  1.250000000E+02  0.00000E+00  9.000E+00
      25     1     1     2     0     0 -1.376180682E+02 -2.456040526E+02 -9.138447545E+01  3.213039149E+02  1.250000000E+02  0.00000E+00  9.000E+00
      21     1     1     2   512   502  3.211774610E+01  2.855027687E+01  2.990163796E+01  5.235241997E+01  8.920806376E-07  0.00000E+00  9.000E+00
#rwgt            1           1   3.1547713701636046E-002           5       97475           0
</event>
<event>
      5   9999  3.19816E-02  1.47993E+02 -1.00000E+00  1.16626E-01
      21    -1     0     0   511   501  0.000000000E+00  0.000000000E+00  4.810853660E+02  4.810853660E+02  0.000000000E+00  0.00000E+00  9.000E+00
      21    -1     0     0   501   502  0.000000000E+00  0.000000000E+00 -4.506429194E+02  4.506429194E+02  0.000000000E+00  0.00000E+00  9.000E+00
      25     1     1     2     0     0  1.694137840E+01 -1.124744874E+02 -1.956919808E+02  2.585688921E+02  1.250000000E+02  0.00000E+00  9.000E+00
      25     1     1     2     0     0 -1.471506229E+02  1.828130546E+02 -1.237377578E+02  2.932745326E+02  1.250000000E+02  0.00000E+00  9.000E+00
      21     1     1     2   511   502  1.302092445E+02 -7.033856716E+01  3.498721852E+02  3.798848607E+02  7.629394531E-06  0.00000E+00  9.000E+00
#rwgt            1           1   2.3510161141403790E-002           5       97584           0
</event>
<event>
      5   9999  3.19816E-02  2.93201E+01 -1.00000E+00  1.53735E-01
      21    -1     0     0   502   501  0.000000000E+00  0.000000000E+00  7.220586272E+02  7.220586272E+02  0.000000000E+00  0.00000E+00  9.000E+00
      21    -1     0     0   501   512  0.000000000E+00  0.000000000E+00 -2.232717284E+02  2.232717284E+02  0.000000000E+00  0.00000E+00  9.000E+00
      25     1     1     2     0     0 -3.150547304E+02 -1.368815752E+01  2.108546907E+01  3.398771040E+02  1.250000000E+02  0.00000E+00  9.000E+00
      25     1     1     2     0     0  2.918258229E+02 -4.202819537E+00  4.805845334E+02  5.759917259E+02  1.250000000E+02  0.00000E+00  9.000E+00
      21     1     1     2   502   512  2.322890757E+01  1.789097706E+01 -2.883103599E+00  2.946152564E+01  5.543552410E-07  0.00000E+00  9.000E+00
#rwgt            1           1   2.7805342112311827E-002           5       97647           0
</event>
<event>
      5   9999  3.19816E-02  6.43187E+01 -1.00000E+00  1.33110E-01
      21    -1     0     0   502   511  0.000000000E+00  0.000000000E+00  4.273053570E+02  4.273053570E+02  0.000000000E+00  0.00000E+00  9.000E+00
      21    -1     0     0   501   502  0.000000000E+00  0.000000000E+00 -2.327894983E+02  2.327894983E+02  0.000000000E+00  0.00000E+00  9.000E+00
      25     1     1     2     0     0  8.152140270E+01  1.727368750E+02  2.673902633E+02  3.515769048E+02  1.250000000E+02  0.00000E+00  9.000E+00
      25     1     1     2     0     0 -1.733667584E+01 -1.685875592E+02 -1.064491264E+02  2.359634335E+02  1.250000000E+02  0.00000E+00  9.000E+00
      21     1     1     2   501   511 -6.418472686E+01 -4.149315808E+00  3.357472181E+01  7.255451694E+01  1.507891493E-06  0.00000E+00  9.000E+00
#rwgt            1           1   2.6879140934022133E-002           5       97775           0
</event>
<event>
      5   9999  3.19816E-02  1.68647E+02 -1.00000E+00  1.14412E-01
      21    -1     0     0   502   501  0.000000000E+00  0.000000000E+00  4.956787115E+02  4.956787115E+02  0.000000000E+00  0.00000E+00  9.000E+00
      21    -1     0     0   501   512  0.000000000E+00  0.000000000E+00 -3.189589652E+02  3.189589652E+02  0.000000000E+00  0.00000E+00  9.000E+00
      25     1     1     2     0     0  1.438541530E+02  7.096872090E+01  1.121993152E+02  2.322590429E+02  1.250000000E+02  0.00000E+00  9.000E+00
      25     1     1     2     0     0 -7.476536443E+01  8.287689138E+01  2.692436983E+02  3.171365761E+02  1.250000000E+02  0.00000E+00  9.000E+00
      21     1     1     2   502   512 -6.908878857E+01 -1.538456123E+02 -2.047232671E+02  2.652420578E+02  4.672030912E-06  0.00000E+00  9.000E+00
#rwgt            2          11   5.7104271856611728E-003           5       97890           0
</event>
<event>
      5   9999  3.19816E-02  1.21833E+02 -1.00000E+00  1.20089E-01
      21    -1     0     0   511   501  0.000000000E+00  0.000000000E+00  1.792288650E+02  1.792288650E+02  0.000000000E+00  0.00000E+00  9.000E+00
      21    -1     0     0   501   502  0.000000000E+00  0.000000000E+00 -9.316168010E+02  9.316168010E+02  0.000000000E+00  0.00000E+00  9.000E+00
      25     1     1     2     0     0 -1.499036803E+02  1.991396632E+02 -6.247021885E+02  6.841093065E+02  1.250000000E+02  0.00000E+00  9.000E+00
      25     1     1     2     0     0  2.880072852E+01 -2.124598330E+02 -1.665138953E+02  2.988654211E+02  1.250000000E+02  0.00000E+00  9.000E+00
      21     1     1     2   511   502  1.211029518E+02  1.332016973E+01  3.882814779E+01  1.278709385E+02  2.132480600E-06  0.00000E+00  9.000E+00
#rwgt            1           1   2.5818539699127795E-002           5       97910           0
</event>
<event>
      5   9999  3.19816E-02  6.34263E+01 -1.00000E+00  1.33427E-01
      21    -1     0     0   512   501  0.000000000E+00  0.000000000E+00  1.018175359E+03  1.018175359E+03  0.000000000E+00  0.00000E+00  9.000E+00
      21    -1     0     0   501   502  0.000000000E+00  0.000000000E+00 -3.922284617E+02  3.922284617E+02  0.000000000E+00  0.00000E+00  9.000E+00
      25     1     1     2     0     0 -9.708423142E+01 -5.721131883E+02  3.434324080E+02  6.857912708E+02  1.250000000E+02  0.00000E+00  9.000E+00
      25     1     1     2     0     0  1.494462490E+02  5.363205935E+02  1.699077643E+02  5.953718239E+02  1.250000000E+02  0.00000E+00  9.000E+00
      21     1     1     2   512   502 -5.236201758E+01  3.579259486E+01  1.126067251E+02  1.292407260E+02  1.907348633E-06  0.00000E+00  9.000E+00
#rwgt            1           1   2.8788322473059763E-002           5       97960           0
</event>
<event>
      5   9999  3.19816E-02  3.07984E+01 -1.00000E+00  1.52252E-01
      21    -1     0     0   502   501  0.000000000E+00  0.000000000E+00  3.445670673E+02  3.445670673E+02  0.000000000E+00  0.00000E+00  9.000E+00
      21    -1     0     0   511   502  0.000000000E+00  0.000000000E+00 -1.174588946E+03  1.174588946E+03  0.000000000E+00  0.00000E+00  9.000E+00
      25     1     1     2     0     0 -1.799375572E+02 -4.933270949E+02 -1.327074275E+02  5.558645594E+02  1.250000000E+02  0.00000E+00  9.000E+00
      25     1     1     2     0     0  1.535123732E+02  5.091463360E+02 -4.326877517E+02  6.968785623E+02  1.250000000E+02  0.00000E+00  9.000E+00
      21     1     1     2   511   501  2.642518405E+01 -1.581924102E+01 -2.646266996E+02  2.664128918E+02  0.000000000E+00  0.00000E+00  9.000E+00
#rwgt            1           1   3.0495500780053295E-002           5       98058           0
</event>
<event>
      5   9999  3.19816E-02  1.64925E+02 -1.00000E+00  1.14784E-01
      21    -1     0     0   512   501  0.000000000E+00  0.000000000E+00  3.963051391E+02  3.963051391E+02  0.000000000E+00  0.00000E+00  9.000E+00
      21    -1     0     0   501   502  0.000000000E+00  0.000000000E+00 -4.972079678E+02  4.972079678E+02  0.000000000E+00  0.00000E+00  9.000E+00
      25     1     1     2     0     0 -1.152541774E+02  3.992828540E+01 -4.158856648E+02  4.510694842E+02  1.250000000E+02  0.00000E+00  9.000E+00
      25     1     1     2     0     0 -2.774575407E+01  4.223799298E+01  2.007339845E+02  2.418119257E+02  1.250000000E+02  0.00000E+00  9.000E+00
      21     1     1     2   512   502  1.429999315E+02 -8.216627838E+01  1.142488517E+02  2.006316970E+02  4.046097457E-06  0.00000E+00  9.000E+00
#rwgt            1           1   2.6197707877938740E-002           5       98246           0
</event>
<event>
      5   9999  3.19816E-02  1.40874E+02 -1.00000E+00  1.17484E-01
      21    -1     0     0   502   511  0.000000000E+00  0.000000000E+00  1.219882149E+03  1.219882149E+03  0.000000000E+00  0.00000E+00  9.000E+00
      21    -1     0     0   501   502  0.000000000E+00  0.000000000E+00 -2.003214503E+03  2.003214503E+03  0.000000000E+00  0.00000E+00  9.000E+00
      25     1     1     2     0     0 -4.758755781E+02  6.861181324E+02 -7.162967150E+02  1.107213458E+03  1.250000000E+02  0.00000E+00  9.000E+00
      25     1     1     2     0     0  3.486056604E+02 -6.257215214E+02 -9.642561829E+02  1.207670615E+03  1.250000000E+02  0.00000E+00  9.000E+00
      21     1     1     2   501   511  1.272699177E+02 -6.039661100E+01  8.972205441E+02  9.082125783E+02  1.078959322E-05  0.00000E+00  9.000E+00
#rwgt            1           1   3.0458126979084205E-002           5       98290           0
</event>
<event>
      5   9999  3.19816E-02  6.02403E+01 -1.00000E+00  1.34611E-01
      21    -1     0     0   502   512  0.000000000E+00  0.000000000E+00  2.036465490E+03  2.036465490E+03  0.000000000E+00  0.00000E+00  9.000E+00
      21    -1     0     0   501   502  0.000000000E+00  0.000000000E+00 -3.405151070E+02  3.405151070E+02  0.000000000E+00  0.00000E+00  9.000E+00
      25     1     1     2     0     0  3.347178133E+02  5.506187757E+02  5.049480495E+02  8.281392295E+02  1.250000000E+02  0.00000E+00  9.000E+00
      25     1     1     2     0     0 -3.227296832E+02 -4.915834037E+02  3.301443808E+02  6.858782715E+02  1.250000000E+02  0.00000E+00  9.000E+00
      21     1     1     2   501   512 -1.198813013E+01 -5.903537201E+01  8.608579531E+02  8.629630964E+02  1.525878906E-05  0.00000E+00  9.000E+00
#rwgt            1           1   3.0602121394904366E-002           5       98356           0
</event>
<event>
      5   9999  3.19816E-02  5.66833E+01 -1.00000E+00  1.36036E-01
      21    -1     0     0   502   511  0.000000000E+00  0.000000000E+00  3.721239478E+02  3.721239478E+02  0.000000000E+00  0.00000E+00  9.000E+00
      21    -1     0     0   501   502  0.000000000E+00  0.000000000E+00 -1.576155787E+02  1.576155787E+02  0.000000000E+00  0.00000E+00  9.000E+00
      25     1     1     2     0     0 -1.770345202E+02  4.194275533E+01  6.005059331E+01  2.287607698E+02  1.250000000E+02  0.00000E+00  9.000E+00
      25     1     1     2     0     0  1.236229810E+02 -6.092180652E+01  6.902708356E+01  1.984536374E+02  1.250000000E+02  0.00000E+00  9.000E+00
      21     1     1     2   501   511  5.341153917E+01  1.897905119E+01  8.543069222E+01  1.025251192E+02  1.907348633E-06  0.00000E+00  9.000E+00
#rwgt            1           1   2.7001005959711371E-002           5       98485           0
</event>
<event>
      5   9999  3.19816E-02  1.36068E+02 -1.00000E+00  1.18097E-01
      21    -1     0     0   502   501  0.000000000E+00  0.000000000E+00  2.934662713E+02  2.934662713E+02  0.000000000E+00  0.00000E+00  9.000E+00
      21    -1     0     0   501   512  0.000000000E+00  0.000000000E+00 -1.867894921E+03  1.867894921E+03  0.000000000E+00  0.00000E+00  9.000E+00
      25     1     1     2     0     0  3.353959258E+02 -4.852527106E+02 -1.213635196E+03  1.355173793E+03  1.250000000E+02  0.00000E+00  9.000E+00
      25     1     1     2     0     0 -2.011510012E+02  4.630547814E+02 -1.265263356E+02  5.352713045E+02  1.250000000E+02  0.00000E+00  9.000E+00
      21     1     1     2   502   512 -1.342449246E+02  2.219792919E+01 -2.342671188E+02  2.709160955E+02  4.672030912E-06  0.00000E+00  9.000E+00
#rwgt            1           1   2.7159477080177873E-002           5       98547           0
</event>
<event>
      5   9999  3.19816E-02  1.96667E+02 -1.00000E+00  1.11914E-01
      21    -1     0     0   502   501  0.000000000E+00  0.000000000E+00  1.692248663E+03  1.692248663E+03  0.000000000E+00  0.00000E+00  9.000E+00
      -3    -1     0     0     0   502  0.000000000E+00  0.000000000E+00 -7.216703257E+01  7.216703257E+01  0.000000000E+00  0.00000E+00  9.000E+00
      25     1     1     2     0     0  3.916680017E+01 -1.053709269E+02  4.956662149E+02  5.233995291E+02  1.250000000E+02  0.00000E+00  9.000E+00
      25     1     1     2     0     0 -1.754594595E+02  2.471528450E+02  6.727076752E+02  7.483523014E+02  1.250000000E+02  0.00000E+00  9.000E+00
      -3     1     1     2     0   501  1.362926594E+02 -1.417819181E+02  4.517077408E+02  4.926638655E+02  7.629394531E-06  0.00000E+00  9.000E+00
#rwgt            1           1   2.8865008676563397E-002           5       98604           0
</event>
<event>
      5   9999  3.19816E-02  1.73407E+01 -1.00000E+00  1.71649E-01
      21    -1     0     0   502   501  0.000000000E+00  0.000000000E+00  8.962427234E+01  8.962427234E+01  0.000000000E+00  0.00000E+00  9.000E+00
      21    -1     0     0   511   502  0.000000000E+00  0.000000000E+00 -1.284700630E+03  1.284700630E+03  0.000000000E+00  0.00000E+00  9.000E+00
      25     1     1     2     0     0  8.688312881E+01 -4.306420712E+01 -7.682412733E+02  7.843614333E+02  1.250000000E+02  0.00000E+00  9.000E+00
      25     1     1     2     0     0 -1.000294982E+02  3.175612682E+01 -4.403320856E-01  1.632162553E+02  1.250000000E+02  0.00000E+00  9.000E+00
      21     1     1     2   511   501  1.314636937E+01  1.130808030E+01 -4.263947520E+02  4.267472135E+02  7.629394531E-06  0.00000E+00  9.000E+00
#rwgt            1           1   2.7121559324643187E-002           5       98700           0
</event>
<event>
      5   9999  3.19816E-02  2.86358E+02 -1.00000E+00  1.06253E-01
      21    -1     0     0   502   501  0.000000000E+00  0.000000000E+00  4.711410584E+02  4.711410584E+02  0.000000000E+00  0.00000E+00  9.000E+00
       1    -1     0     0   501     0  0.000000000E+00  0.000000000E+00 -2.190428177E+03  2.190428177E+03  0.000000000E+00  0.00000E+00  9.000E+00
      25     1     1     2     0     0 -3.664629300E+01  6.911570583E+02 -1.325434431E+02  7.157051029E+02  1.250000000E+02  0.00000E+00  9.000E+00
      25     1     1     2     0     0 -2.313143972E+02 -7.921410571E+02 -1.260406316E+03  1.511701983E+03  1.250000000E+02  0.00000E+00  9.000E+00
       1     1     1     2   502     0  2.679606902E+02  1.009839988E+02 -3.263373593E+02  4.341621490E+02  0.000000000E+00  0.00000E+00  9.000E+00
#rwgt            1           1   3.0981683026152798E-002           5       98893           0
</event>
<event>
      5   9999  3.19816E-02  1.09718E+02 -1.00000E+00  1.22043E-01
      21    -1     0     0   502   511  0.000000000E+00  0.000000000E+00  3.316277794E+02  3.316277794E+02  0.000000000E+00  0.00000E+00  9.000E+00
      21    -1     0     0   501   502  0.000000000E+00  0.000000000E+00 -6.046598198E+02  6.046598198E+02  0.000000000E+00  0.00000E+00  9.000E+00
      25     1     1     2     0     0  2.190773246E+02 -2.871070524E+02 -2.904853247E+02  4.800333921E+02  1.250000000E+02  0.00000E+00  9.000E+00
      25     1     1     2     0     0 -2.625918493E+02  1.863872745E+02  1.844694504E+00  3.454317564E+02  1.250000000E+02  0.00000E+00  9.000E+00
      21     1     1     2   501   511  4.351452468E+01  1.007197779E+02  1.560858983E+01  1.108224508E+02  5.591411304E-07  0.00000E+00  9.000E+00
#rwgt            1           1   3.1133712931856863E-002           5       98968           0
</event>
<event>
      5   9999  3.19816E-02  7.34181E+01 -1.00000E+00  1.30181E-01
      21    -1     0     0   502   501  0.000000000E+00  0.000000000E+00  1.334723032E+02  1.334723032E+02  0.000000000E+00  0.00000E+00  9.000E+00
      21    -1     0     0   501   512  0.000000000E+00  0.000000000E+00 -1.261763690E+03  1.261763690E+03  0.000000000E+00  0.00000E+00  9.000E+00
      25     1     1     2     0     0 -6.394139131E+01 -1.822647080E+02 -6.674783349E+01  2.395604279E+02  1.250000000E+02  0.00000E+00  9.000E+00
      25     1     1     2     0     0  6.843501973E+01  2.555451450E+02 -4.313756180E+02  5.212452367E+02  1.250000000E+02  0.00000E+00  9.000E+00
      21     1     1     2   502   512 -4.493628422E+00 -7.328043691E+01 -6.301679358E+02  6.344303291E+02  7.629394531E-06  0.00000E+00  9.000E+00
#rwgt            1           1   2.5808650391404092E-002           5       99020           0
</event>
<event>
      5   9999  3.19816E-02  5.76833E+01 -1.00000E+00  1.35624E-01
      21    -1     0     0   502   501  0.000000000E+00  0.000000000E+00  1.276789355E+03  1.276789355E+03  0.000000000E+00  0.00000E+00  9.000E+00
      21    -1     0     0   501   511  0.000000000E+00  0.000000000E+00 -1.350100812E+02  1.350100812E+02  0.000000000E+00  0.00000E+00  9.000E+00
      25     1     1     2     0     0  6.585028055E+01  3.430701975E+02  7.169362045E+02  8.072520927E+02  1.250000000E+02  0.00000E+00  9.000E+00
      25     1     1     2     0     0 -9.459851992E+01 -2.930611936E+02  4.334739391E+02  5.462219320E+02  1.250000000E+02  0.00000E+00  9.000E+00
      21     1     1     2   502   511  2.874823937E+01 -5.000900391E+01 -8.630869437E+00  5.832541167E+01  4.768371582E-07  0.00000E+00  9.000E+00
#rwgt            1           1   2.4597701608045381E-002           5       99145           0
</event>
<event>
      5   9999  3.19816E-02  8.53675E+00 -1.00000E+00  2.04050E-01
      21    -1     0     0   502   501  0.000000000E+00  0.000000000E+00  1.368531683E+02  1.368531683E+02  0.000000000E+00  0.00000E+00  9.000E+00
      21    -1     0     0   501   512  0.000000000E+00  0.000000000E+00 -8.024439584E+02  8.024439584E+02  0.000000000E+00  0.00000E+00  9.000E+00
      25     1     1     2     0     0  2.485347614E+02 -6.965484343E+01 -1.046480471E+02  3.052827192E+02  1.250000000E+02  0.00000E+00  9.000E+00
      25     1     1     2     0     0 -2.500006110E+02  6.124488353E+01 -5.513101111E+02  6.211433650E+02  1.250000000E+02  0.00000E+00  9.000E+00
      21     1     1     2   502   512  1.465849592E+00  8.409959893E+00 -9.632631868E+00  1.287104258E+01  2.064765462E-07  0.00000E+00  9.000E+00
#rwgt            2          11   2.1520190051167996E-003           5       99318           0
</event>
<event>
      5   9999  3.19816E-02  5.15979E+01 -1.00000E+00  1.38300E-01
      21    -1     0     0   502   501  0.000000000E+00  0.000000000E+00  6.874796934E+02  6.874796934E+02  0.000000000E+00  0.00000E+00  9.000E+00
      21    -1     0     0   511   502  0.000000000E+00  0.000000000E+00 -3.038194631E+02  3.038194631E+02  0.000000000E+00  0.00000E+00  9.000E+00
      25     1     1     2     0     0  2.140968315E+02  2.180287537E+02  5.099465732E+02  6.074903277E+02  1.250000000E+02  0.00000E+00  9.000E+00
      25     1     1     2     0     0 -2.186586240E+02 -1.666329518E+02 -7.524596470E+01  3.112315693E+02  1.250000000E+02  0.00000E+00  9.000E+00
      21     1     1     2   511   501  4.561792521E+00 -5.139580186E+01 -5.104037826E+01  7.257725961E+01  9.536743164E-07  0.00000E+00  9.000E+00
#rwgt            1           1   2.7834401403254633E-002           5       99368           0
</event>
<event>
      5   9999  3.19816E-02  1.69631E+02 -1.00000E+00  1.14315E-01
      21    -1     0     0   512   501  0.000000000E+00  0.000000000E+00  2.081470948E+03  2.081470948E+03  0.000000000E+00  0.00000E+00  9.000E+00
      21    -1     0     0   501   502  0.000000000E+00  0.000000000E+00 -1.064725954E+03  1.064725954E+03  0.000000000E+00  0.00000E+00  9.000E+00
      25     1     1     2     0     0 -9.494206089E+02  2.468478206E+02  4.256028110E+02  1.076613251E+03  1.250000000E+02  0.00000E+00  9.000E+00
      25     1     1     2     0     0  8.509764082E+02 -1.087050746E+02 -4.760097439E+02  9.890338300E+02  1.250000000E+02  0.00000E+00  9.000E+00
      21     1     1     2   512   502  9.844420075E+01 -1.381427460E+02  1.067151928E+03  1.080549821E+03  1.525878906E-05  0.00000E+00  9.000E+00
#rwgt            1           1   3.2231280386636273E-002           5       99505           0
</event>
<event>
      5   9999  3.19816E-02  1.65897E+01 -1.00000E+00  1.73359E-01
      21    -1     0     0   502   511  0.000000000E+00  0.000000000E+00  1.419415187E+02  1.419415187E+02  0.000000000E+00  0.00000E+00  9.000E+00
      21    -1     0     0   501   502  0.000000000E+00  0.000000000E+00 -1.793513464E+03  1.793513464E+03  0.000000000E+00  0.00000E+00  9.000E+00
      25     1     1     2     0     0  1.064078588E+02 -2.139569456E+01 -1.726409954E+03  1.734328901E+03  1.250000000E+02  0.00000E+00  9.000E+00
      25     1     1     2     0     0 -1.068835856E+02  3.797854527E+01  7.457510650E+01  1.845343255E+02  1.250000000E+02  0.00000E+00  9.000E+00
      21     1     1     2   501   511  4.757268651E-01 -1.658285071E+01  2.629020672E-01  1.659175612E+01  3.676920027E-07  0.00000E+00  9.000E+00
#rwgt            1           1   3.0847621898947325E-002           5       99590           0
</event>
<event>
      5   9999  3.19816E-02  5.97322E+02 -1.00000E+00  9.67062E-02
      21    -1     0     0   502   512  0.000000000E+00  0.000000000E+00  6.391825801E+02  6.391825801E+02  0.000000000E+00  0.00000E+00  9.000E+00
      21    -1     0     0   501   502  0.000000000E+00  0.000000000E+00 -1.132225808E+03  1.132225808E+03  0.000000000E+00  0.00000E+00  9.000E+00
      25     1     1     2     0     0 -2.003670701E+02  5.242251075E+01 -4.970856158E+02  5.528238344E+02  1.250000000E+02  0.00000E+00  9.000E+00
      25     1     1     2     0     0 -3.046180241E+02 -3.714573201E+02 -2.658792672E+02  5.631069756E+02  1.250000000E+02  0.00000E+00  9.000E+00
      21     1     1     2   501   512  5.049850942E+02  3.190348094E+02  2.699216553E+02  6.554775778E+02  0.000000000E+00  0.00000E+00  9.000E+00
#rwgt            2          11   3.4074584500505553E-003           5       99841           0
</event>
<event>
      5   9999  3.19816E-02  7.10573E+01 -1.00000E+00  1.30892E-01
      21    -1     0     0   502   501  0.000000000E+00  0.000000000E+00  8.460470577E+02  8.460470577E+02  0.000000000E+00  0.00000E+00  9.000E+00
      21    -1     0     0   501   511  0.000000000E+00  0.000000000E+00 -1.535330506E+02  1.535330506E+02  0.000000000E+00  0.00000E+00  9.000E+00
      25     1     1     2     0     0  2.755219334E+02  1.869878838E+01  1.523249696E+02  3.392489894E+02  1.250000000E+02  0.00000E+00  9.000E+00
      25     1     1     2     0     0 -2.245621450E+02 -6.821889454E+01  5.237681656E+02  5.874011115E+02  1.250000000E+02  0.00000E+00  9.000E+00
      21     1     1     2   502   511 -5.095978835E+01  4.952010616E+01  1.642087194E+01  7.293000739E+01  1.011524364E-06  0.00000E+00  9.000E+00
#rwgt            1           1   2.8776090599684934E-002           5       99861           0
</event>
<event>
      5   9999  3.19816E-02  5.15542E+01 -1.00000E+00  1.38321E-01
      21    -1     0     0   502   512  0.000000000E+00  0.000000000E+00  3.447120530E+02  3.447120530E+02  0.000000000E+00  0.00000E+00  9.000E+00
      21    -1     0     0   501   502  0.000000000E+00  0.000000000E+00 -1.716038079E+02  1.716038079E+02  0.000000000E+00  0.00000E+00  9.000E+00
      25     1     1     2     0     0  8.828267166E+01  8.553170874E+01  2.203040157E+02  2.815463774E+02  1.250000000E+02  0.00000E+00  9.000E+00
      25     1     1     2     0     0 -3.744659066E+01 -9.410638618E+01 -7.351770044E+01  1.768844576E+02  1.250000000E+02  0.00000E+00  9.000E+00
      21     1     1     2   501   512 -5.083608100E+01  8.574677440E+00  2.632192982E+01  5.788502582E+01  9.536743164E-07  0.00000E+00  9.000E+00
#rwgt            1           1   3.0488784056542664E-002           5       99925           0
</event>
<event>
      5   9999  3.19816E-02  4.62181E+01 -1.00000E+00  1.41053E-01
      21    -1     0     0   502   501  0.000000000E+00  0.000000000E+00  2.200213475E+02  2.200213475E+02  0.000000000E+00  0.00000E+00  9.000E+00
       2    -1     0     0   501     0  0.000000000E+00  0.000000000E+00 -1.526952523E+03  1.526952523E+03  0.000000000E+00  0.00000E+00  9.000E+00
      25     1     1     2     0     0 -1.881539507E+02  3.475892098E+01 -2.473691561E+02  3.367886446E+02  1.250000000E+02  0.00000E+00  9.000E+00
      25     1     1     2     0     0  2.275803341E+02 -5.887688993E+01  7.348480576E+01  2.761961501E+02  1.250000000E+02  0.00000E+00  9.000E+00
       2     1     1     2   502     0 -3.942638335E+01  2.411796895E+01 -1.133046825E+03  1.133989076E+03  0.000000000E+00  0.00000E+00  9.000E+00
#rwgt            1           1   2.7949189728995492E-002           5      100007           0
</event>
<event>
      5   9999  3.19816E-02  5.64270E+01 -1.00000E+00  1.36144E-01
      21    -1     0     0   502   501  0.000000000E+00  0.000000000E+00  8.715286509E+02  8.715286509E+02  0.000000000E+00  0.00000E+00  9.000E+00
      21    -1     0     0   511   502  0.000000000E+00  0.000000000E+00 -1.234585679E+02  1.234585679E+02  0.000000000E+00  0.00000E+00  9.000E+00
      25     1     1     2     0     0 -1.271024136E+02  1.099296740E+02  1.910315982E+01  2.103080775E+02  1.250000000E+02  0.00000E+00  9.000E+00
      25     1     1     2     0     0  1.249737217E+02 -5.354287417E+01  6.943205428E+02  7.184645341E+02  1.250000000E+02  0.00000E+00  9.000E+00
      21     1     1     2   511   501  2.128691837E+00 -5.638679984E+01  3.464638039E+01  6.621460715E+01  1.507891493E-06  0.00000E+00  9.000E+00
#rwgt            1           1   2.7415304904645294E-002           5      100170           0
</event>
<event>
      5   9999  3.19816E-02  1.27579E+02 -1.00000E+00  1.19250E-01
       2    -1     0     0   502     0  0.000000000E+00  0.000000000E+00  2.870632601E+02  2.870632601E+02  0.000000000E+00  0.00000E+00  9.000E+00
      21    -1     0     0   501   502  0.000000000E+00  0.000000000E+00 -1.039151220E+03  1.039151220E+03  0.000000000E+00  0.00000E+00  9.000E+00
      25     1     1     2     0     0  1.716050086E+02 -1.890247013E+02 -8.745195584E+02  9.195586304E+02  1.250000000E+02  0.00000E+00  9.000E+00
      25     1     1     2     0     0 -4.781085979E+01  2.198699502E+02  5.853295412E+01  2.639692786E+02  1.250000000E+02  0.00000E+00  9.000E+00
       2     1     1     2   501     0 -1.237941489E+02 -3.084524895E+01  6.389864473E+01  1.426865708E+02  2.861022949E-06  0.00000E+00  9.000E+00
#rwgt            1           1   2.8699198206916281E-002           5      100244           0
</event>
<event>
      5   9999  3.19816E-02  1.26822E+02 -1.00000E+00  1.19358E-01
      21    -1     0     0   502   501  0.000000000E+00  0.000000000E+00  2.838397476E+02  2.838397476E+02  0.000000000E+00  0.00000E+00  9.000E+00
      21    -1     0     0   501   511  0.000000000E+00  0.000000000E+00 -5.293514945E+02  5.293514945E+02  0.000000000E+00  0.00000E+00  9.000E+00
      25     1     1     2     0     0  1.135300710E+02  2.099796323E+02 -1.310617346E+02  2.996376166E+02  1.250000000E+02  0.00000E+00  9.000E+00
      25     1     1     2     0     0  1.201620801E+01 -2.279215311E+02  8.796404583E+01  2.746912575E+02  1.250000000E+02  0.00000E+00  9.000E+00
      21     1     1     2   502   511 -1.255462790E+02  1.794189881E+01 -2.024140581E+02  2.388623680E+02  2.697398305E-06  0.00000E+00  9.000E+00
#rwgt            1           1   2.6244479599147018E-002           5      100378           0
</event>
<event>
      5   9999  3.19816E-02  1.53465E+01 -1.00000E+00  1.76454E-01
      21    -1     0     0   512   501  0.000000000E+00  0.000000000E+00  1.585240992E+03  1.585240992E+03  0.000000000E+00  0.00000E+00  9.000E+00
      21    -1     0     0   501   502  0.000000000E+00  0.000000000E+00 -3.072046336E+02  3.072046336E+02  0.000000000E+00  0.00000E+00  9.000E+00
      25     1     1     2     0     0  1.797449427E+02 -4.693333767E+02  1.854408805E+01  5.182190136E+02  1.250000000E+02  0.00000E+00  9.000E+00
      25     1     1     2     0     0 -1.876233943E+02  4.825032613E+02  1.201625902E+03  1.314359823E+03  1.250000000E+02  0.00000E+00  9.000E+00
      21     1     1     2   512   502  7.878451617E+00 -1.316988465E+01  5.786636778E+01  5.986678863E+01  0.000000000E+00  0.00000E+00  9.000E+00
#rwgt            1           1   2.7800856807055043E-002           5      100439           0
</event>
<event>
      5   9999  3.19816E-02  4.61019E+00 -1.00000E+00  2.49740E-01
      21    -1     0     0   511   501  0.000000000E+00  0.000000000E+00  6.899789906E+01  6.899789906E+01  0.000000000E+00  0.00000E+00  9.000E+00
      21    -1     0     0   501   502  0.000000000E+00  0.000000000E+00 -8.000738258E+02  8.000738258E+02  0.000000000E+00  0.00000E+00  9.000E+00
      25     1     1     2     0     0  3.767790386E+01 -1.540948022E+02 -2.124300689E+02  2.931149377E+02  1.250000000E+02  0.00000E+00  9.000E+00
      25     1     1     2     0     0 -4.228709326E+01  1.541907872E+02 -5.279276412E+02  5.655931324E+02  1.250000000E+02  0.00000E+00  9.000E+00
      21     1     1     2   511   502  4.609189393E+00 -9.598499824E-02  9.281783327E+00  1.036365484E+01  1.192092896E-07  0.00000E+00  9.000E+00
#rwgt            1           1   2.9766693837187681E-002           5      100654           0
</event>
<event>
      5   9999  3.19816E-02  7.42887E+01 -1.00000E+00  1.29926E-01
      21    -1     0     0   502   501  0.000000000E+00  0.000000000E+00  8.790098159E+02  8.790098159E+02  0.000000000E+00  0.00000E+00  9.000E+00
      21    -1     0     0   512   502  0.000000000E+00  0.000000000E+00 -1.697224212E+02  1.697224212E+02  0.000000000E+00  0.00000E+00  9.000E+00
      25     1     1     2     0     0  1.587418893E+02  8.943654961E+01  1.034989836E+02  2.439977939E+02  1.250000000E+02  0.00000E+00  9.000E+00
      25     1     1     2     0     0 -8.989507245E+01 -1.173458274E+02  6.756015700E+02  7.027899037E+02  1.250000000E+02  0.00000E+00  9.000E+00
      21     1     1     2   512   501 -6.884681687E+01  2.790927782E+01 -6.981315895E+01  1.019445395E+02  1.651812370E-06  0.00000E+00  9.000E+00
#rwgt            1           1   3.3478490780279674E-002           5      100996           0
</event>
<event>
      5   9999  3.19816E-02  5.57759E+01 -1.00000E+00  1.36420E-01
      21    -1     0     0   502   501  0.000000000E+00  0.000000000E+00  4.490051288E+02  4.490051288E+02  0.000000000E+00  0.00000E+00  9.000E+00
       1    -1     0     0   501     0  0.000000000E+00  0.000000000E+00 -9.648209498E+02  9.648209498E+02  0.000000000E+00  0.00000E+00  9.000E+00
      25     1     1     2     0     0 -2.194128429E+01  1.819268830E+02 -3.387919437E+02  4.049491225E+02  1.250000000E+02  0.00000E+00  9.000E+00
      25     1     1     2     0     0  7.271895205E+01 -1.588492555E+02  3.867212792E+02  4.423793392E+02  1.250000000E+02  0.00000E+00  9.000E+00
       1     1     1     2   502     0 -5.077766776E+01 -2.307762753E+01 -5.637451565E+02  5.664976169E+02  0.000000000E+00  0.00000E+00  9.000E+00
#rwgt            1           1   2.9477417045219702E-002           5      101065           0
</event>
<event>
      5   9999  3.19816E-02  1.89726E+02 -1.00000E+00  1.12488E-01
      21    -1     0     0   502   501  0.000000000E+00  0.000000000E+00  8.234855037E+02  8.234855037E+02  0.000000000E+00  0.00000E+00  9.000E+00
      21    -1     0     0   511   502  0.000000000E+00  0.000000000E+00 -1.779022679E+02  1.779022679E+02  0.000000000E+00  0.00000E+00  9.000E+00
      25     1     1     2     0     0 -3.154048983E+02  4.123172741E+01  1.724995962E+02  3.828334049E+02  1.250000000E+02  0.00000E+00  9.000E+00
      25     1     1     2     0     0  1.344359268E+02  1.574385560E+01  3.403093618E+02  3.869836548E+02  1.250000000E+02  0.00000E+00  9.000E+00
      21     1     1     2   511   501  1.809689716E+02 -5.697558301E+01  1.327742778E+02  2.315707118E+02  3.814697266E-06  0.00000E+00  9.000E+00
#rwgt            1           1   2.9613312054248730E-002           5      101158           0
</event>
<event>
      5   9999  3.19816E-02  1.01150E+02 -1.00000E+00  1.23605E-01
      21    -1     0     0   512   501  0.000000000E+00  0.000000000E+00  4.799545870E+02  4.799545870E+02  0.000000000E+00  0.00000E+00  9.000E+00
      21    -1     0     0   501   502  0.000000000E+00  0.000000000E+00 -8.094263906E+02  8.094263906E+02  0.000000000E+00  0.00000E+00  9.000E+00
      25     1     1     2     0     0 -5.540238416E+01  2.466920462E+02 -3.416068510E+02  4.429973256E+02  1.250000000E+02  0.00000E+00  9.000E+00
      25     1     1     2     0     0 -2.017720841E+01 -1.794681753E+02 -3.813649979E+02  4.400911352E+02  1.250000000E+02  0.00000E+00  9.000E+00
      21     1     1     2   512   502  7.557959257E+01 -6.722387087E+01  3.935000453E+02  4.062925169E+02  0.000000000E+00  0.00000E+00  9.000E+00
#rwgt            1           1   2.7810574057988337E-002           5      101196           0
</event>
<event>
      5   9999  3.19816E-02  3.29864E+01 -1.00000E+00  1.50231E-01
      21    -1     0     0   502   501  0.000000000E+00  0.000000000E+00  1.072551230E+03  1.072551230E+03  0.000000000E+00  0.00000E+00  9.000E+00
      21    -1     0     0   501   511  0.000000000E+00  0.000000000E+00 -6.208110840E+02  6.208110840E+02  0.000000000E+00  0.00000E+00  9.000E+00
      25     1     1     2     0     0  3.915576636E+02  2.790945598E+01  9.274609611E+02  1.014842439E+03  1.250000000E+02  0.00000E+00  9.000E+00
      25     1     1     2     0     0 -4.245431699E+02 -2.814868334E+01 -4.053517397E+02  6.008030329E+02  1.250000000E+02  0.00000E+00  9.000E+00
      21     1     1     2   502   511  3.298550636E+01  2.392273558E-01 -7.036907515E+01  7.771684243E+01  9.536743164E-07  0.00000E+00  9.000E+00
#rwgt            1           1   2.8670634028608442E-002           5      101241           0
</event>
<event>
      5   9999  3.19816E-02  7.30518E+01 -1.00000E+00  1.30289E-01
      21    -1     0     0   502   501  0.000000000E+00  0.000000000E+00  4.448877833E+02  4.448877833E+02  0.000000000E+00  0.00000E+00  9.000E+00
      21    -1     0     0   501   512  0.000000000E+00  0.000000000E+00 -4.093086817E+02  4.093086817E+02  0.000000000E+00  0.00000E+00  9.000E+00
      25     1     1     2     0     0  3.253095798E+01 -4.785913624E+01  3.235021820E+02  3.516069139E+02  1.250000000E+02  0.00000E+00  9.000E+00
      25     1     1     2     0     0  3.802294662E+01  6.679889765E+01  5.140727582E+01  1.554848713E+02  1.250000000E+02  0.00000E+00  9.000E+00
      21     1     1     2   502   512 -7.055390460E+01 -1.893976141E+01 -3.393303562E+02  3.471046797E+02  6.607249480E-06  0.00000E+00  9.000E+00
#rwgt            2          11   1.8356347444978827E-002           5      101498           0
</event>
<event>
      5   9999  3.19816E-02  2.19434E+01 -1.00000E+00  1.63113E-01
      21    -1     0     0   502   511  0.000000000E+00  0.000000000E+00  3.193943326E+02  3.193943326E+02  0.000000000E+00  0.00000E+00  9.000E+00
      21    -1     0     0   501   502  0.000000000E+00  0.000000000E+00 -2.845766476E+02  2.845766476E+02  0.000000000E+00  0.00000E+00  9.000E+00
      25     1     1     2     0     0 -2.103686392E+02  8.101900862E+01  9.373755279E+01  2.742822869E+02  1.250000000E+02  0.00000E+00  9.000E+00
      25     1     1     2     0     0  1.970224882E+02 -6.360076415E+01 -1.162285667E+02  2.683225629E+02  1.250000000E+02  0.00000E+00  9.000E+00
      21     1     1     2   501   511  1.334615096E+01 -1.741824447E+01  5.730869889E+01  6.136613035E+01  6.743495762E-07  0.00000E+00  9.000E+00
#rwgt            1           1   2.5905428512880989E-002           5      101518           0
</event>
<event>
      5   9999  3.90976E-02  8.23401E+00 -1.00000E+00  2.06047E-01
      21    -1     0     0   502   512  0.000000000E+00  0.000000000E+00  2.404244492E+03  2.404244492E+03  0.000000000E+00  0.00000E+00  9.000E+00
      21    -1     0     0   501   502  0.000000000E+00  0.000000000E+00 -8.153551317E+01  8.153551317E+01  0.000000000E+00  0.00000E+00  9.000E+00
      25     1     1     2     0     0  3.853245912E+02  5.959922680E+01  6.974577418E+02  8.087641251E+02  1.250000000E+02  0.00000E+00  9.000E+00
      25     1     1     2     0     0 -3.818515062E+02 -5.213352688E+01  1.596565080E+03  1.647171373E+03  1.250000000E+02  0.00000E+00  9.000E+00
      21     1     1     2   501   512 -3.473085017E+00 -7.465699914E+00  2.868615655E+01  2.984450657E+01  0.000000000E+00  0.00000E+00  9.000E+00
#rwgt            1           1  0.11296518467596919                5      101624           0
</event>
<event>
      5   9999  3.19816E-02  5.87829E+01 -1.00000E+00  1.35181E-01
      21    -1     0     0   502   511  0.000000000E+00  0.000000000E+00  5.486231558E+02  5.486231558E+02  0.000000000E+00  0.00000E+00  9.000E+00
      21    -1     0     0   501   502  0.000000000E+00  0.000000000E+00 -1.500408906E+02  1.500408906E+02  0.000000000E+00  0.00000E+00  9.000E+00
      25     1     1     2     0     0 -9.809363420E+01 -1.923051562E+02  1.626075495E+02  2.977748299E+02  1.250000000E+02  0.00000E+00  9.000E+00
      25     1     1     2     0     0  4.288123956E+01  2.124799969E+02  1.356895945E+02  2.846457726E+02  1.250000000E+02  0.00000E+00  9.000E+00
      21     1     1     2   501   511  5.521239464E+01 -2.017484068E+01  1.002851212E+02  1.162434439E+02  1.907348633E-06  0.00000E+00  9.000E+00
#rwgt            1           1   2.9754090401820522E-002           5      101961           0
</event>
<event>
      5   9999  3.19816E-02  8.26003E+01 -1.00000E+00  1.27681E-01
      21    -1     0     0   502   501  0.000000000E+00  0.000000000E+00  7.789550143E+02  7.789550143E+02  0.000000000E+00  0.00000E+00  9.000E+00
      21    -1     0     0   501   512  0.000000000E+00  0.000000000E+00 -2.304473939E+02  2.304473939E+02  0.000000000E+00  0.00000E+00  9.000E+00
      25     1     1     2     0     0 -1.743808608E+02 -2.715912613E+01  6.954572104E+02  7.283076509E+02  1.250000000E+02  0.00000E+00  9.000E+00
      25     1     1     2     0     0  9.490454098E+01  4.657546158E+00 -9.506707169E+01  1.835519348E+02  1.250000000E+02  0.00000E+00  9.000E+00
      21     1     1     2   502   512  7.947631980E+01  2.250157997E+01 -5.188251839E+01  9.754282252E+01  2.336015456E-06  0.00000E+00  9.000E+00
#rwgt            1           1   2.2240410727338022E-002           5      102045           0
</event>
<event>
      5   9999  3.19816E-02  1.07867E+02 -1.00000E+00  1.22367E-01
      21    -1     0     0   502   501  0.000000000E+00  0.000000000E+00  4.706983275E+02  4.706983275E+02  0.000000000E+00  0.00000E+00  9.000E+00
       2    -1     0     0   501     0  0.000000000E+00  0.000000000E+00 -1.645953434E+03  1.645953434E+03  0.000000000E+00  0.00000E+00  9.000E+00
      25     1     1     2     0     0 -2.383219236E+02  2.270667845E+01  1.554586272E+02  3.116172609E+02  1.250000000E+02  0.00000E+00  9.000E+00
      25     1     1     2     0     0  2.607204298E+02 -1.282222589E+02  1.288204273E+02  3.415198276E+02  1.250000000E+02  0.00000E+00  9.000E+00
       2     1     1     2   502     0 -2.239850617E+01  1.055155804E+02 -1.459534161E+03  1.463514673E+03  3.051757812E-05  0.00000E+00  9.000E+00
#rwgt            2          13   8.0499670227730889E-003           5      102149           0
</event>
<event>
      5   9999  3.19816E-02  7.96649E+01 -1.00000E+00  1.28438E-01
      21    -1     0     0   502   511  0.000000000E+00  0.000000000E+00  1.459869927E+03  1.459869927E+03  0.000000000E+00  0.00000E+00  9.000E+00
      21    -1     0     0   501   502  0.000000000E+00  0.000000000E+00 -6.785567452E+02  6.785567452E+02  0.000000000E+00  0.00000E+00  9.000E+00
      25     1     1     2     0     0  1.358045429E+02 -3.110017486E+02 -2.428092644E+02  4.355987837E+02  1.250000000E+02  0.00000E+00  9.000E+00
      25     1     1     2     0     0 -6.477550753E+01  2.749271512E+02 -2.675853540E+02  4.086657883E+02  1.250000000E+02  0.00000E+00  9.000E+00
      21     1     1     2   501   511 -7.102903533E+01  3.607459743E+01  1.291707800E+03  1.294162100E+03  0.000000000E+00  0.00000E+00  9.000E+00
#rwgt            2          11   6.8474950520268796E-003           5      102228           0
</event>
<event>
      5   9999  3.19816E-02  7.19129E+01 -1.00000E+00  1.30630E-01
      21    -1     0     0   502   501  0.000000000E+00  0.000000000E+00  6.109397946E+02  6.109397946E+02  0.000000000E+00  0.00000E+00  9.000E+00
      21    -1     0     0   501   512  0.000000000E+00  0.000000000E+00 -2.766858557E+03  2.766858557E+03  0.000000000E+00  0.00000E+00  9.000E+00
      25     1     1     2     0     0  4.174947353E+02  1.911589396E+01  4.784399954E+02  6.474543231E+02  1.250000000E+02  0.00000E+00  9.000E+00
      25     1     1     2     0     0 -3.463244671E+02 -8.807898481E+00 -6.690650979E+02  7.637351117E+02  1.250000000E+02  0.00000E+00  9.000E+00
      21     1     1     2   502   512 -7.117026818E+01 -1.030799548E+01 -1.965293660E+03  1.966608917E+03  3.051757812E-05  0.00000E+00  9.000E+00
#rwgt            1           1   2.1793031906161199E-002           5      102248           0
</event>
<event>
      5   9999  3.19816E-02  5.67235E+01 -1.00000E+00  1.36020E-01
      21    -1     0     0   502   511  0.000000000E+00  0.000000000E+00  5.171063891E+02  5.171063891E+02  0.000000000E+00  0.00000E+00  9.000E+00
      21    -1     0     0   501   502  0.000000000E+00  0.000000000E+00 -5.119186674E+02  5.119186674E+02  0.000000000E+00  0.00000E+00  9.000E+00
      25     1     1     2     0     0  2.679954463E+02 -3.194169176E+02 -2.299737878E+02  4.923024168E+02  1.250000000E+02  0.00000E+00  9.000E+00
      25     1     1     2     0     0 -3.013413137E+02  2.735300541E+02  2.082374296E+02  4.739336503E+02  1.250000000E+02  0.00000E+00  9.000E+00
      21     1     1     2   501   511  3.334586734E+01  4.588686348E+01  2.692407993E+01  6.278898939E+01  6.743495762E-07  0.00000E+00  9.000E+00
#rwgt            1           1   3.1857033320150753E-002           5      102383           0
</event>
<event>
      5   9999  3.19816E-02  5.14544E+01 -1.00000E+00  1.38369E-01
      21    -1     0     0   512   501  0.000000000E+00  0.000000000E+00  2.379381131E+03  2.379381131E+03  0.000000000E+00  0.00000E+00  9.000E+00
      21    -1     0     0   501   502  0.000000000E+00  0.000000000E+00 -5.428817723E+02  5.428817723E+02  0.000000000E+00  0.00000E+00  9.000E+00
      25     1     1     2     0     0  1.712195467E+02  4.136670606E+02 -3.951344131E+02  6.100760400E+02  1.250000000E+02  0.00000E+00  9.000E+00
      25     1     1     2     0     0 -1.245533696E+02 -4.353424804E+02  1.356328801E+03  1.435370834E+03  1.250000000E+02  0.00000E+00  9.000E+00
      21     1     1     2   512   502 -4.666617711E+01  2.167541981E+01  8.753049708E+02  8.768160285E+02  1.525878906E-05  0.00000E+00  9.000E+00
#rwgt            1           1   3.0239112237413542E-002           5      102515           0
</event>
<event>
      5   9999  3.19816E-02  1.04277E+02 -1.00000E+00  1.23015E-01
      21    -1     0     0   511   501  0.000000000E+00  0.000000000E+00  2.748321983E+03  2.748321983E+03  0.000000000E+00  0.00000E+00  9.000E+00
      21    -1     0     0   501   502  0.000000000E+00  0.000000000E+00 -2.954386287E+01  2.954386287E+01  0.000000000E+00  0.00000E+00  9.000E+00
      25     1     1     2     0     0  4.171188499E+01 -1.549265661E+01  1.830205390E+02  2.260562351E+02  1.250000000E+02  0.00000E+00  9.000E+00
      25     1     1     2     0     0 -3.623409674E+01  1.196261673E+02  1.807646052E+03  1.816268862E+03  1.250000000E+02  0.00000E+00  9.000E+00
      21     1     1     2   511   502 -5.477788252E+00 -1.041335107E+02  7.281115295E+02  7.355407491E+02  0.000000000E+00  0.00000E+00  9.000E+00
#rwgt            1           1   6.3268516734483568E-002           5      102646           0
</event>
<event>
      5   9999  3.19816E-02  1.65755E+02 -1.00000E+00  1.14700E-01
      21    -1     0     0   502   512  0.000000000E+00  0.000000000E+00  3.255990626E+02  3.255990626E+02  0.000000000E+00  0.00000E+00  9.000E+00
      21    -1     0     0   501   502  0.000000000E+00  0.000000000E+00 -1.223376211E+03  1.223376211E+03  0.000000000E+00  0.00000E+00  9.000E+00
      25     1     1     2     0     0 -1.529983009E+02 -3.524269044E+02 -7.119985449E+02  8.186453023E+02  1.250000000E+02  0.00000E+00  9.000E+00
      25     1     1     2     0     0 -7.974927839E+00  3.129014748E+02 -3.577307759E+02  4.914949038E+02  1.250000000E+02  0.00000E+00  9.000E+00
      21     1     1     2   501   512  1.609732287E+02  3.952542969E+01  1.719521723E+02  2.388350676E+02  4.672030912E-06  0.00000E+00  9.000E+00
#rwgt            1           1   2.7400495747451147E-002           5      102717           0
</event>
<event>
      5   9999  3.19816E-02  7.09816E+01 -1.00000E+00  1.30915E-01
      21    -1     0     0   502   501  0.000000000E+00  0.000000000E+00  2.631349556E+02  2.631349556E+02  0.000000000E+00  0.00000E+00  9.000E+00
      21    -1     0     0   511   502  0.000000000E+00  0.000000000E+00 -6.240809027E+02  6.240809027E+02  0.000000000E+00  0.00000E+00  9.000E+00
      25     1     1     2     0     0 -1.800280776E+02  1.126342822E+02  4.067900351E+01  2.497526208E+02  1.250000000E+02  0.00000E+00  9.000E+00
      25     1     1     2     0     0  1.968509377E+02 -1.815935463E+02 -7.734519677E+01  3.055057892E+02  1.250000000E+02  0.00000E+00  9.000E+00
      21     1     1     2   511   501 -1.682286017E+01  6.895926410E+01 -3.242797539E+02  3.319574483E+02  0.000000000E+00  0.00000E+00  9.000E+00
#rwgt            1           1   2.5306056527774918E-002           5      102757           0
</event>
<event>
      5   9999  3.19816E-02  2.04542E+01 -1.00000E+00  1.65568E-01
      21    -1     0     0   512   501  0.000000000E+00  0.000000000E+00  1.450332691E+03  1.450332691E+03  0.000000000E+00  0.00000E+00  9.000E+00
      21    -1     0     0   501   502  0.000000000E+00  0.000000000E+00 -5.005168422E+01  5.005168422E+01  0.000000000E+00  0.00000E+00  9.000E+00
      25     1     1     2     0     0  1.511525021E+02  1.038523297E+02  4.017289225E+02  4.589591621E+02  1.250000000E+02  0.00000E+00  9.000E+00
      25     1     1     2     0     0 -1.350289895E+02 -9.126638612E+01  4.753959473E+02  5.178693735E+02  1.250000000E+02  0.00000E+00  9.000E+00
      21     1     1     2   512   502 -1.612351259E+01 -1.258594353E+01  5.231561367E+02  5.235558395E+02  7.629394531E-06  0.00000E+00  9.000E+00
#rwgt            1           1   3.3721887333562899E-002           5      102861           0
</event>
<event>
      5   9999  3.19816E-02  1.09669E+02 -1.00000E+00  1.22051E-01
      21    -1     0     0   502   501  0.000000000E+00  0.000000000E+00  1.133335194E+03  1.133335194E+03  0.000000000E+00  0.00000E+00  9.000E+00
      21    -1     0     0   501   511  0.000000000E+00  0.000000000E+00 -2.273362356E+02  2.273362356E+02  0.000000000E+00  0.00000E+00  9.000E+00
      25     1     1     2     0     0 -3.074998355E+02 -2.009838796E+02  6.502978131E+02  7.572733420E+02  1.250000000E+02  0.00000E+00  9.000E+00
      25     1     1     2     0     0  2.628324268E+02  1.008233796E+02  3.446236097E+02  4.622084711E+02  1.250000000E+02  0.00000E+00  9.000E+00
      21     1     1     2   502   511  4.466740874E+01  1.001605001E+02 -8.892246435E+01  1.411896166E+02  3.693564745E-06  0.00000E+00  9.000E+00
#rwgt            1           1   2.5440670762694049E-002           5      103029           0
</event>
<event>
      5   9999  3.19816E-02  1.67531E+02 -1.00000E+00  1.14522E-01
      21    -1     0     0   512   501  0.000000000E+00  0.000000000E+00  1.232045213E+03  1.232045213E+03  0.000000000E+00  0.00000E+00  9.000E+00
      21    -1     0     0   501   502  0.000000000E+00  0.000000000E+00 -7.016078189E+02  7.016078189E+02  0.000000000E+00  0.00000E+00  9.000E+00
      25     1     1     2     0     0  2.479311730E+02  4.981846499E+02  4.647871256E+02  7.357376462E+02  1.250000000E+02  0.00000E+00  9.000E+00
      25     1     1     2     0     0 -1.208977307E+02 -6.074048398E+02 -3.692956405E+02  7.318204498E+02  1.250000000E+02  0.00000E+00  9.000E+00
      21     1     1     2   512   502 -1.270334424E+02  1.092201899E+02  4.349459086E+02  4.660949354E+02  5.394796609E-06  0.00000E+00  9.000E+00
#rwgt            1           1   3.1795676071956130E-002           5      103091           0
</event>
<event>
      5   9999  3.19816E-02  4.15344E+00 -1.00000E+00  2.59677E-01
      21    -1     0     0   511   501  0.000000000E+00  0.000000000E+00  1.155184613E+03  1.155184613E+03  0.000000000E+00  0.00000E+00  9.000E+00
      21    -1     0     0   501   502  0.000000000E+00  0.000000000E+00 -8.034352785E+01  8.034352785E+01  0.000000000E+00  0.00000E+00  9.000E+00
      25     1     1     2     0     0 -2.540991848E+01  8.995200400E+01  1.695330009E+02  2.304418915E+02  1.250000000E+02  0.00000E+00  9.000E+00
      25     1     1     2     0     0  2.523255157E+01 -9.410165995E+01  7.599246796E+01  1.757602323E+02  1.250000000E+02  0.00000E+00  9.000E+00
      21     1     1     2   511   502  1.773669079E-01  4.149655944E+00  8.293156161E+02  8.293260168E+02  1.525878906E-05  0.00000E+00  9.000E+00
#rwgt            1           1   2.9691877465300900E-002           5      103153           0
</event>
<event>
      5   9999  3.19816E-02  6.15485E+01 -1.00000E+00  1.34115E-01
      21    -1     0     0   512   501  0.000000000E+00  0.000000000E+00  5.798278786E+02  5.798278786E+02  0.000000000E+00  0.00000E+00  9.000E+00
      21    -1     0     0   501   502  0.000000000E+00  0.000000000E+00 -1.102377432E+03  1.102377432E+03  0.000000000E+00  0.00000E+00  9.000E+00
      25     1     1     2     0     0  2.091871558E+02 -8.643349253E+01 -6.888143581E+02  7.357446803E+02  1.250000000E+02  0.00000E+00  9.000E+00
      25     1     1     2     0     0 -2.303568969E+02  1.442267153E+02 -3.305670435E+02  4.458309271E+02  1.250000000E+02  0.00000E+00  9.000E+00
      21     1     1     2   512   502  2.116974108E+01 -5.779322278E+01  4.968318481E+02  5.006297033E+02  1.206313194E-05  0.00000E+00  9.000E+00
#rwgt            1           1   3.1315245249616160E-002           5      103422           0
</event>
<event>
      5   9999  3.19816E-02  3.61849E+01 -1.00000E+00  1.47593E-01
      21    -1     0     0   511   501  0.000000000E+00  0.000000000E+00  2.214572057E+03  2.214572057E+03  0.000000000E+00  0.00000E+00  9.000E+00
      21    -1     0     0   501   502  0.000000000E+00  0.000000000E+00 -1.098834150E+02  1.098834150E+02  0.000000000E+00  0.00000E+00  9.000E+00
      25     1     1     2     0     0  2.641499457E+02 -2.456798177E+02  7.908957499E+02  8.782225537E+02  1.250000000E+02  0.00000E+00  9.000E+00
      25     1     1     2     0     0 -2.620601304E+02  2.818042981E+02  5.563386893E+02  6.879149014E+02  1.250000000E+02  0.00000E+00  9.000E+00
      21     1     1     2   511   502 -2.089815337E+00 -3.612448042E+01  7.574542026E+02  7.583180167E+02  1.525878906E-05  0.00000E+00  9.000E+00
#rwgt            1           1   3.3261461939270542E-002           5      103476           0
</event>
<event>
      5   9999  3.19816E-02  3.71262E+01 -1.00000E+00  1.46877E-01
      21    -1     0     0   502   512  0.000000000E+00  0.000000000E+00  1.499914414E+03  1.499914414E+03  0.000000000E+00  0.00000E+00  9.000E+00
      21    -1     0     0   501   502  0.000000000E+00  0.000000000E+00 -9.769651675E+02  9.769651675E+02  0.000000000E+00  0.00000E+00  9.000E+00
      25     1     1     2     0     0 -3.315488345E+02 -3.748919671E+01 -7.703237558E+02  8.487365659E+02  1.250000000E+02  0.00000E+00  9.000E+00
      25     1     1     2     0     0  2.961099170E+02  4.855452695E+01 -9.152721173E+00  3.251882491E+02  1.250000000E+02  0.00000E+00  9.000E+00
      21     1     1     2   501   512  3.543891743E+01 -1.106533025E+01  1.302425723E+03  1.302954766E+03  1.525878906E-05  0.00000E+00  9.000E+00
#rwgt            1           1   2.9555855198090990E-002           5      103643           0
</event>
<event>
      5   9999  3.19816E-02  1.16648E+01 -1.00000E+00  1.88331E-01
      21    -1     0     0   502   501  0.000000000E+00  0.000000000E+00  2.193126386E+02  2.193126386E+02  0.000000000E+00  0.00000E+00  9.000E+00
      21    -1     0     0   511   502  0.000000000E+00  0.000000000E+00 -1.640553940E+02  1.640553940E+02  0.000000000E+00  0.00000E+00  9.000E+00
      25     1     1     2     0     0  9.454534290E+01  1.911936280E+01  6.385799295E+01  1.703150468E+02  1.250000000E+02  0.00000E+00  9.000E+00
      25     1     1     2     0     0 -9.210988636E+01 -3.052708116E+01  3.987746209E+01  1.631911328E+02  1.250000000E+02  0.00000E+00  9.000E+00
      21     1     1     2   511   501 -2.435456530E+00  1.140771836E+01 -4.847821053E+01  4.986185298E+01  9.536743164E-07  0.00000E+00  9.000E+00
#rwgt            1           1   7.3247341893964910E-002           5      103801           0
</event>
<event>
      5   9999  3.19816E-02  9.11774E+01 -1.00000E+00  1.25659E-01
      21    -1     0     0   502   501  0.000000000E+00  0.000000000E+00  3.615675996E+02  3.615675996E+02  0.000000000E+00  0.00000E+00  9.000E+00
      21    -1     0     0   501   512  0.000000000E+00  0.000000000E+00 -7.077605941E+02  7.077605941E+02  0.000000000E+00  0.00000E+00  9.000E+00
      25     1     1     2     0     0  2.879948518E+02  2.022874965E+02  1.462566136E+02  4.010950797E+02  1.250000000E+02  0.00000E+00  9.000E+00
      25     1     1     2     0     0 -2.150002823E+02 -2.569236309E+02 -3.597434047E+02  5.072230188E+02  1.250000000E+02  0.00000E+00  9.000E+00
      21     1     1     2   502   512 -7.299456946E+01  5.463613438E+01 -1.327062034E+02  1.610100952E+02  1.907348633E-06  0.00000E+00  9.000E+00
#rwgt            1           1   2.9605106836138290E-002           5      103969           0
</event>
<event>
      5   9999  3.19816E-02  1.08387E+02 -1.00000E+00  1.22275E-01
      21    -1     0     0   502   501  0.000000000E+00  0.000000000E+00  5.838814947E+02  5.838814947E+02  0.000000000E+00  0.00000E+00  9.000E+00
      -2    -1     0     0     0   502  0.000000000E+00  0.000000000E+00 -5.835628575E+02  5.835628575E+02  0.000000000E+00  0.00000E+00  9.000E+00
      25     1     1     2     0     0  2.008060533E+02  4.277622271E+01  3.743248083E+02  4.448560873E+02  1.250000000E+02  0.00000E+00  9.000E+00
      25     1     1     2     0     0 -3.091381002E+02 -3.933336739E+01 -2.689834865E+00  3.357762856E+02  1.250000000E+02  0.00000E+00  9.000E+00
      -2     1     1     2     0   501  1.083320469E+02 -3.442855317E+00 -3.713163363E+02  3.868119792E+02  0.000000000E+00  0.00000E+00  9.000E+00
#rwgt            1           1   3.0629770364310731E-002           5      104037           0
</event>
<event>
      5   9999  3.19816E-02  2.93264E+01 -1.00000E+00  1.53728E-01
      21    -1     0     0   502   511  0.000000000E+00  0.000000000E+00  3.632465180E+02  3.632465180E+02  0.000000000E+00  0.00000E+00  9.000E+00
      21    -1     0     0   501   502  0.000000000E+00  0.000000000E+00 -8.427066079E+02  8.427066079E+02  0.000000000E+00  0.00000E+00  9.000E+00
      25     1     1     2     0     0 -1.148803082E+02 -4.450402533E+02 -5.080294586E+02  6.964030752E+02  1.250000000E+02  0.00000E+00  9.000E+00
      25     1     1     2     0     0  8.632593812E+01  4.517247848E+02  1.396561848E+01  4.767887240E+02  1.250000000E+02  0.00000E+00  9.000E+00
      21     1     1     2   501   511  2.855437008E+01 -6.684531570E+00  1.460375020E+01  3.276132679E+01  3.769728732E-07  0.00000E+00  9.000E+00
#rwgt            1           1   2.4288538615393949E-002           5      104102           0
</event>
<event>
      5   9999  3.19816E-02  2.60237E+01 -1.00000E+00  1.57456E-01
      21    -1     0     0   502   501  0.000000000E+00  0.000000000E+00  2.049572129E+02  2.049572129E+02  0.000000000E+00  0.00000E+00  9.000E+00
      21    -1     0     0   512   502  0.000000000E+00  0.000000000E+00 -4.927724473E+02  4.927724473E+02  0.000000000E+00  0.00000E+00  9.000E+00
      25     1     1     2     0     0  1.282930810E+02  6.155676868E+01 -3.852052640E+02  4.292510289E+02  1.250000000E+02  0.00000E+00  9.000E+00
      25     1     1     2     0     0 -1.312335566E+02 -3.569969771E+01  1.306448814E+02  2.262516295E+02  1.250000000E+02  0.00000E+00  9.000E+00
      21     1     1     2   512   501  2.940475605E+00 -2.585707097E+01 -3.325485181E+01  4.222700184E+01  4.768371582E-07  0.00000E+00  9.000E+00
#rwgt            1           1   2.9948737522245736E-002           5      104262           0
</event>
<event>
      5   9999  3.19816E-02  4.28526E+01 -1.00000E+00  1.43009E-01
      21    -1     0     0   502   501  0.000000000E+00  0.000000000E+00  3.860899487E+02  3.860899487E+02  0.000000000E+00  0.00000E+00  9.000E+00
      21    -1     0     0   511   502  0.000000000E+00  0.000000000E+00 -1.082879344E+02  1.082879344E+02  0.000000000E+00  0.00000E+00  9.000E+00
      25     1     1     2     0     0 -3.908224011E+01  6.080527981E+01  2.433724595E+02  2.829838469E+02  1.250000000E+02  0.00000E+00  9.000E+00
      25     1     1     2     0     0  8.182460988E+01 -6.387625293E+01  1.174101803E+01  1.629057825E+02  1.250000000E+02  0.00000E+00  9.000E+00
      21     1     1     2   511   501 -4.274236977E+01  3.070973117E+00  2.268853669E+01  4.848825370E+01  5.840038640E-07  0.00000E+00  9.000E+00
#rwgt            1           1   2.4902638670570024E-002           5      104418           0
</event>
<event>
      5   9999  3.19816E-02  1.20011E+02 -1.00000E+00  1.20367E-01
      21    -1     0     0   502   512  0.000000000E+00  0.000000000E+00  2.225807408E+03  2.225807408E+03  0.000000000E+00  0.00000E+00  9.000E+00
      21    -1     0     0   501   502  0.000000000E+00  0.000000000E+00 -1.962244349E+03  1.962244349E+03  0.000000000E+00  0.00000E+00  9.000E+00
      25     1     1     2     0     0  2.398858712E+02 -1.858196954E+03 -4.887998861E+02  1.940358596E+03  1.250000000E+02  0.00000E+00  9.000E+00
      25     1     1     2     0     0 -1.441887455E+02  1.930617869E+03  5.569823089E+02  2.018397890E+03  1.250000000E+02  0.00000E+00  9.000E+00
      21     1     1     2   501   512 -9.569712568E+01 -7.242091427E+01  1.953806363E+02  2.292952720E+02  2.697398305E-06  0.00000E+00  9.000E+00
#rwgt            1           1   1.5523969297432700E-002           5      104539           0
</event>
<event>
      5   9999  3.19816E-02  5.95321E+01 -1.00000E+00  1.34885E-01
      21    -1     0     0   502   501  0.000000000E+00  0.000000000E+00  4.059882398E+02  4.059882398E+02  0.000000000E+00  0.00000E+00  9.000E+00
      21    -1     0     0   501   511  0.000000000E+00  0.000000000E+00 -2.355766249E+03  2.355766249E+03  0.000000000E+00  0.00000E+00  9.000E+00
      25     1     1     2     0     0 -6.959876182E+02  2.257522554E+02 -1.295279475E+03  1.492895429E+03  1.250000000E+02  0.00000E+00  9.000E+00
      25     1     1     2     0     0  7.503413158E+02 -2.500368602E+02 -2.201290448E+02  8.304289964E+02  1.250000000E+02  0.00000E+00  9.000E+00
      21     1     1     2   502   511 -5.435369758E+01  2.428460482E+01 -4.343694903E+02  4.384300634E+02  5.394796609E-06  0.00000E+00  9.000E+00
#rwgt            1           1   2.9910818250545118E-002           5      104662           0
</event>
<event>
      5   9999  3.19816E-02  4.73697E+01 -1.00000E+00  1.40428E-01
      21    -1     0     0   502   501  0.000000000E+00  0.000000000E+00  1.917976386E+02  1.917976386E+02  0.000000000E+00  0.00000E+00  9.000E+00
      21    -1     0     0   501   512  0.000000000E+00  0.000000000E+00 -9.108860882E+02  9.108860882E+02  0.000000000E+00  0.00000E+00  9.000E+00
      25     1     1     2     0     0 -3.524824559E+02 -7.487785541E+01 -3.241670539E+02  5.005595407E+02  1.250000000E+02  0.00000E+00  9.000E+00
      25     1     1     2     0     0  3.105815430E+02  9.697305508E+01 -2.006936392E+02  4.022034374E+02  1.250000000E+02  0.00000E+00  9.000E+00
      21     1     1     2   502   512  4.190091294E+01 -2.209519967E+01 -1.942277565E+02  1.999207486E+02  0.000000000E+00  0.00000E+00  9.000E+00
#rwgt            1           1   2.9654275605815794E-002           5      104780           0
</event>
<event>
      5   9999  3.19816E-02  2.09285E+01 -1.00000E+00  1.64759E-01
      21    -1     0     0   511   501  0.000000000E+00  0.000000000E+00  6.847795362E+02  6.847795362E+02  0.000000000E+00  0.00000E+00  9.000E+00
      21    -1     0     0   501   502  0.000000000E+00  0.000000000E+00 -7.366144046E+02  7.366144046E+02  0.000000000E+00  0.00000E+00  9.000E+00
      25     1     1     2     0     0 -2.757336313E+02 -2.771825848E+02 -6.021063677E+02  7.287086515E+02  1.250000000E+02  0.00000E+00  9.000E+00
      25     1     1     2     0     0  2.552774732E+02  2.727610778E+02  5.423151385E+02  6.702953851E+02  1.250000000E+02  0.00000E+00  9.000E+00
      21     1     1     2   511   502  2.045615811E+01  4.421506986E+00  7.956360834E+00  2.238990412E+01  5.591411304E-07  0.00000E+00  9.000E+00
#rwgt            1           1   2.8522537388264171E-002           5      104878           0
</event>
<event>
      5   9999  3.19816E-02  4.89426E+01 -1.00000E+00  1.39607E-01
      21    -1     0     0   512   501  0.000000000E+00  0.000000000E+00  8.277278779E+02  8.277278779E+02  0.000000000E+00  0.00000E+00  9.000E+00
      21    -1     0     0   501   502  0.000000000E+00  0.000000000E+00 -5.147405282E+02  5.147405282E+02  0.000000000E+00  0.00000E+00  9.000E+00
      25     1     1     2     0     0  2.147090765E+02 -2.246659320E+02 -4.184270751E+02  5.359859939E+02  1.250000000E+02  0.00000E+00  9.000E+00
      25     1     1     2     0     0 -1.809867628E+02  1.891950554E+02  6.430046186E+02  7.054295974E+02  1.250000000E+02  0.00000E+00  9.000E+00
      21     1     1     2   512   502 -3.372231376E+01  3.547087663E+01  8.840980620E+01  1.010528147E+02  1.348699152E-06  0.00000E+00  9.000E+00
#rwgt            2          11   4.8546841816641748E-003           5      105144           0
</event>
<event>
      5   9999  3.19816E-02  3.32940E+01 -1.00000E+00  1.49962E-01
       2    -1     0     0   502     0  0.000000000E+00  0.000000000E+00  3.685533212E+03  3.685533212E+03  0.000000000E+00  0.00000E+00  9.000E+00
      21    -1     0     0   501   502  0.000000000E+00  0.000000000E+00 -1.103589978E+01  1.103589978E+01  0.000000000E+00  0.00000E+00  9.000E+00
      25     1     1     2     0     0  5.195108152E+01  8.495330544E+01  1.588910282E+03  1.596927319E+03  1.250000000E+02  0.00000E+00  9.000E+00
      25     1     1     2     0     0 -6.087952497E+01 -1.170278249E+02  1.992669398E+03  2.000939319E+03  1.250000000E+02  0.00000E+00  9.000E+00
       2     1     1     2   501     0  8.928443454E+00  3.207451946E+01  9.291763227E+01  9.870247356E+01  4.046097457E-06  0.00000E+00  9.000E+00
#rwgt            1           1   1.3080195585786528E-002           5      105224           0
</event>
<event>
      5   9999  3.19816E-02  1.75460E+02 -1.00000E+00  1.13758E-01
      21    -1     0     0   502   501  0.000000000E+00  0.000000000E+00  3.614942447E+02  3.614942447E+02  0.000000000E+00  0.00000E+00  9.000E+00
      21    -1     0     0   501   511  0.000000000E+00  0.000000000E+00 -1.635482724E+03  1.635482724E+03  0.000000000E+00  0.00000E+00  9.000E+00
      25     1     1     2     0     0  3.111525494E+02  2.093401210E+02 -3.294084753E+02  5.145620846E+02  1.250000000E+02  0.00000E+00  9.000E+00
      25     1     1     2     0     0 -4.610098685E+02 -3.006025864E+02 -4.531167416E+01  5.661891571E+02  1.250000000E+02  0.00000E+00  9.000E+00
      21     1     1     2   502   511  1.498573191E+02  9.126246541E+01 -8.992683303E+02  9.162257274E+02  1.078959322E-05  0.00000E+00  9.000E+00
#rwgt            1           1   3.0328963331408526E-002           5      105347           0
</event>
<event>
      5   9999  3.19816E-02  4.24620E+01 -1.00000E+00  1.43250E-01
      21    -1     0     0   502   501  0.000000000E+00  0.000000000E+00  6.058725954E+02  6.058725954E+02  0.000000000E+00  0.00000E+00  9.000E+00
      -4    -1     0     0     0   502  0.000000000E+00  0.000000000E+00 -2.316933398E+02  2.316933398E+02  0.000000000E+00  0.00000E+00  9.000E+00
      25     1     1     2     0     0  1.580811695E+02 -4.967923626E+01  4.573803129E+02  5.022742610E+02  1.250000000E+02  0.00000E+00  9.000E+00
      25     1     1     2     0     0 -1.877125439E+02  1.926543599E+01  1.647910635E+01  2.269443040E+02  1.250000000E+02  0.00000E+00  9.000E+00
      -4     1     1     2     0   501  2.963137441E+01  3.041380026E+01 -9.968016363E+01  1.083473701E+02  0.000000000E+00  0.00000E+00  9.000E+00
#rwgt            1           1   2.8472127486806380E-002           5      105397           0
</event>
<event>
      5   9999  3.19816E-02  4.82212E+01 -1.00000E+00  1.39979E-01
      21    -1     0     0   502   501  0.000000000E+00  0.000000000E+00  1.209446065E+03  1.209446065E+03  0.000000000E+00  0.00000E+00  9.000E+00
      21    -1     0     0   511   502  0.000000000E+00  0.000000000E+00 -8.231157198E+02  8.231157198E+02  0.000000000E+00  0.00000E+00  9.000E+00
      25     1     1     2     0     0 -6.379144825E+02  1.728888045E+02  8.890801093E+02  1.114860469E+03  1.250000000E+02  0.00000E+00  9.000E+00
      25     1     1     2     0     0  5.938504169E+02 -1.924755102E+02 -2.900671926E+02  6.996206943E+02  1.250000000E+02  0.00000E+00  9.000E+00
      21     1     1     2   511   501  4.406406555E+01  1.958670569E+01 -2.126825716E+02  2.180806209E+02  3.814697266E-06  0.00000E+00  9.000E+00
#rwgt            1           1   2.0619373146773923E-002           5      105489           0
</event>
<event>
      5   9999  3.19816E-02  2.87475E+01 -1.00000E+00  1.54337E-01
      21    -1     0     0   512   501  0.000000000E+00  0.000000000E+00  4.979447429E+02  4.979447429E+02  0.000000000E+00  0.00000E+00  9.000E+00
      21    -1     0     0   501   502  0.000000000E+00  0.000000000E+00 -1.872855267E+03  1.872855267E+03  0.000000000E+00  0.00000E+00  9.000E+00
      25     1     1     2     0     0  1.113966400E+02  8.751424808E+02 -2.687072397E+02  9.306514674E+02  1.250000000E+02  0.00000E+00  9.000E+00
      25     1     1     2     0     0 -8.520812246E+01 -8.632858104E+02 -1.106302215E+03  1.411400867E+03  1.250000000E+02  0.00000E+00  9.000E+00
      21     1     1     2   512   502 -2.618851750E+01 -1.185667040E+01  9.893102299E-02  2.874767589E+01  3.138764337E-07  0.00000E+00  9.000E+00
#rwgt            1           1   2.9541907305431468E-002           5      105634           0
</event>
<event>
      5   9999  3.19816E-02  1.74801E+02 -1.00000E+00  1.13819E-01
      21    -1     0     0   502   511  0.000000000E+00  0.000000000E+00  8.456822028E+02  8.456822028E+02  0.000000000E+00  0.00000E+00  9.000E+00
      21    -1     0     0   501   502  0.000000000E+00  0.000000000E+00 -1.781578873E+02  1.781578873E+02  0.000000000E+00  0.00000E+00  9.000E+00
      25     1     1     2     0     0  4.139451430E+01 -2.257784759E+02  7.053412812E+01  2.707203155E+02  1.250000000E+02  0.00000E+00  9.000E+00
      25     1     1     2     0     0 -3.304320132E+01  5.117666526E+01  8.606823876E+00  1.393197102E+02  1.250000000E+02  0.00000E+00  9.000E+00
      21     1     1     2   501   511 -8.351312979E+00  1.746018107E+02  5.883833635E+02  6.138000644E+02  1.078959322E-05  0.00000E+00  9.000E+00
#rwgt            2          11   3.4044123298062126E-003           5      105859           0
</event>
<event>
      5   9999  3.19816E-02  8.09915E+00 -1.00000E+00  2.06974E-01
      21    -1     0     0   512   501  0.000000000E+00  0.000000000E+00  6.326561901E+02  6.326561901E+02  0.000000000E+00  0.00000E+00  9.000E+00
      21    -1     0     0   501   502  0.000000000E+00  0.000000000E+00 -2.984274447E+02  2.984274447E+02  0.000000000E+00  0.00000E+00  9.000E+00
      25     1     1     2     0     0  1.509885561E+02  1.318154152E+02  2.079731642E+02  3.147231876E+02  1.250000000E+02  0.00000E+00  9.000E+00
      25     1     1     2     0     0 -1.564884507E+02 -1.258700537E+02 -1.879014146E+02  3.020990685E+02  1.250000000E+02  0.00000E+00  9.000E+00
      21     1     1     2   512   502  5.499894645E+00 -5.945361508E+00  3.141569958E+02  3.142613787E+02  5.394796609E-06  0.00000E+00  9.000E+00
#rwgt            1           1   2.5330944666470415E-002           5      105879           0
</event>
<event>
      5   9999  3.19816E-02  3.43305E+02 -1.00000E+00  1.03724E-01
      21    -1     0     0   502   511  0.000000000E+00  0.000000000E+00  1.557768900E+03  1.557768900E+03  0.000000000E+00  0.00000E+00  9.000E+00
      21    -1     0     0   501   502  0.000000000E+00  0.000000000E+00 -1.441364896E+02  1.441364896E+02  0.000000000E+00  0.00000E+00  9.000E+00
      25     1     1     2     0     0  2.584978130E+02 -2.143338685E+02  4.772590805E+02  5.967925573E+02  1.250000000E+02  0.00000E+00  9.000E+00
      25     1     1     2     0     0  4.529942563E+01  5.444203260E+01  4.601099902E+01  1.508574987E+02  1.250000000E+02  0.00000E+00  9.000E+00
      21     1     1     2   501   511 -3.037972387E+02  1.598918359E+02  8.903623306E+02  9.542553333E+02  1.078959322E-05  0.00000E+00  9.000E+00
#rwgt            1           1   2.6168566708024598E-002           5      106063           0
</event>
<event>
      5   9999  3.19816E-02  4.90400E+01 -1.00000E+00  1.39558E-01
       2    -1     0     0   502     0  0.000000000E+00  0.000000000E+00  1.528904791E+03  1.528904791E+03  0.000000000E+00  0.00000E+00  9.000E+00
      21    -1     0     0   501   502  0.000000000E+00  0.000000000E+00 -3.846561832E+01  3.846561832E+01  0.000000000E+00  0.00000E+00  9.000E+00
      25     1     1     2     0     0 -2.856745353E+00 -1.224179467E+02  7.736492870E+02  7.931913603E+02  1.250000000E+02  0.00000E+00  9.000E+00
      25     1     1     2     0     0  4.535929413E+01  9.795465869E+01  2.206204830E+02  2.755920504E+02  1.250000000E+02  0.00000E+00  9.000E+00
       2     1     1     2   501     0 -4.250254878E+01  2.446328805E+01  4.961694023E+02  4.985869983E+02  1.206313194E-05  0.00000E+00  9.000E+00
#rwgt            1           1   2.8034257361454991E-002           5      106093           0
</event>
<event>
      5   9999  3.19816E-02  1.20470E+02 -1.00000E+00  1.20296E-01
      21    -1     0     0   502   501  0.000000000E+00  0.000000000E+00  1.488168924E+02  1.488168924E+02  0.000000000E+00  0.00000E+00  9.000E+00
      21    -1     0     0   511   502  0.000000000E+00  0.000000000E+00 -1.317945611E+03  1.317945611E+03  0.000000000E+00  0.00000E+00  9.000E+00
      25     1     1     2     0     0  1.841629926E+02  2.128196375E+02 -6.411715545E+01  3.145539946E+02  1.250000000E+02  0.00000E+00  9.000E+00
      25     1     1     2     0     0 -9.222047484E+01 -1.349765310E+02 -6.806667213E+02  7.110945545E+02  1.250000000E+02  0.00000E+00  9.000E+00
      21     1     1     2   511   501 -9.194251775E+01 -7.784310651E+01 -4.243448421E+02  4.411139544E+02  0.000000000E+00  0.00000E+00  9.000E+00
#rwgt            1           1   2.7138387217299890E-002           5      106196           0
</event>
<event>
      5   9999  3.19816E-02  1.64012E+01 -1.00000E+00  1.73806E-01
      21    -1     0     0   512   501  0.000000000E+00  0.000000000E+00  1.404580213E+03  1.404580213E+03  0.000000000E+00  0.00000E+00  9.000E+00
      21    -1     0     0   501   502  0.000000000E+00  0.000000000E+00 -3.012224344E+01  3.012224344E+01  0.000000000E+00  0.00000E+00  9.000E+00
      25     1     1     2     0     0 -1.046623022E+02  3.646181857E+00  2.612550618E+02  3.079719135E+02  1.250000000E+02  0.00000E+00  9.000E+00
      25     1     1     2     0     0  9.351658892E+01 -1.567837969E+01  9.724806981E+02  9.850557711E+02  1.250000000E+02  0.00000E+00  9.000E+00
      21     1     1     2   512   502  1.114571326E+01  1.203219783E+01  1.407222092E+02  1.416747715E+02  3.303624740E-06  0.00000E+00  9.000E+00
#rwgt            1           1   3.3862655313843172E-002           5      106296           0
</event>
<event>
      5   9999  3.19816E-02  1.41608E+01 -1.00000E+00  1.79772E-01
      21    -1     0     0   502   501  0.000000000E+00  0.000000000E+00  4.392928673E+02  4.392928673E+02  0.000000000E+00  0.00000E+00  9.000E+00
      21    -1     0     0   511   502  0.000000000E+00  0.000000000E+00 -3.312347314E+02  3.312347314E+02  0.000000000E+00  0.00000E+00  9.000E+00
      25     1     1     2     0     0  1.614050244E+02 -1.127274947E+02 -1.895917022E+02  3.005479721E+02  1.250000000E+02  0.00000E+00  9.000E+00
      25     1     1     2     0     0 -1.703533608E+02  1.017523328E+02  3.468998804E+02  4.187342019E+02  1.250000000E+02  0.00000E+00  9.000E+00
      21     1     1     2   511   501  8.948336373E+00  1.097516181E+01 -4.925004228E+01  5.124542482E+01  0.000000000E+00  0.00000E+00  9.000E+00
#rwgt            1           1   2.9253186742691107E-002           5      106435           0
</event>
<event>
      5   9999  3.19816E-02  9.05574E+01 -1.00000E+00  1.25797E-01
       2    -1     0     0   502     0  0.000000000E+00  0.000000000E+00  1.971401842E+03  1.971401842E+03  0.000000000E+00  0.00000E+00  9.000E+00
      21    -1     0     0   501   502  0.000000000E+00  0.000000000E+00 -1.687892635E+02  1.687892635E+02  0.000000000E+00  0.00000E+00  9.000E+00
      25     1     1     2     0     0 -1.439710087E+02 -2.474255588E+02  1.851544154E+02  3.631173585E+02  1.250000000E+02  0.00000E+00  9.000E+00
      25     1     1     2     0     0  1.776303242E+02  3.314950880E+02  4.247379712E+02  5.809207085E+02  1.250000000E+02  0.00000E+00  9.000E+00
       2     1     1     2   501     0 -3.365931549E+01 -8.406952917E+01  1.192720192E+03  1.196153039E+03  1.525878906E-05  0.00000E+00  9.000E+00
#rwgt            1           1   2.8196682206814729E-002           5      106648           0
</event>
<event>
      5   9999  3.19816E-02  1.27064E+02 -1.00000E+00  1.19323E-01
      21    -1     0     0   502   501  0.000000000E+00  0.000000000E+00  1.836101443E+02  1.836101443E+02  0.000000000E+00  0.00000E+00  9.000E+00
      21    -1     0     0   511   502  0.000000000E+00  0.000000000E+00 -4.934546998E+02  4.934546998E+02  0.000000000E+00  0.00000E+00  9.000E+00
      25     1     1     2     0     0 -4.732289822E+01  1.018202645E+02 -2.522422711E+02  3.030808247E+02  1.250000000E+02  0.00000E+00  9.000E+00
      25     1     1     2     0     0 -2.254112779E+01  4.313322238E+00  1.069365781E+02  1.660937655E+02  1.250000000E+02  0.00000E+00  9.000E+00
      21     1     1     2   511   501  6.986402602E+01 -1.061335868E+02 -1.645388626E+02  2.078902539E+02  2.697398305E-06  0.00000E+00  9.000E+00
#rwgt            1           1   2.6521543794071789E-002           5      106728           0
</event>
<event>
      5   9999  3.19816E-02  2.46637E+01 -1.00000E+00  1.59193E-01
      21    -1     0     0   502   512  0.000000000E+00  0.000000000E+00  2.090923032E+02  2.090923032E+02  0.000000000E+00  0.00000E+00  9.000E+00
      21    -1     0     0   501   502  0.000000000E+00  0.000000000E+00 -6.527638022E+02  6.527638022E+02  0.000000000E+00  0.00000E+00  9.000E+00
      25     1     1     2     0     0 -4.128076686E+01  2.442654082E+02  1.852749226E+01  2.780970322E+02  1.250000000E+02  0.00000E+00  9.000E+00
      25     1     1     2     0     0  2.619309321E+01 -2.637758763E+02 -4.733191527E+02  5.567044201E+02  1.250000000E+02  0.00000E+00  9.000E+00
      21     1     1     2   501   512  1.508767365E+01  1.951046808E+01  1.112016145E+01  2.705465305E+01  2.665600750E-07  0.00000E+00  9.000E+00
#rwgt            1           1   3.0783925868555370E-002           5      106817           0
</event>
<event>
      5   9999  3.19816E-02  2.84227E+01 -1.00000E+00  1.54687E-01
      21    -1     0     0   502   501  0.000000000E+00  0.000000000E+00  2.536850355E+03  2.536850355E+03  0.000000000E+00  0.00000E+00  9.000E+00
      21    -1     0     0   511   502  0.000000000E+00  0.000000000E+00 -9.652294577E+01  9.652294577E+01  0.000000000E+00  0.00000E+00  9.000E+00
      25     1     1     2     0     0 -2.789941627E+02 -1.915387716E+01  2.030573751E+03  2.053547996E+03  1.250000000E+02  0.00000E+00  9.000E+00
      25     1     1     2     0     0  2.520777520E+02  2.828374179E+01  4.494445512E+02  5.310071258E+02  1.250000000E+02  0.00000E+00  9.000E+00
      21     1     1     2   511   501  2.691641064E+01 -9.129864628E+00 -3.969089304E+01  4.881817879E+01  1.168007728E-06  0.00000E+00  9.000E+00
#rwgt            1           1   6.5843815003878203E-002           5      106927           0
</event>
<event>
      5   9999  3.19816E-02  6.23264E+01 -1.00000E+00  1.33826E-01
      21    -1     0     0   512   501  0.000000000E+00  0.000000000E+00  3.269417590E+02  3.269417590E+02  0.000000000E+00  0.00000E+00  9.000E+00
      21    -1     0     0   501   502  0.000000000E+00  0.000000000E+00 -1.714443727E+03  1.714443727E+03  0.000000000E+00  0.00000E+00  9.000E+00
      25     1     1     2     0     0  3.113133552E+02 -4.288758811E+02 -2.505241039E+02  5.993645411E+02  1.250000000E+02  0.00000E+00  9.000E+00
      25     1     1     2     0     0 -2.489894067E+02  4.283207224E+02 -1.228939304E+03  1.330928690E+03  1.250000000E+02  0.00000E+00  9.000E+00
      21     1     1     2   512   502 -6.232394845E+01  5.551586882E-01  9.196143952E+01  1.110922550E+02  2.336015456E-06  0.00000E+00  9.000E+00
#rwgt            1           1   2.9555571413566822E-002           5      107038           0
</event>
<event>
      5   9999  3.19816E-02  8.60330E+01 -1.00000E+00  1.26840E-01
      21    -1     0     0   511   501  0.000000000E+00  0.000000000E+00  1.730642939E+02  1.730642939E+02  0.000000000E+00  0.00000E+00  9.000E+00
      21    -1     0     0   501   502  0.000000000E+00  0.000000000E+00 -2.936594458E+03  2.936594458E+03  0.000000000E+00  0.00000E+00  9.000E+00
      25     1     1     2     0     0 -1.646745454E+02 -5.569709749E+02 -7.725222932E+02  9.745512127E+02  1.250000000E+02  0.00000E+00  9.000E+00
      25     1     1     2     0     0  1.902986779E+02  6.390993723E+02 -1.843047360E+03  1.963952690E+03  1.250000000E+02  0.00000E+00  9.000E+00
      21     1     1     2   511   502 -2.562413248E+01 -8.212839744E+01 -1.479605103E+02  1.711548493E+02  2.697398305E-06  0.00000E+00  9.000E+00
#rwgt            2          11   1.7688816069433257E-002           5      107307           0
</event>
<event>
      5   9999  3.19816E-02  2.35385E+01 -1.00000E+00  1.60736E-01
      21    -1     0     0   512   501  0.000000000E+00  0.000000000E+00  2.200615129E+03  2.200615129E+03  0.000000000E+00  0.00000E+00  9.000E+00
      21    -1     0     0   501   502  0.000000000E+00  0.000000000E+00 -2.224676794E+01  2.224676794E+01  0.000000000E+00  0.00000E+00  9.000E+00
      25     1     1     2     0     0 -2.724160365E+00 -1.054607983E+02  1.021137848E+03  1.034155165E+03  1.250000000E+02  0.00000E+00  9.000E+00
      25     1     1     2     0     0  4.370640150E+00  1.289416834E+02  5.040836556E+02  5.351358632E+02  1.250000000E+02  0.00000E+00  9.000E+00
      21     1     1     2   512   502 -1.646479785E+00 -2.348088507E+01  6.531468577E+02  6.535708688E+02  0.000000000E+00  0.00000E+00  9.000E+00
#rwgt            1           1   2.9178535711812385E-002           5      107327           0
</event>
<event>
      5   9999  3.19816E-02  7.28352E+01 -1.00000E+00  1.30353E-01
      21    -1     0     0   502   501  0.000000000E+00  0.000000000E+00  6.790198756E+01  6.790198756E+01  0.000000000E+00  0.00000E+00  9.000E+00
       1    -1     0     0   501     0  0.000000000E+00  0.000000000E+00 -2.963190224E+03  2.963190224E+03  0.000000000E+00  0.00000E+00  9.000E+00
      25     1     1     2     0     0  3.414442514E+02 -4.580093990E+01 -6.332072181E+02  7.316134799E+02  1.250000000E+02  0.00000E+00  9.000E+00
      25     1     1     2     0     0 -2.757694027E+02  1.430849022E+01 -2.100276592E+03  2.122036819E+03  1.250000000E+02  0.00000E+00  9.000E+00
       1     1     1     2   502     0 -6.567484867E+01  3.149244968E+01 -1.618044260E+02  1.774419128E+02  2.697398305E-06  0.00000E+00  9.000E+00
#rwgt            1           1   5.9213754373482544E-002           5      107414           0
</event>
<event>
      5   9999  3.19816E-02  1.28891E+02 -1.00000E+00  1.19065E-01
       2    -1     0     0   502     0  0.000000000E+00  0.000000000E+00  9.089242143E+02  9.089242143E+02  0.000000000E+00  0.00000E+00  9.000E+00
      21    -1     0     0   501   502  0.000000000E+00  0.000000000E+00 -5.200354604E+02  5.200354604E+02  0.000000000E+00  0.00000E+00  9.000E+00
      25     1     1     2     0     0 -2.531742606E+02 -2.256829312E+02 -3.157381266E+02  4.799432844E+02  1.250000000E+02  0.00000E+00  9.000E+00
      25     1     1     2     0     0  3.118309425E+02  3.404533390E+02  6.546752889E+02  8.107846487E+02  1.250000000E+02  0.00000E+00  9.000E+00
       2     1     1     2   501     0 -5.865668197E+01 -1.147704079E+02  4.995159166E+01  1.382317415E+02  1.507891493E-06  0.00000E+00  9.000E+00
#rwgt            1           1   3.0846313118631195E-002           5      107504           0
</event>
<event>
      5   9999  3.19816E-02  3.68753E+01 -1.00000E+00  1.47066E-01
      21    -1     0     0   502   501  0.000000000E+00  0.000000000E+00  1.662304562E+02  1.662304562E+02  0.000000000E+00  0.00000E+00  9.000E+00
      21    -1     0     0   501   511  0.000000000E+00  0.000000000E+00 -3.902385224E+02  3.902385224E+02  0.000000000E+00  0.00000E+00  9.000E+00
      25     1     1     2     0     0 -4.384212621E+01  2.001822641E+02 -1.565633411E+02  2.865870735E+02  1.250000000E+02  0.00000E+00  9.000E+00
      25     1     1     2     0     0  1.103869938E+01 -1.833382944E+02 -4.490405920E+01  2.266630927E+02  1.250000000E+02  0.00000E+00  9.000E+00
      21     1     1     2   502   511  3.280342683E+01 -1.684396975E+01 -2.254066598E+01  4.321881247E+01  2.384185791E-07  0.00000E+00  9.000E+00
#rwgt            1           1   2.6972040179481838E-002           5      107592           0
</event>
<event>
      5   9999  3.19816E-02  1.44720E+02 -1.00000E+00  1.17014E-01
      21    -1     0     0   502   501  0.000000000E+00  0.000000000E+00  8.628956192E+02  8.628956192E+02  0.000000000E+00  0.00000E+00  9.000E+00
      21    -1     0     0   512   502  0.000000000E+00  0.000000000E+00 -7.747084867E+02  7.747084867E+02  0.000000000E+00  0.00000E+00  9.000E+00
      25     1     1     2     0     0 -6.154886654E+02 -2.770141787E+02  7.185583471E+01  6.901821596E+02  1.250000000E+02  0.00000E+00  9.000E+00
      25     1     1     2     0     0  6.097877122E+02  4.216220114E+02  1.305367162E+02  7.630668442E+02  1.250000000E+02  0.00000E+00  9.000E+00
      21     1     1     2   512   501  5.700953183E+00 -1.446078326E+02 -1.142054184E+02  1.843551022E+02  1.348699152E-06  0.00000E+00  9.000E+00
#rwgt            1           1   2.2168333833035868E-002           5      107720           0
</event>
<event>
      5   9999  3.19816E-02  3.68991E+01 -1.00000E+00  1.47048E-01
      21    -1     0     0   511   501  0.000000000E+00  0.000000000E+00  1.420738351E+03  1.420738351E+03  0.000000000E+00  0.00000E+00  9.000E+00
      21    -1     0     0   501   502  0.000000000E+00  0.000000000E+00 -5.627789066E+02  5.627789066E+02  0.000000000E+00  0.00000E+00  9.000E+00
      25     1     1     2     0     0  5.015034291E+01  3.205436206E+02  8.929072938E+02  9.582127660E+02  1.250000000E+02  0.00000E+00  9.000E+00
      25     1     1     2     0     0 -6.411072266E+01 -3.546999329E+02 -4.605864430E+02  5.980694764E+02  1.250000000E+02  0.00000E+00  9.000E+00
      21     1     1     2   511   502  1.396037975E+01  3.415631230E+01  4.256385934E+02  4.272350150E+02  5.394796609E-06  0.00000E+00  9.000E+00
#rwgt            1           1   3.1366154397338995E-002           5      107826           0
</event>
<event>
      5   9999  3.19816E-02  5.37343E+01 -1.00000E+00  1.37314E-01
      21    -1     0     0   502   501  0.000000000E+00  0.000000000E+00  4.951705091E+01  4.951705091E+01  0.000000000E+00  0.00000E+00  9.000E+00
       1    -1     0     0   501     0  0.000000000E+00  0.000000000E+00 -3.449069224E+03  3.449069224E+03  0.000000000E+00  0.00000E+00  9.000E+00
      25     1     1     2     0     0  7.220877596E+01 -3.043297077E+02 -9.519627065E+02  1.009796352E+03  1.250000000E+02  0.00000E+00  9.000E+00
      25     1     1     2     0     0 -1.127348410E+02  2.690448916E+02 -1.238775674E+03  1.278782417E+03  1.250000000E+02  0.00000E+00  9.000E+00
       1     1     1     2   502     0  4.052606508E+01  3.528481609E+01 -1.208813792E+03  1.210007506E+03  3.411968960E-05  0.00000E+00  9.000E+00
#rwgt            2          12   3.6270090186308322E-004           5      107990           0
</event>
<event>
      5   9999  3.19816E-02  2.84523E+01 -1.00000E+00  1.54655E-01
      21    -1     0     0   502   511  0.000000000E+00  0.000000000E+00  1.763645314E+03  1.763645314E+03  0.000000000E+00  0.00000E+00  9.000E+00
      21    -1     0     0   501   502  0.000000000E+00  0.000000000E+00 -2.685452684E+02  2.685452684E+02  0.000000000E+00  0.00000E+00  9.000E+00
      25     1     1     2     0     0 -3.977144386E+02 -5.190868446E+02  7.600516116E+02  1.010411490E+03  1.250000000E+02  0.00000E+00  9.000E+00
      25     1     1     2     0     0  3.711748202E+02  5.293427189E+02  6.241293441E+02  9.072689234E+02  1.250000000E+02  0.00000E+00  9.000E+00
      21     1     1     2   501   511  2.653961843E+01 -1.025587437E+01  1.109190893E+02  1.145101685E+02  1.348699152E-06  0.00000E+00  9.000E+00
#rwgt            1           1   2.6458874972766201E-002           5      108024           0
</event>
<event>
      5   9999  3.19816E-02  4.56909E+01 -1.00000E+00  1.41346E-01
      21    -1     0     0   502   512  0.000000000E+00  0.000000000E+00  1.097118046E+03  1.097118046E+03  0.000000000E+00  0.00000E+00  9.000E+00
      21    -1     0     0   501   502  0.000000000E+00  0.000000000E+00 -1.969233838E+02  1.969233838E+02  0.000000000E+00  0.00000E+00  9.000E+00
      25     1     1     2     0     0 -2.435113130E+02  1.702768367E+02  2.318830995E+01  3.231944591E+02  1.250000000E+02  0.00000E+00  9.000E+00
      25     1     1     2     0     0  2.610659017E+02 -2.124609045E+02  6.840768336E+02  7.725808406E+02  1.250000000E+02  0.00000E+00  9.000E+00
      21     1     1     2   501   512 -1.755458872E+01  4.218406778E+01  1.929295191E+02  1.982661304E+02  2.697398305E-06  0.00000E+00  9.000E+00
#rwgt            1           1   2.9636057512392663E-002           5      108183           0
</event>
<event>
      5   9999  3.19816E-02  5.70234E+01 -1.00000E+00  1.35895E-01
      21    -1     0     0   502   511  0.000000000E+00  0.000000000E+00  1.258866250E+03  1.258866250E+03  0.000000000E+00  0.00000E+00  9.000E+00
      21    -1     0     0   501   502  0.000000000E+00  0.000000000E+00 -1.266257245E+03  1.266257245E+03  0.000000000E+00  0.00000E+00  9.000E+00
      25     1     1     2     0     0 -1.943463679E+02 -6.086301040E+02 -3.431201602E+02  7.359059441E+02  1.250000000E+02  0.00000E+00  9.000E+00
      25     1     1     2     0     0  2.469329464E+02  6.306826664E+02 -5.624564139E+02  8.892236632E+02  1.250000000E+02  0.00000E+00  9.000E+00
      21     1     1     2   501   511 -5.258657849E+01 -2.205256239E+01  8.981855790E+02  8.999938878E+02  1.078959322E-05  0.00000E+00  9.000E+00
#rwgt            1           1   3.2716209016513634E-002           5      108313           0
</event>
<event>
      5   9999  3.19816E-02  1.29860E+02 -1.00000E+00  1.18930E-01
      21    -1     0     0   502   501  0.000000000E+00  0.000000000E+00  1.738071163E+02  1.738071163E+02  0.000000000E+00  0.00000E+00  9.000E+00
      21    -1     0     0   501   512  0.000000000E+00  0.000000000E+00 -1.174722309E+03  1.174722309E+03  0.000000000E+00  0.00000E+00  9.000E+00
      25     1     1     2     0     0  2.277801313E+01 -1.051388481E+02  8.112482639E+01  1.837913293E+02  1.250000000E+02  0.00000E+00  9.000E+00
      25     1     1     2     0     0  9.681631224E+01  5.453452653E+01 -1.530270327E+02  2.266929325E+02  1.250000000E+02  0.00000E+00  9.000E+00
      21     1     1     2   502   512 -1.195943254E+02  5.060432154E+01 -9.290129864E+02  9.380451636E+02  0.000000000E+00  0.00000E+00  9.000E+00
#rwgt            1           1   3.2456869283892999E-002           5      108473           0
</event>
<event>
      5   9999  3.19816E-02  2.91127E+02 -1.00000E+00  1.06017E-01
      -1    -1     0     0     0   501  0.000000000E+00  0.000000000E+00  3.928980175E+02  3.928980175E+02  0.000000000E+00  0.00000E+00  9.000E+00
      21    -1     0     0   501   502  0.000000000E+00  0.000000000E+00 -2.476910835E+03  2.476910835E+03  0.000000000E+00  0.00000E+00  9.000E+00
      25     1     1     2     0     0  1.625134537E+02 -3.875626435E+02 -2.218243626E+03  2.261160147E+03  1.250000000E+02  0.00000E+00  9.000E+00
      25     1     1     2     0     0 -2.116442952E+02  1.006112914E+02  1.699848700E+02  3.153344188E+02  1.250000000E+02  0.00000E+00  9.000E+00
      -1     1     1     2     0   502  4.913084150E+01  2.869513521E+02 -3.575406154E+01  2.933142870E+02  3.126830351E-06  0.00000E+00  9.000E+00
#rwgt            2           5   1.0748298810192260E-004           5      108537           0
</event>
<event>
      5   9999  3.19816E-02  8.32255E+01 -1.00000E+00  1.27524E-01
      21    -1     0     0   502   511  0.000000000E+00  0.000000000E+00  5.203085730E+02  5.203085730E+02  0.000000000E+00  0.00000E+00  9.000E+00
      21    -1     0     0   501   502  0.000000000E+00  0.000000000E+00 -4.629016837E+02  4.629016837E+02  0.000000000E+00  0.00000E+00  9.000E+00
      25     1     1     2     0     0  1.079724551E+02 -1.141430695E+02 -2.657444521E+02  3.330642659E+02  1.250000000E+02  0.00000E+00  9.000E+00
      25     1     1     2     0     0 -5.037860282E+01  5.406448396E+01 -1.266672845E+02  1.926929501E+02  1.250000000E+02  0.00000E+00  9.000E+00
      21     1     1     2   501   511 -5.759385224E+01  6.007858549E+01  4.498186259E+02  4.574530407E+02  0.000000000E+00  0.00000E+00  9.000E+00
#rwgt            1           1   3.3768973019998372E-002           5      108556           0
</event>
<event>
      5   9999  3.19816E-02  1.66676E+02 -1.00000E+00  1.14608E-01
      21    -1     0     0   502   501  0.000000000E+00  0.000000000E+00  9.915314655E+02  9.915314655E+02  0.000000000E+00  0.00000E+00  9.000E+00
       2    -1     0     0   501     0  0.000000000E+00  0.000000000E+00 -1.892504403E+03  1.892504403E+03  0.000000000E+00  0.00000E+00  9.000E+00
      25     1     1     2     0     0 -2.721801925E+02  2.147157416E+02  6.636907449E+01  3.744526150E+02  1.250000000E+02  0.00000E+00  9.000E+00
      25     1     1     2     0     0  1.060443280E+02 -2.281207035E+02  7.413476447E+02  7.927835676E+02  1.250000000E+02  0.00000E+00  9.000E+00
       2     1     1     2   502     0  1.661358645E+02  1.340496186E+01 -1.708689656E+03  1.716799686E+03  2.157918644E-05  0.00000E+00  9.000E+00
#rwgt            2          13   1.4891307567275303E-002           5      108659           0
</event>
<event>
      5   9999  3.19816E-02  1.51573E+01 -1.00000E+00  1.76958E-01
      21    -1     0     0   511   501  0.000000000E+00  0.000000000E+00  1.991456372E+02  1.991456372E+02  0.000000000E+00  0.00000E+00  9.000E+00
      21    -1     0     0   501   502  0.000000000E+00  0.000000000E+00 -2.035714536E+03  2.035714536E+03  0.000000000E+00  0.00000E+00  9.000E+00
      25     1     1     2     0     0  3.497522207E+01 -3.750514526E+02 -1.164089872E+03  1.229884990E+03  1.250000000E+02  0.00000E+00  9.000E+00
      25     1     1     2     0     0 -2.098197150E+01  3.808766270E+02 -7.901844979E+02  8.862977992E+02  1.250000000E+02  0.00000E+00  9.000E+00
      21     1     1     2   511   502 -1.399325057E+01 -5.825174405E+00  1.177054708E+02  1.186773844E+02  5.560829062E-06  0.00000E+00  9.000E+00
#rwgt            1           1   3.0988602245955926E-002           5      108678           0
</event>
<event>
      5   9999  3.19816E-02  3.33942E+02 -1.00000E+00  1.04101E-01
      21    -1     0     0   512   501  0.000000000E+00  0.000000000E+00  1.883942494E+03  1.883942494E+03  0.000000000E+00  0.00000E+00  9.000E+00
      21    -1     0     0   501   502  0.000000000E+00  0.000000000E+00 -1.130286481E+03  1.130286481E+03  0.000000000E+00  0.00000E+00  9.000E+00
      25     1     1     2     0     0  1.657934155E+00 -1.082958251E+03  6.079760603E+01  1.091843703E+03  1.250000000E+02  0.00000E+00  9.000E+00
      25     1     1     2     0     0  2.526001972E+01  1.415813885E+03  3.962535431E+02  1.475740118E+03  1.250000000E+02  0.00000E+00  9.000E+00
      21     1     1     2   512   502 -2.691795388E+01 -3.328556338E+02  2.966048638E+02  4.466451549E+02  3.814697266E-06  0.00000E+00  9.000E+00
#rwgt            1           1   7.0777486875317555E-002           5      108845           0
</event>
<event>
      5   9999  3.19816E-02  5.76630E+01 -1.00000E+00  1.35632E-01
      21    -1     0     0   502   511  0.000000000E+00  0.000000000E+00  2.656290526E+02  2.656290526E+02  0.000000000E+00  0.00000E+00  9.000E+00
      21    -1     0     0   501   502  0.000000000E+00  0.000000000E+00 -3.104465334E+02  3.104465334E+02  0.000000000E+00  0.00000E+00  9.000E+00
      25     1     1     2     0     0 -1.958414517E+02  1.480122169E+02 -6.490626758E+01  2.830182223E+02  1.250000000E+02  0.00000E+00  9.000E+00
      25     1     1     2     0     0  1.388477476E+02 -1.392524381E+02  3.436519748E+00  2.330380832E+02  1.250000000E+02  0.00000E+00  9.000E+00
      21     1     1     2   501   511  5.699370411E+01 -8.759778806E+00  1.665226702E+01  6.001928049E+01  6.743495762E-07  0.00000E+00  9.000E+00
#rwgt            1           1   2.9942594920730928E-002           5      108926           0
</event>
<event>
      5   9999  3.19816E-02  2.25879E+01 -1.00000E+00  1.62124E-01
      21    -1     0     0   502   501  0.000000000E+00  0.000000000E+00  7.459242555E+02  7.459242555E+02  0.000000000E+00  0.00000E+00  9.000E+00
       1    -1     0     0   501     0  0.000000000E+00  0.000000000E+00 -9.988162936E+01  9.988162936E+01  0.000000000E+00  0.00000E+00  9.000E+00
      25     1     1     2     0     0  9.618560822E+01  2.710710645E+01  1.523117870E+02  2.209306382E+02  1.250000000E+02  0.00000E+00  9.000E+00
      25     1     1     2     0     0 -9.175319992E+01 -4.958386856E+00  5.461709983E+02  5.677772404E+02  1.250000000E+02  0.00000E+00  9.000E+00
       1     1     1     2   502     0 -4.432408295E+00 -2.214871959E+01 -5.244015917E+01  5.709800624E+01  1.507891493E-06  0.00000E+00  9.000E+00
#rwgt            1           1   2.5618823329262231E-002           5      109073           0
</event>
<event>
      5   9999  3.19816E-02  8.78353E+01 -1.00000E+00  1.26416E-01
      21    -1     0     0   502   501  0.000000000E+00  0.000000000E+00  2.150496347E+02  2.150496347E+02  0.000000000E+00  0.00000E+00  9.000E+00
       2    -1     0     0   501     0  0.000000000E+00  0.000000000E+00 -1.318159001E+03  1.318159001E+03  0.000000000E+00  0.00000E+00  9.000E+00
      25     1     1     2     0     0 -3.484393688E+02  7.733592490E+01 -1.416759409E+02  4.038414432E+02  1.250000000E+02  0.00000E+00  9.000E+00
      25     1     1     2     0     0  2.617721093E+02 -9.161246968E+01 -2.026715794E+02  3.655383029E+02  1.250000000E+02  0.00000E+00  9.000E+00
       2     1     1     2   502     0  8.666725948E+01  1.427654478E+01 -7.587618462E+02  7.638288898E+02  1.078959322E-05  0.00000E+00  9.000E+00
#rwgt            1           1   2.8544621603703607E-002           5      109225           0
</event>
<event>
      5   9999  3.19816E-02  1.97067E+01 -1.00000E+00  1.66900E-01
      21    -1     0     0   502   501  0.000000000E+00  0.000000000E+00  3.313624412E+02  3.313624412E+02  0.000000000E+00  0.00000E+00  9.000E+00
      21    -1     0     0   511   502  0.000000000E+00  0.000000000E+00 -3.214969641E+02  3.214969641E+02  0.000000000E+00  0.00000E+00  9.000E+00
      25     1     1     2     0     0  1.379094634E+01 -2.900130292E+02  5.629051921E+01  3.210784481E+02  1.250000000E+02  0.00000E+00  9.000E+00
      25     1     1     2     0     0 -7.752883046E+00  2.712541618E+02 -2.085436087E+01  2.994976324E+02  1.250000000E+02  0.00000E+00  9.000E+00
      21     1     1     2   511   501 -6.038063298E+00  1.875886743E+01 -2.557068124E+01  3.228332471E+01  5.840038640E-07  0.00000E+00  9.000E+00
#rwgt            1           1   2.7045663443976495E-002           5      109296           0
</event>
<event>
      5   9999  3.19816E-02  1.53475E+01 -1.00000E+00  1.76452E-01
      21    -1     0     0   502   501  0.000000000E+00  0.000000000E+00  1.052151788E+02  1.052151788E+02  0.000000000E+00  0.00000E+00  9.000E+00
      21    -1     0     0   501   512  0.000000000E+00  0.000000000E+00 -2.677158805E+02  2.677158805E+02  0.000000000E+00  0.00000E+00  9.000E+00
      25     1     1     2     0     0  4.148685759E+01  2.833033798E+00 -1.307531253E+02  1.856086345E+02  1.250000000E+02  0.00000E+00  9.000E+00
      25     1     1     2     0     0 -4.744509842E+01 -1.697677331E+01  1.734539372E+01  1.358863896E+02  1.250000000E+02  0.00000E+00  9.000E+00
      21     1     1     2   502   512  5.958240836E+00  1.414373952E+01 -4.909297013E+01  5.143603521E+01  6.743495762E-07  0.00000E+00  9.000E+00
#rwgt            1           1   4.0438814140653451E-002           5      109446           0
</event>
<event>
      5   9999  3.19816E-02  1.68480E+02 -1.00000E+00  1.14428E-01
       4    -1     0     0   502     0  0.000000000E+00  0.000000000E+00  1.305644637E+03  1.305644637E+03  0.000000000E+00  0.00000E+00  9.000E+00
      21    -1     0     0   501   502  0.000000000E+00  0.000000000E+00 -9.277680698E+02  9.277680698E+02  0.000000000E+00  0.00000E+00  9.000E+00
      25     1     1     2     0     0  3.721434933E+02  3.119411641E+02 -2.919316108E+02  5.802130081E+02  1.250000000E+02  0.00000E+00  9.000E+00
      25     1     1     2     0     0 -5.045611643E+02 -2.077729684E+02 -3.229299897E+02  6.462664723E+02  1.250000000E+02  0.00000E+00  9.000E+00
       4     1     1     2   501     0  1.324176711E+02 -1.041681957E+02  9.927381674E+02  1.006933226E+03  1.525878906E-05  0.00000E+00  9.000E+00
#rwgt            2          20   6.3954025537014280E-005           5      109562           0
</event>
<event>
      5   9999  3.19816E-02  1.09277E+02 -1.00000E+00  1.22119E-01
      21    -1     0     0   502   501  0.000000000E+00  0.000000000E+00  3.977030410E+02  3.977030410E+02  0.000000000E+00  0.00000E+00  9.000E+00
       2    -1     0     0   501     0  0.000000000E+00  0.000000000E+00 -1.313174993E+03  1.313174993E+03  0.000000000E+00  0.00000E+00  9.000E+00
      25     1     1     2     0     0 -4.917201666E+02  3.430256618E+02 -3.122406460E+02  6.874405777E+02  1.250000000E+02  0.00000E+00  9.000E+00
      25     1     1     2     0     0  5.123905193E+02 -4.503301473E+02 -4.220279628E+02  8.118336574E+02  1.250000000E+02  0.00000E+00  9.000E+00
       2     1     1     2   502     0 -2.067035271E+01  1.073044855E+02 -1.812033432E+02  2.116037988E+02  0.000000000E+00  0.00000E+00  9.000E+00
#rwgt            1           1   2.3832877989577415E-002           5      109581           0
</event>
<event>
      5   9999  3.19816E-02  2.32056E+01 -1.00000E+00  1.61212E-01
      21    -1     0     0   511   501  0.000000000E+00  0.000000000E+00  1.703986980E+03  1.703986980E+03  0.000000000E+00  0.00000E+00  9.000E+00
      21    -1     0     0   501   502  0.000000000E+00  0.000000000E+00 -2.141838542E+01  2.141838542E+01  0.000000000E+00  0.00000E+00  9.000E+00
      25     1     1     2     0     0  1.099861423E+02 -1.847201087E+01  7.992348950E+02  8.166024639E+02  1.250000000E+02  0.00000E+00  9.000E+00
      25     1     1     2     0     0 -1.331186657E+02  1.663157100E+01  6.850343541E+02  7.091503752E+02  1.250000000E+02  0.00000E+00  9.000E+00
      21     1     1     2   511   502  2.313252337E+01  1.840439867E+00  1.982993459E+02  1.996525268E+02  2.697398305E-06  0.00000E+00  9.000E+00
#rwgt            1           1   2.6938038580831901E-002           5      109692           0
</event>
<event>
      5   9999  3.19816E-02  3.53875E+01 -1.00000E+00  1.48219E-01
      21    -1     0     0   502   501  0.000000000E+00  0.000000000E+00  2.347174924E+02  2.347174924E+02  0.000000000E+00  0.00000E+00  9.000E+00
      21    -1     0     0   512   502  0.000000000E+00  0.000000000E+00 -1.012649173E+03  1.012649173E+03  0.000000000E+00  0.00000E+00  9.000E+00
      25     1     1     2     0     0  1.263617016E+01  1.191756134E+02 -9.290938902E+02  9.450941522E+02  1.250000000E+02  0.00000E+00  9.000E+00
      25     1     1     2     0     0 -4.758693260E+01 -1.247184249E+02  1.800161593E+02  2.566125860E+02  1.250000000E+02  0.00000E+00  9.000E+00
      21     1     1     2   512   501  3.495076244E+01  5.542811513E+00 -2.885394996E+01  4.565992754E+01  8.259061849E-07  0.00000E+00  9.000E+00
#rwgt            1           1   2.8468904425889639E-002           5      109810           0
</event>
<event>
      5   9999  3.19816E-02  1.56758E+01 -1.00000E+00  1.75599E-01
      21    -1     0     0   502   511  0.000000000E+00  0.000000000E+00  1.143338228E+03  1.143338228E+03  0.000000000E+00  0.00000E+00  9.000E+00
      21    -1     0     0   501   502  0.000000000E+00  0.000000000E+00 -8.596063543E+01  8.596063543E+01  0.000000000E+00  0.00000E+00  9.000E+00
      25     1     1     2     0     0  1.475890676E+02 -9.609103013E+01  6.787585098E+02  7.122879569E+02  1.250000000E+02  0.00000E+00  9.000E+00
      25     1     1     2     0     0 -1.375722241E+02  8.403306829E+01  8.180533619E+01  2.197834990E+02  1.250000000E+02  0.00000E+00  9.000E+00
      21     1     1     2   501   511 -1.001684352E+01  1.205796184E+01  2.968137469E+02  2.972274078E+02  5.394796609E-06  0.00000E+00  9.000E+00
#rwgt            1           1   2.9811188730892502E-002           5      109975           0
</event>
<event>
      5   9999  3.19816E-02  1.11122E+02 -1.00000E+00  1.21802E-01
      21    -1     0     0   502   501  0.000000000E+00  0.000000000E+00  2.137126528E+03  2.137126528E+03  0.000000000E+00  0.00000E+00  9.000E+00
      21    -1     0     0   501   512  0.000000000E+00  0.000000000E+00 -1.128679316E+02  1.128679316E+02  0.000000000E+00  0.00000E+00  9.000E+00
      25     1     1     2     0     0 -2.272296391E+01  2.719711843E+02  8.615980309E+02  9.123929115E+02  1.250000000E+02  0.00000E+00  9.000E+00
      25     1     1     2     0     0 -6.369949134E+01 -3.418234168E+02  1.169290665E+03  1.226281588E+03  1.250000000E+02  0.00000E+00  9.000E+00
      21     1     1     2   502   512  8.642245525E+01  6.985223252E+01 -6.630100114E+00  1.113199595E+02  8.800520337E-07  0.00000E+00  9.000E+00
#rwgt            1           1   3.0907866628186339E-002           5      110179           0
</event>
<event>
      5   9999  3.19816E-02  1.55590E+02 -1.00000E+00  1.15767E-01
       1    -1     0     0   502     0  0.000000000E+00  0.000000000E+00  1.489020249E+03  1.489020249E+03  0.000000000E+00  0.00000E+00  9.000E+00
      21    -1     0     0   501   502  0.000000000E+00  0.000000000E+00 -7.294468692E+02  7.294468692E+02  0.000000000E+00  0.00000E+00  9.000E+00
      25     1     1     2     0     0 -2.077040334E+02 -2.310354333E+02 -5.332243387E+02  6.296598544E+02  1.250000000E+02  0.00000E+00  9.000E+00
      25     1     1     2     0     0  1.308458990E+02  9.575373365E+01 -7.059928154E+01  2.165610430E+02  1.250000000E+02  0.00000E+00  9.000E+00
       1     1     1     2   501     0  7.685813434E+01  1.352816997E+02  1.363397000E+03  1.372246220E+03  1.525878906E-05  0.00000E+00  9.000E+00
#rwgt            1           1   2.7887133210224194E-002           5      110269           0
</event>
<event>
      5   9999  3.19816E-02  9.97923E+01 -1.00000E+00  1.23869E-01
      21    -1     0     0   502   511  0.000000000E+00  0.000000000E+00  5.108767912E+02  5.108767912E+02  0.000000000E+00  0.00000E+00  9.000E+00
      21    -1     0     0   501   502  0.000000000E+00  0.000000000E+00 -6.658295508E+02  6.658295508E+02  0.000000000E+00  0.00000E+00  9.000E+00
      25     1     1     2     0     0 -4.802973650E+01  3.718364091E+02 -4.185443326E+02  5.756505268E+02  1.250000000E+02  0.00000E+00  9.000E+00
      25     1     1     2     0     0 -4.016197318E+01 -4.185345547E+02  2.329583798E+02  4.966676598E+02  1.250000000E+02  0.00000E+00  9.000E+00
      21     1     1     2   501   511  8.819170968E+01  4.669814566E+01  3.063319318E+01  1.043881554E+02  1.066240300E-06  0.00000E+00  9.000E+00
#rwgt            1           1   2.9001384720300394E-002           5      110343           0
</event>
<event>
      5   9999  3.19816E-02  1.49446E+01 -1.00000E+00  1.77535E-01
      21    -1     0     0   512   501  0.000000000E+00  0.000000000E+00  6.762135186E+02  6.762135186E+02  0.000000000E+00  0.00000E+00  9.000E+00
      21    -1     0     0   501   502  0.000000000E+00  0.000000000E+00 -4.758068085E+02  4.758068085E+02  0.000000000E+00  0.00000E+00  9.000E+00
      25     1     1     2     0     0 -5.355214309E+02 -1.566470468E+01  1.427758641E+02  5.683647889E+02  1.250000000E+02  0.00000E+00  9.000E+00
      25     1     1     2     0     0  5.418884740E+02  2.144250886E+00  3.589819127E+01  5.572803569E+02  1.250000000E+02  0.00000E+00  9.000E+00
      21     1     1     2   512   502 -6.367043072E+00  1.352045379E+01  2.173265470E+01  2.637518129E+01  4.129530925E-07  0.00000E+00  9.000E+00
#rwgt            1           1   2.8514134863814558E-002           5      110458           0
</event>
<event>
      5   9999  3.19816E-02  4.05464E+01 -1.00000E+00  1.44476E-01
      21    -1     0     0   502   501  0.000000000E+00  0.000000000E+00  7.719585529E+02  7.719585529E+02  0.000000000E+00  0.00000E+00  9.000E+00
      21    -1     0     0   511   502  0.000000000E+00  0.000000000E+00 -7.344026033E+02  7.344026033E+02  0.000000000E+00  0.00000E+00  9.000E+00
      25     1     1     2     0     0  5.229636688E+01 -7.116941576E+02 -1.015895764E+02  7.315660777E+02  1.250000000E+02  0.00000E+00  9.000E+00
      25     1     1     2     0     0 -9.039516724E+01  6.978198758E+02  1.549596821E+02  7.312737985E+02  1.250000000E+02  0.00000E+00  9.000E+00
      21     1     1     2   511   501  3.809880037E+01  1.387428184E+01 -1.581415609E+01  4.352128007E+01  7.152557373E-07  0.00000E+00  9.000E+00
#rwgt            1           1   2.7443001806049756E-002           5      110706           0
</event>
<event>
      5   9999  3.19816E-02  1.47932E+02 -1.00000E+00  1.16633E-01
      21    -1     0     0   502   501  0.000000000E+00  0.000000000E+00  3.131967413E+02  3.131967413E+02  0.000000000E+00  0.00000E+00  9.000E+00
      21    -1     0     0   501   512  0.000000000E+00  0.000000000E+00 -1.338930219E+03  1.338930219E+03  0.000000000E+00  0.00000E+00  9.000E+00
      25     1     1     2     0     0  2.177348059E+01 -1.405022854E+02  1.613862932E+01  1.900011369E+02  1.250000000E+02  0.00000E+00  9.000E+00
      25     1     1     2     0     0 -4.052983380E+01 -6.235392198E+00  1.846469027E+02  2.267179442E+02  1.250000000E+02  0.00000E+00  9.000E+00
      21     1     1     2   502   512  1.875635321E+01  1.467376776E+02 -1.226519010E+03  1.235407879E+03  2.157918644E-05  0.00000E+00  9.000E+00
#rwgt            1           1   3.0539532671699132E-002           5      110830           0
</event>
<event>
      5   9999  3.19816E-02  1.93079E+02 -1.00000E+00  1.12208E-01
      21    -1     0     0   511   501  0.000000000E+00  0.000000000E+00  7.591968256E+02  7.591968256E+02  0.000000000E+00  0.00000E+00  9.000E+00
      21    -1     0     0   501   502  0.000000000E+00  0.000000000E+00 -4.875814787E+02  4.875814787E+02  0.000000000E+00  0.00000E+00  9.000E+00
      25     1     1     2     0     0 -5.623596047E+01 -1.939307409E+02 -3.462199442E+02  4.198390945E+02  1.250000000E+02  0.00000E+00  9.000E+00
      25     1     1     2     0     0  1.937625878E+02  5.841009513E+01  7.286563580E+01  2.487771704E+02  1.250000000E+02  0.00000E+00  9.000E+00
      21     1     1     2   511   502 -1.375266273E+02  1.355206458E+02  5.449696553E+02  5.781620394E+02  7.629394531E-06  0.00000E+00  9.000E+00
#rwgt            1           1   2.9410012192515843E-002           5      110862           0
</event>
<event>
      5   9999  3.19816E-02  7.55448E+01 -1.00000E+00  1.29566E-01
      21    -1     0     0   502   501  0.000000000E+00  0.000000000E+00  1.027799067E+03  1.027799067E+03  0.000000000E+00  0.00000E+00  9.000E+00
      21    -1     0     0   501   512  0.000000000E+00  0.000000000E+00 -3.659531898E+02  3.659531898E+02  0.000000000E+00  0.00000E+00  9.000E+00
      25     1     1     2     0     0  3.455980556E+01  4.698690554E+02  1.894147593E+02  5.229476651E+02  1.250000000E+02  0.00000E+00  9.000E+00
      25     1     1     2     0     0 -1.095567332E+02 -4.607877207E+02  5.673067070E+02  7.495264512E+02  1.250000000E+02  0.00000E+00  9.000E+00
      21     1     1     2   502   512  7.499692764E+01 -9.081334780E+00 -9.487558945E+01  1.212781401E+02  1.348699152E-06  0.00000E+00  9.000E+00
#rwgt            1           1   2.7621717006236102E-002           5      110898           0
</event>
<event>
      5   9999  3.19816E-02  3.33553E+01 -1.00000E+00  1.49909E-01
      21    -1     0     0   502   511  0.000000000E+00  0.000000000E+00  1.076614574E+03  1.076614574E+03  0.000000000E+00  0.00000E+00  9.000E+00
      21    -1     0     0   501   502  0.000000000E+00  0.000000000E+00 -2.305124484E+03  2.305124484E+03  0.000000000E+00  0.00000E+00  9.000E+00
      25     1     1     2     0     0 -3.808710816E+01 -1.369963192E+02 -2.173174932E+03  2.181406176E+03  1.250000000E+02  0.00000E+00  9.000E+00
      25     1     1     2     0     0  4.391243247E+01  1.041536418E+02 -7.189796652E+01  1.832228163E+02  1.250000000E+02  0.00000E+00  9.000E+00
      21     1     1     2   501   511 -5.825324304E+00  3.284267739E+01  1.016562989E+03  1.017110066E+03  1.868812365E-05  0.00000E+00  9.000E+00
#rwgt            1           1   8.7231170234288335E-002           5      111026           0
</event>
<event>
      5   9999  3.19816E-02  1.25110E+01 -1.00000E+00  1.85144E-01
      21    -1     0     0   502   512  0.000000000E+00  0.000000000E+00  8.562162385E+02  8.562162385E+02  0.000000000E+00  0.00000E+00  9.000E+00
      21    -1     0     0   501   502  0.000000000E+00  0.000000000E+00 -7.235343920E+01  7.235343920E+01  0.000000000E+00  0.00000E+00  9.000E+00
      25     1     1     2     0     0 -1.028914788E+02  1.644188492E+02  2.607482805E+02  3.481879955E+02  1.250000000E+02  0.00000E+00  9.000E+00
      25     1     1     2     0     0  1.004314112E+02 -1.521520773E+02  4.032088325E+02  4.598250597E+02  1.250000000E+02  0.00000E+00  9.000E+00
      21     1     1     2   501   512  2.460067654E+00 -1.226677193E+01  1.199056863E+02  1.205566225E+02  1.907348633E-06  0.00000E+00  9.000E+00
#rwgt            1           1   2.7553926568391427E-002           5      111177           0
</event>
<event>
      5   9999  3.19816E-02  2.36353E+02 -1.00000E+00  1.09070E-01
      21    -1     0     0   502   501  0.000000000E+00  0.000000000E+00  9.387361590E+02  9.387361590E+02  0.000000000E+00  0.00000E+00  9.000E+00
      21    -1     0     0   501   511  0.000000000E+00  0.000000000E+00 -1.287900834E+03  1.287900834E+03  0.000000000E+00  0.00000E+00  9.000E+00
      25     1     1     2     0     0  8.950755459E+02 -2.631301916E+02 -2.762474784E+02  9.809869519E+02  1.250000000E+02  0.00000E+00  9.000E+00
      25     1     1     2     0     0 -7.376618105E+02  8.682502643E+01  2.945418427E+02  8.087418803E+02  1.250000000E+02  0.00000E+00  9.000E+00
      21     1     1     2   502   511 -1.574137353E+02  1.763051651E+02 -3.674590390E+02  4.369081605E+02  0.000000000E+00  0.00000E+00  9.000E+00
#rwgt            1           1   3.3920006020074944E-002           5      111355           0
</event>
<event>
      5   9999  3.19816E-02  7.41884E+01 -1.00000E+00  1.29955E-01
      21    -1     0     0   502   501  0.000000000E+00  0.000000000E+00  1.342396189E+03  1.342396189E+03  0.000000000E+00  0.00000E+00  9.000E+00
      21    -1     0     0   512   502  0.000000000E+00  0.000000000E+00 -1.240898470E+03  1.240898470E+03  0.000000000E+00  0.00000E+00  9.000E+00
      25     1     1     2     0     0 -1.450160198E+02 -1.059215956E+03 -6.061363612E+02  1.235311449E+03  1.250000000E+02  0.00000E+00  9.000E+00
      25     1     1     2     0     0  8.509148602E+01  1.015478386E+03  7.414851443E+02  1.266436786E+03  1.250000000E+02  0.00000E+00  9.000E+00
      21     1     1     2   512   501  5.992453382E+01  4.373757057E+01 -3.385106390E+01  8.154642457E+01  1.066240300E-06  0.00000E+00  9.000E+00
#rwgt            1           1   3.0246682335801293E-002           5      111440           0
</event>
<event>
      5   9999  3.19816E-02  3.83682E+01 -1.00000E+00  1.45971E-01
      21    -1     0     0   502   501  0.000000000E+00  0.000000000E+00  2.764321025E+02  2.764321025E+02  0.000000000E+00  0.00000E+00  9.000E+00
      21    -1     0     0   511   502  0.000000000E+00  0.000000000E+00 -3.501275202E+02  3.501275202E+02  0.000000000E+00  0.00000E+00  9.000E+00
      25     1     1     2     0     0 -3.214856807E+01 -2.046684229E+02 -8.594946344E+01  2.567781222E+02  1.250000000E+02  0.00000E+00  9.000E+00
      25     1     1     2     0     0  5.621111124E+01  2.345534540E+02  8.742701133E+01  2.853830656E+02  1.250000000E+02  0.00000E+00  9.000E+00
      21     1     1     2   511   501 -2.406254317E+01 -2.988503116E+01 -7.517296556E+01  8.439843495E+01  9.536743164E-07  0.00000E+00  9.000E+00
#rwgt            1           1   2.7465827921196843E-002           5      111537           0
</event>
<event>
      5   9999  3.19816E-02  3.30010E+01 -1.00000E+00  1.50219E-01
      21    -1     0     0   502   501  0.000000000E+00  0.000000000E+00  6.260442439E+02  6.260442439E+02  0.000000000E+00  0.00000E+00  9.000E+00
      21    -1     0     0   501   512  0.000000000E+00  0.000000000E+00 -1.138507336E+03  1.138507336E+03  0.000000000E+00  0.00000E+00  9.000E+00
      25     1     1     2     0     0  1.156496558E+02 -2.874887851E+02  5.396546334E+02  6.347257422E+02  1.250000000E+02  0.00000E+00  9.000E+00
      25     1     1     2     0     0 -1.328403877E+02  3.156586614E+02 -1.022255689E+03  1.085319609E+03  1.250000000E+02  0.00000E+00  9.000E+00
      21     1     1     2   502   512  1.719073186E+01 -2.816987629E+01 -2.986203595E+01  4.450622859E+01  7.539457465E-07  0.00000E+00  9.000E+00
#rwgt            1           1   2.8997526021464371E-002           5      111698           0
</event>
<event>
      5   9999  3.19816E-02  3.98463E+01 -1.00000E+00  1.44944E-01
      21    -1     0     0   511   501  0.000000000E+00  0.000000000E+00  7.099024205E+02  7.099024205E+02  0.000000000E+00  0.00000E+00  9.000E+00
      21    -1     0     0   501   502  0.000000000E+00  0.000000000E+00 -9.573541907E+01  9.573541907E+01  0.000000000E+00  0.00000E+00  9.000E+00
      25     1     1     2     0     0 -1.762433857E+02  5.449928717E+01  2.425293283E+02  3.293590417E+02  1.250000000E+02  0.00000E+00  9.000E+00
      25     1     1     2     0     0  2.118400987E+02 -7.240453139E+01  3.031536124E+02  3.970462899E+02  1.250000000E+02  0.00000E+00  9.000E+00
      21     1     1     2   511   502 -3.559671294E+01  1.790524422E+01  6.848406073E+01  7.923250795E+01  1.348699152E-06  0.00000E+00  9.000E+00
#rwgt            1           1   2.8942184842524143E-002           5      111947           0
</event>
<event>
      5   9999  3.19816E-02  3.52997E+01 -1.00000E+00  1.48289E-01
      21    -1     0     0   502   501  0.000000000E+00  0.000000000E+00  5.237416483E+02  5.237416483E+02  0.000000000E+00  0.00000E+00  9.000E+00
      21    -1     0     0   501   512  0.000000000E+00  0.000000000E+00 -2.931177590E+02  2.931177590E+02  0.000000000E+00  0.00000E+00  9.000E+00
      25     1     1     2     0     0  2.975207139E+02  6.201342032E+01  1.171125065E+02  3.488618332E+02  1.250000000E+02  0.00000E+00  9.000E+00
      25     1     1     2     0     0 -3.138719808E+02 -9.329773508E+01  1.790340248E+02  3.935711749E+02  1.250000000E+02  0.00000E+00  9.000E+00
      21     1     1     2   502   512  1.635126687E+01  3.128431475E+01 -6.552264200E+01  7.442639916E+01  9.536743164E-07  0.00000E+00  9.000E+00
#rwgt            1           1   2.7345934022627614E-002           5      112075           0
</event>
<event>
      5   9999  3.19816E-02  3.50359E+01 -1.00000E+00  1.48502E-01
      21    -1     0     0   502   501  0.000000000E+00  0.000000000E+00  1.094276249E+03  1.094276249E+03  0.000000000E+00  0.00000E+00  9.000E+00
      21    -1     0     0   501   511  0.000000000E+00  0.000000000E+00 -4.846489620E+01  4.846489620E+01  0.000000000E+00  0.00000E+00  9.000E+00
      25     1     1     2     0     0 -4.528077857E+01 -1.050481734E+02  8.743175388E+02  8.905849910E+02  1.250000000E+02  0.00000E+00  9.000E+00
      25     1     1     2     0     0  2.483578277E+01  7.659620489E+01  1.271547752E+02  1.956454231E+02  1.250000000E+02  0.00000E+00  9.000E+00
      21     1     1     2   502   511  2.044499580E+01  2.845196848E+01  4.433903862E+01  5.651073092E+01  0.000000000E+00  0.00000E+00  9.000E+00
#rwgt            1           1   3.0492101921583491E-002           5      112215           0
</event>
<event>
      5   9999  3.19816E-02  7.20105E+02 -1.00000E+00  9.45504E-02
      21    -1     0     0   512   501  0.000000000E+00  0.000000000E+00  5.608706645E+02  5.608706645E+02  0.000000000E+00  0.00000E+00  9.000E+00
      21    -1     0     0   501   502  0.000000000E+00  0.000000000E+00 -1.655005777E+03  1.655005777E+03  0.000000000E+00  0.00000E+00  9.000E+00
      25     1     1     2     0     0 -3.512727832E+02 -1.362954021E+02 -1.369092982E+02  4.199263754E+02  1.250000000E+02  0.00000E+00  9.000E+00
      25     1     1     2     0     0  1.510689249E+00  7.657533032E+02 -6.534346814E+02  1.014387641E+03  1.250000000E+02  0.00000E+00  9.000E+00
      21     1     1     2   512   502  3.497620940E+02 -6.294579011E+02 -3.037911330E+02  7.815624250E+02  9.344061824E-06  0.00000E+00  9.000E+00
#rwgt            2          11   1.5474331516524263E-003           5      112484           0
</event>
<event>
      5   9999  3.19816E-02  1.74950E+02 -1.00000E+00  1.13805E-01
      21    -1     0     0   511   501  0.000000000E+00  0.000000000E+00  4.650066319E+02  4.650066319E+02  0.000000000E+00  0.00000E+00  9.000E+00
      21    -1     0     0   501   502  0.000000000E+00  0.000000000E+00 -1.581014618E+03  1.581014618E+03  0.000000000E+00  0.00000E+00  9.000E+00
      25     1     1     2     0     0 -7.576819068E+02 -2.449186867E+02 -7.730484335E+02  1.116824031E+03  1.250000000E+02  0.00000E+00  9.000E+00
      25     1     1     2     0     0  5.846194850E+02  2.705491276E+02 -3.681859241E+02  7.524378030E+02  1.250000000E+02  0.00000E+00  9.000E+00
      21     1     1     2   511   502  1.730624218E+02 -2.563044089E+01  2.522637173E+01  1.767594161E+02  2.939421655E-06  0.00000E+00  9.000E+00
#rwgt            2          11   6.8426118891834467E-003           5      112564           0
</event>
<event>
      5   9999  3.19816E-02  9.84931E+01 -1.00000E+00  1.24125E-01
      21    -1     0     0   502   512  0.000000000E+00  0.000000000E+00  9.664240210E+01  9.664240210E+01  0.000000000E+00  0.00000E+00  9.000E+00
      21    -1     0     0   501   502  0.000000000E+00  0.000000000E+00 -1.750053883E+03  1.750053883E+03  0.000000000E+00  0.00000E+00  9.000E+00
      25     1     1     2     0     0 -3.113802413E+02  1.264318743E+02 -1.243378894E+03  1.294047429E+03  1.250000000E+02  0.00000E+00  9.000E+00
      25     1     1     2     0     0  2.139004466E+02 -1.123400223E+02 -2.990640052E+02  4.042746107E+02  1.250000000E+02  0.00000E+00  9.000E+00
      21     1     1     2   501   512  9.747979466E+01 -1.409185207E+01 -1.109685815E+02  1.483742456E+02  1.348699152E-06  0.00000E+00  9.000E+00
#rwgt            1           1   2.3426685758524024E-002           5      112584           0
</event>
<event>
      5   9999  3.19816E-02  6.98422E+01 -1.00000E+00  1.31270E-01
      21    -1     0     0   502   501  0.000000000E+00  0.000000000E+00  1.366735838E+03  1.366735838E+03  0.000000000E+00  0.00000E+00  9.000E+00
      21    -1     0     0   511   502  0.000000000E+00  0.000000000E+00 -8.899322275E+01  8.899322275E+01  0.000000000E+00  0.00000E+00  9.000E+00
      25     1     1     2     0     0 -4.544997981E+01  1.526042923E+02  1.319748312E+02  2.416529056E+02  1.250000000E+02  0.00000E+00  9.000E+00
      25     1     1     2     0     0 -2.289610100E+01 -1.382257388E+02  1.125919399E+03  1.141468388E+03  1.250000000E+02  0.00000E+00  9.000E+00
      21     1     1     2   511   501  6.834608081E+01 -1.437855349E+01  1.984838502E+01  7.260776784E+01  1.735713456E-06  0.00000E+00  9.000E+00
#rwgt            1           1   2.9468175938504284E-002           5      112700           0
</event>
<event>
      5   9999  3.19816E-02  2.28360E+01 -1.00000E+00  1.61753E-01
      21    -1     0     0   502   501  0.000000000E+00  0.000000000E+00  7.072540151E+02  7.072540151E+02  0.000000000E+00  0.00000E+00  9.000E+00
      21    -1     0     0   512   502  0.000000000E+00  0.000000000E+00 -8.344126473E+02  8.344126473E+02  0.000000000E+00  0.00000E+00  9.000E+00
      25     1     1     2     0     0 -5.995134261E+02 -4.448272284E+02 -1.431953106E+02  7.703359710E+02  1.250000000E+02  0.00000E+00  9.000E+00
      25     1     1     2     0     0  5.778912295E+02  4.374812683E+02  4.205768765E+01  7.367102431E+02  1.250000000E+02  0.00000E+00  9.000E+00
      21     1     1     2   512   501  2.162219663E+01  7.345960143E+00 -2.602100920E+01  3.462044826E+01  5.840038640E-07  0.00000E+00  9.000E+00
#rwgt            1           1   3.1886799774369035E-002           5      112786           0
</event>
<event>
      5   9999  3.19816E-02  1.17660E+02 -1.00000E+00  1.20732E-01
      21    -1     0     0   502   501  0.000000000E+00  0.000000000E+00  4.278789764E+02  4.278789764E+02  0.000000000E+00  0.00000E+00  9.000E+00
      21    -1     0     0   511   502  0.000000000E+00  0.000000000E+00 -5.548011715E+02  5.548011715E+02  0.000000000E+00  0.00000E+00  9.000E+00
      25     1     1     2     0     0  2.449524045E+02  1.922015441E+02  2.148098432E+02  3.983859721E+02  1.250000000E+02  0.00000E+00  9.000E+00
      25     1     1     2     0     0 -1.273737068E+02 -1.965654737E+02 -5.058333776E+01  2.702697185E+02  1.250000000E+02  0.00000E+00  9.000E+00
      21     1     1     2   511   501 -1.175786977E+02  4.363929611E+00 -2.911487005E+02  3.140244574E+02  0.000000000E+00  0.00000E+00  9.000E+00
#rwgt            1           1   2.8359734796391669E-002           5      113015           0
</event>
<event>
      5   9999  3.19816E-02  1.06767E+02 -1.00000E+00  1.22562E-01
       2    -1     0     0   502     0  0.000000000E+00  0.000000000E+00  2.079930164E+03  2.079930164E+03  0.000000000E+00  0.00000E+00  9.000E+00
      21    -1     0     0   501   502  0.000000000E+00  0.000000000E+00 -2.766151115E+02  2.766151115E+02  0.000000000E+00  0.00000E+00  9.000E+00
      25     1     1     2     0     0  3.656705864E+02  2.228214703E+02 -1.615528754E+01  4.463747066E+02  1.250000000E+02  0.00000E+00  9.000E+00
      25     1     1     2     0     0 -3.741460486E+02 -1.163909590E+02  9.641069442E+02  1.048169510E+03  1.250000000E+02  0.00000E+00  9.000E+00
       2     1     1     2   501     0  8.475462278E+00 -1.064305114E+02  8.553633959E+02  8.620010593E+02  1.078959322E-05  0.00000E+00  9.000E+00
#rwgt            2          18   1.1364898266099969E-003           5      113274           0
</event>
<event>
      5   9999  3.19816E-02  8.10048E+01 -1.00000E+00  1.28088E-01
      21    -1     0     0   502   501  0.000000000E+00  0.000000000E+00  6.418864291E+01  6.418864291E+01  0.000000000E+00  0.00000E+00  9.000E+00
       1    -1     0     0   501     0  0.000000000E+00  0.000000000E+00 -1.179993560E+03  1.179993560E+03  0.000000000E+00  0.00000E+00  9.000E+00
      25     1     1     2     0     0 -1.365427319E+02 -1.011809763E+02 -1.874586522E+02  2.822184506E+02  1.250000000E+02  0.00000E+00  9.000E+00
      25     1     1     2     0     0  5.560896400E+01  9.778897753E+01 -5.543787780E+02  5.793236319E+02  1.250000000E+02  0.00000E+00  9.000E+00
       1     1     1     2   502     0  8.093376793E+01  3.391998743E+00 -3.739674874E+02  3.826401208E+02  7.629394531E-06  0.00000E+00  9.000E+00
#rwgt            1           1   2.5301991755834360E-002           5      113323           0
</event>
<event>
      5   9999  3.19816E-02  5.02381E+01 -1.00000E+00  1.38958E-01
      21    -1     0     0   502   511  0.000000000E+00  0.000000000E+00  1.792240818E+03  1.792240818E+03  0.000000000E+00  0.00000E+00  9.000E+00
      21    -1     0     0   501   502  0.000000000E+00  0.000000000E+00 -7.440116813E+02  7.440116813E+02  0.000000000E+00  0.00000E+00  9.000E+00
      25     1     1     2     0     0 -6.243293198E+02 -8.456336779E+02  3.397173130E+01  1.059085688E+03  1.250000000E+02  0.00000E+00  9.000E+00
      25     1     1     2     0     0  5.750584564E+02  8.358229759E+02  9.490613593E+02  1.394860114E+03  1.250000000E+02  0.00000E+00  9.000E+00
      21     1     1     2   501   511  4.927086335E+01  9.810702018E+00  6.519604663E+01  8.230669684E+01  9.536743164E-07  0.00000E+00  9.000E+00
#rwgt            1           1   2.3933480237993077E-002           5      113398           0
</event>
<event>
      5   9999  3.19816E-02  3.43572E+01 -1.00000E+00  1.49059E-01
      21    -1     0     0   502   512  0.000000000E+00  0.000000000E+00  1.338845356E+02  1.338845356E+02  0.000000000E+00  0.00000E+00  9.000E+00
      21    -1     0     0   501   502  0.000000000E+00  0.000000000E+00 -1.652023489E+03  1.652023489E+03  0.000000000E+00  0.00000E+00  9.000E+00
      25     1     1     2     0     0 -4.962092951E+01 -2.840159344E+02 -1.742586236E+02  3.593304267E+02  1.250000000E+02  0.00000E+00  9.000E+00
      25     1     1     2     0     0  7.169198849E+01  2.576856006E+02 -1.357785173E+03  1.389513291E+03  1.250000000E+02  0.00000E+00  9.000E+00
      21     1     1     2   501   512 -2.207105898E+01  2.633033385E+01  1.390484375E+01  3.706430634E+01  1.168007728E-06  0.00000E+00  9.000E+00
#rwgt            1           1   8.7850641996486557E-003           5      113532           0
</event>
<event>
      5   9999  3.19816E-02  8.53751E+01 -1.00000E+00  1.26997E-01
      21    -1     0     0   511   501  0.000000000E+00  0.000000000E+00  1.163628246E+03  1.163628246E+03  0.000000000E+00  0.00000E+00  9.000E+00
      21    -1     0     0   501   502  0.000000000E+00  0.000000000E+00 -4.035394832E+02  4.035394832E+02  0.000000000E+00  0.00000E+00  9.000E+00
      25     1     1     2     0     0  2.683633333E+02 -3.635557578E+02  4.391076261E+02  6.423645188E+02  1.250000000E+02  0.00000E+00  9.000E+00
      25     1     1     2     0     0 -2.199824973E+02  2.932123346E+02 -1.725183214E+02  4.239732816E+02  1.250000000E+02  0.00000E+00  9.000E+00
      21     1     1     2   511   502 -4.838083603E+01  7.034342320E+01  4.934994584E+02  5.008299292E+02  7.629394531E-06  0.00000E+00  9.000E+00
#rwgt            1           1   3.0982450371239107E-002           5      113688           0
</event>
<event>
      5   9999  3.19816E-02  6.14223E+01 -1.00000E+00  1.34162E-01
      21    -1     0     0   502   512  0.000000000E+00  0.000000000E+00  7.073932980E+01  7.073932980E+01  0.000000000E+00  0.00000E+00  9.000E+00
      21    -1     0     0   501   502  0.000000000E+00  0.000000000E+00 -3.091163920E+03  3.091163920E+03  0.000000000E+00  0.00000E+00  9.000E+00
      25     1     1     2     0     0 -1.221364885E+02 -2.376248649E+02 -2.601692299E+03  2.618360311E+03  1.250000000E+02  0.00000E+00  9.000E+00
      25     1     1     2     0     0  6.117612374E+01  2.301056245E+02 -2.630414540E+02  3.761740596E+02  1.250000000E+02  0.00000E+00  9.000E+00
      21     1     1     2   501   512  6.096036477E+01  7.519240372E+00 -1.556908377E+02  1.673688800E+02  0.000000000E+00  0.00000E+00  9.000E+00
#rwgt            1           1   4.8038601503108652E-002           5      113781           0
</event>
<event>
      5   9999  3.19816E-02  1.79876E+02 -1.00000E+00  1.13351E-01
      21    -1     0     0   502   501  0.000000000E+00  0.000000000E+00  1.794935630E+03  1.794935630E+03  0.000000000E+00  0.00000E+00  9.000E+00
       2    -1     0     0   501     0  0.000000000E+00  0.000000000E+00 -6.435503771E+02  6.435503771E+02  0.000000000E+00  0.00000E+00  9.000E+00
      25     1     1     2     0     0  2.230219626E+02 -4.349666888E+02  8.382819300E+02  9.784050339E+02  1.250000000E+02  0.00000E+00  9.000E+00
      25     1     1     2     0     0 -1.300558000E+02  5.889556859E+02  7.600436956E+02  9.783019628E+02  1.250000000E+02  0.00000E+00  9.000E+00
       2     1     1     2   502     0 -9.296616268E+01 -1.539889970E+02 -4.469403725E+02  4.817790107E+02  7.629394531E-06  0.00000E+00  9.000E+00
#rwgt            1           1   2.9088172709054578E-002           5      113849           0
</event>
<event>
      5   9999  3.19816E-02  5.28892E+01 -1.00000E+00  1.37698E-01
      21    -1     0     0   511   501  0.000000000E+00  0.000000000E+00  1.033083134E+03  1.033083134E+03  0.000000000E+00  0.00000E+00  9.000E+00
      21    -1     0     0   501   502  0.000000000E+00  0.000000000E+00 -2.297712543E+02  2.297712543E+02  0.000000000E+00  0.00000E+00  9.000E+00
      25     1     1     2     0     0  3.251096620E+02  9.021151649E+01 -2.226546238E+01  3.604929415E+02  1.250000000E+02  0.00000E+00  9.000E+00
      25     1     1     2     0     0 -2.767224697E+02 -6.885868409E+01  7.075488452E+02  7.730247163E+02  1.250000000E+02  0.00000E+00  9.000E+00
      21     1     1     2   511   502 -4.838719232E+01 -2.135283240E+01  1.180284971E+02  1.293367309E+02  0.000000000E+00  0.00000E+00  9.000E+00
#rwgt            1           1   2.9570069374921237E-002           5      113903           0
</event>
<event>
      5   9999  3.19816E-02  2.83390E+02 -1.00000E+00  1.06402E-01
      21    -1     0     0   502   501  0.000000000E+00  0.000000000E+00  4.932200811E+02  4.932200811E+02  0.000000000E+00  0.00000E+00  9.000E+00
       1    -1     0     0   501     0  0.000000000E+00  0.000000000E+00 -1.400333326E+03  1.400333326E+03  0.000000000E+00  0.00000E+00  9.000E+00
      25     1     1     2     0     0  5.188810451E+02 -1.431909474E+02  1.483410078E+02  5.721636488E+02  1.250000000E+02  0.00000E+00  9.000E+00
      25     1     1     2     0     0 -4.449908401E+02 -1.303963137E+02 -4.751364379E+02  6.755735941E+02  1.250000000E+02  0.00000E+00  9.000E+00
       1     1     1     2   502     0 -7.389020503E+01  2.735872611E+02 -5.803178147E+02  6.458161642E+02  7.629394531E-06  0.00000E+00  9.000E+00
#rwgt            2          12   5.3084972707217169E-004           5      114084           0
</event>
<event>
      5   9999  3.19816E-02  7.65846E+01 -1.00000E+00  1.29273E-01
       1    -1     0     0   502     0  0.000000000E+00  0.000000000E+00  7.746535054E+02  7.746535054E+02  0.000000000E+00  0.00000E+00  9.000E+00
      21    -1     0     0   501   502  0.000000000E+00  0.000000000E+00 -6.521230755E+01  6.521230755E+01  0.000000000E+00  0.00000E+00  9.000E+00
      25     1     1     2     0     0  2.919664061E+01 -9.020238998E+01  1.987501157E+02  2.532104332E+02  1.250000000E+02  0.00000E+00  9.000E+00
      25     1     1     2     0     0 -5.054844798E+01  1.637503656E+02  3.779801870E+02  4.334320588E+02  1.250000000E+02  0.00000E+00  9.000E+00
       1     1     1     2   501     0  2.135180737E+01 -7.354797564E+01  1.327108951E+02  1.532233209E+02  1.907348633E-06  0.00000E+00  9.000E+00
#rwgt            1           1   2.3949743575290786E-002           5      114103           0
</event>
<event>
      5   9999  3.19816E-02  4.03672E+01 -1.00000E+00  1.44594E-01
      21    -1     0     0   511   501  0.000000000E+00  0.000000000E+00  5.846179958E+02  5.846179958E+02  0.000000000E+00  0.00000E+00  9.000E+00
      21    -1     0     0   501   502  0.000000000E+00  0.000000000E+00 -1.853095741E+03  1.853095741E+03  0.000000000E+00  0.00000E+00  9.000E+00
      25     1     1     2     0     0  7.344597035E+02 -1.560077429E+02  1.600395318E+02  7.778220385E+02  1.250000000E+02  0.00000E+00  9.000E+00
      25     1     1     2     0     0 -7.225190828E+02  1.174470276E+02 -1.438001413E+03  1.618425375E+03  1.250000000E+02  0.00000E+00  9.000E+00
      21     1     1     2   511   502 -1.194062069E+01  3.856071522E+01  9.484135876E+00  4.146632385E+01  1.338120956E-06  0.00000E+00  9.000E+00
#rwgt            1           1   4.1609899595351177E-002           5      114144           0
</event>
<event>
      5   9999  3.19816E-02  9.99670E+00 -1.00000E+00  1.95774E-01
      -2    -1     0     0     0   501  0.000000000E+00  0.000000000E+00  4.282667358E+02  4.282667358E+02  0.000000000E+00  0.00000E+00  9.000E+00
      21    -1     0     0   501   502  0.000000000E+00  0.000000000E+00 -3.962416356E+02  3.962416356E+02  0.000000000E+00  0.00000E+00  9.000E+00
      25     1     1     2     0     0  1.504595754E+02 -2.247181486E+02 -1.093000524E+02  3.173449725E+02  1.250000000E+02  0.00000E+00  9.000E+00
      25     1     1     2     0     0 -1.442263354E+02  2.169027369E+02 -6.864136697E+01  2.969590382E+02  1.250000000E+02  0.00000E+00  9.000E+00
      -2     1     1     2     0   502 -6.233240052E+00  7.815411691E+00  2.099665196E+02  2.102043607E+02  0.000000000E+00  0.00000E+00  9.000E+00
#rwgt            1           1   2.7998269212476921E-002           5      114313           0
</event>
<event>
      5   9999  3.19816E-02  2.97537E+01 -1.00000E+00  1.53289E-01
      21    -1     0     0   502   501  0.000000000E+00  0.000000000E+00  9.390358981E+01  9.390358981E+01  0.000000000E+00  0.00000E+00  9.000E+00
      21    -1     0     0   511   502  0.000000000E+00  0.000000000E+00 -1.152123006E+03  1.152123006E+03  0.000000000E+00  0.00000E+00  9.000E+00
      25     1     1     2     0     0 -3.706367017E+01 -6.205557375E+01 -3.207945737E+02  3.517936446E+02  1.250000000E+02  0.00000E+00  9.000E+00
      25     1     1     2     0     0  1.926866000E+01  3.820984833E+01  2.224404786E+01  1.339816086E+02  1.250000000E+02  0.00000E+00  9.000E+00
      21     1     1     2   511   501  1.779501016E+01  2.384572542E+01 -7.596688908E+02  7.602513430E+02  1.078959322E-05  0.00000E+00  9.000E+00
#rwgt            1           1   2.7447511137778057E-002           5      114503           0
</event>
<event>
      5   9999  3.19816E-02  2.28700E+02 -1.00000E+00  1.09568E-01
      21    -1     0     0   502   501  0.000000000E+00  0.000000000E+00  4.169580229E+02  4.169580229E+02  0.000000000E+00  0.00000E+00  9.000E+00
      21    -1     0     0   501   512  0.000000000E+00  0.000000000E+00 -2.571824805E+03  2.571824805E+03  0.000000000E+00  0.00000E+00  9.000E+00
      25     1     1     2     0     0 -2.012350396E+02  7.720378571E+02 -8.395247361E+02  1.164888311E+03  1.250000000E+02  0.00000E+00  9.000E+00
      25     1     1     2     0     0  2.972192837E+02 -9.796207901E+02 -1.021948447E+03  1.451895252E+03  1.250000000E+02  0.00000E+00  9.000E+00
      21     1     1     2   502   512 -9.598424418E+01  2.075829330E+02 -2.933935994E+02  3.719992653E+02  0.000000000E+00  0.00000E+00  9.000E+00
#rwgt            1           1   2.7841068070000596E-002           5      114606           0
</event>
<event>
      5   9999  3.19816E-02  1.87422E+02 -1.00000E+00  1.12685E-01
      21    -1     0     0   502   511  0.000000000E+00  0.000000000E+00  1.190827489E+03  1.190827489E+03  0.000000000E+00  0.00000E+00  9.000E+00
      21    -1     0     0   501   502  0.000000000E+00  0.000000000E+00 -3.367915033E+02  3.367915033E+02  0.000000000E+00  0.00000E+00  9.000E+00
      25     1     1     2     0     0  3.897214132E-01  3.194283942E+01 -7.280827878E+01  1.481436544E+02  1.250000000E+02  0.00000E+00  9.000E+00
      25     1     1     2     0     0  1.870134900E+02 -3.457488848E+01 -1.589680205E+02  2.776063758E+02  1.250000000E+02  0.00000E+00  9.000E+00
      21     1     1     2   501   511 -1.874032114E+02  2.632049055E+00  1.085812285E+03  1.101868962E+03  1.525878906E-05  0.00000E+00  9.000E+00
#rwgt            2          11   1.5101166551635070E-002           5      114809           0
</event>
<event>
      5   9999  3.19816E-02  1.46698E+02 -1.00000E+00  1.16778E-01
      21    -1     0     0   502   501  0.000000000E+00  0.000000000E+00  1.780693883E+03  1.780693883E+03  0.000000000E+00  0.00000E+00  9.000E+00
      21    -1     0     0   501   512  0.000000000E+00  0.000000000E+00 -1.198531449E+02  1.198531449E+02  0.000000000E+00  0.00000E+00  9.000E+00
      25     1     1     2     0     0 -2.723559797E+02 -2.184590106E+02  8.965830196E+02  9.702516323E+02  1.250000000E+02  0.00000E+00  9.000E+00
      25     1     1     2     0     0  3.132396088E+02  7.757329331E+01  6.750933546E+02  7.586255373E+02  1.250000000E+02  0.00000E+00  9.000E+00
      21     1     1     2   502   512 -4.088362911E+01  1.408857173E+02  8.916436402E+01  1.716698584E+02  3.015782986E-06  0.00000E+00  9.000E+00
#rwgt            1           1   2.2615819022676818E-002           5      114874           0
</event>
<event>
      5   9999  3.19816E-02  5.36506E+01 -1.00000E+00  1.37352E-01
      21    -1     0     0   502   511  0.000000000E+00  0.000000000E+00  1.934883579E+02  1.934883579E+02  0.000000000E+00  0.00000E+00  9.000E+00
      21    -1     0     0   501   502  0.000000000E+00  0.000000000E+00 -9.127515928E+02  9.127515928E+02  0.000000000E+00  0.00000E+00  9.000E+00
      25     1     1     2     0     0  1.432916337E+00 -2.811801454E+02 -7.045292577E+02  7.687982846E+02  1.250000000E+02  0.00000E+00  9.000E+00
      25     1     1     2     0     0 -3.215416269E+01  2.371962085E+02  2.424679581E+01  2.711251346E+02  1.250000000E+02  0.00000E+00  9.000E+00
      21     1     1     2   501   511  3.072124635E+01  4.398393694E+01 -3.898077292E+01  6.631653145E+01  4.768371582E-07  0.00000E+00  9.000E+00
#rwgt            1           1   2.7636940072672023E-002           5      114941           0
</event>
<event>
      5   9999  3.19816E-02  1.35958E+02 -1.00000E+00  1.18111E-01
      21    -1     0     0   502   501  0.000000000E+00  0.000000000E+00  1.778463059E+03  1.778463059E+03  0.000000000E+00  0.00000E+00  9.000E+00
      21    -1     0     0   512   502  0.000000000E+00  0.000000000E+00 -2.303540981E+03  2.303540981E+03  0.000000000E+00  0.00000E+00  9.000E+00
      25     1     1     2     0     0  5.472012451E+02  1.794287840E+02  1.355656943E+03  1.478193032E+03  1.250000000E+02  0.00000E+00  9.000E+00
      25     1     1     2     0     0 -5.946432385E+02 -5.201708016E+01  1.003531865E+02  6.180632004E+02  1.250000000E+02  0.00000E+00  9.000E+00
      21     1     1     2   512   501  4.744199338E+01 -1.274117038E+02 -1.981088052E+03  1.985747808E+03  2.157918644E-05  0.00000E+00  9.000E+00
#rwgt            1           1   2.9830529731022990E-002           5      115081           0
</event>
<event>
      5   9999  3.19816E-02  4.72116E+01 -1.00000E+00  1.40512E-01
       2    -1     0     0   502     0  0.000000000E+00  0.000000000E+00  9.465241516E+02  9.465241516E+02  0.000000000E+00  0.00000E+00  9.000E+00
      21    -1     0     0   501   502  0.000000000E+00  0.000000000E+00 -1.002802558E+03  1.002802558E+03  0.000000000E+00  0.00000E+00  9.000E+00
      25     1     1     2     0     0  6.655112205E+01 -1.781308964E+02  3.021149739E+01  2.295591485E+02  1.250000000E+02  0.00000E+00  9.000E+00
      25     1     1     2     0     0 -6.980395257E+01  2.252303152E+02 -8.826976713E+02  9.221613013E+02  1.250000000E+02  0.00000E+00  9.000E+00
       2     1     1     2   501     0  3.252830521E+00 -4.709941888E+01  7.962077677E+02  7.976062597E+02  1.078959322E-05  0.00000E+00  9.000E+00
#rwgt            1           1   2.6709983708085246E-002           5      115145           0
</event>
<event>
      5   9999  3.19816E-02  1.96137E+02 -1.00000E+00  1.11957E-01
      21    -1     0     0   502   501  0.000000000E+00  0.000000000E+00  4.853576239E+02  4.853576239E+02  0.000000000E+00  0.00000E+00  9.000E+00
       2    -1     0     0   501     0  0.000000000E+00  0.000000000E+00 -1.442174018E+03  1.442174018E+03  0.000000000E+00  0.00000E+00  9.000E+00
      25     1     1     2     0     0  1.666094321E+02  1.885852138E+02  3.552014290E+02  4.528974949E+02  1.250000000E+02  0.00000E+00  9.000E+00
      25     1     1     2     0     0 -1.970556217E+02 -3.823451277E+02 -6.919112281E+02  8.242480587E+02  1.250000000E+02  0.00000E+00  9.000E+00
       2     1     1     2   502     0  3.044618963E+01  1.937599139E+02 -6.201065951E+02  6.503860884E+02  0.000000000E+00  0.00000E+00  9.000E+00
#rwgt            1           1   2.3719682429990754E-002           5      115283           0
</event>
<event>
      5   9999  3.19816E-02  6.50545E+01 -1.00000E+00  1.32853E-01
       2    -1     0     0   502     0  0.000000000E+00  0.000000000E+00  5.439519148E+03  5.439519148E+03  0.000000000E+00  0.00000E+00  9.000E+00
      21    -1     0     0   501   502  0.000000000E+00  0.000000000E+00 -1.848149131E+02  1.848149131E+02  0.000000000E+00  0.00000E+00  9.000E+00
      25     1     1     2     0     0 -1.945135161E+02  2.857865187E+01 -9.899058845E+01  2.531331347E+02  1.250000000E+02  0.00000E+00  9.000E+00
      25     1     1     2     0     0  1.314440533E+02 -4.452624339E+01  1.016423281E+03  1.033441537E+03  1.250000000E+02  0.00000E+00  9.000E+00
       2     1     1     2   501     0  6.306946287E+01  1.594759152E+01  4.337271543E+03  4.337759389E+03  6.103515625E-05  0.00000E+00  9.000E+00
#rwgt            1           1   2.7431064026662982E-002           5      115338           0
</event>
<event>
      5   9999  3.19816E-02  8.19381E+01 -1.00000E+00  1.27848E-01
      21    -1     0     0   502   501  0.000000000E+00  0.000000000E+00  2.630423467E+03  2.630423467E+03  0.000000000E+00  0.00000E+00  9.000E+00
       3    -1     0     0   501     0  0.000000000E+00  0.000000000E+00 -3.079730067E+01  3.079730067E+01  0.000000000E+00  0.00000E+00  9.000E+00
      25     1     1     2     0     0  8.124876317E+01  2.042158007E+02  8.389155440E+02  8.761904728E+02  1.250000000E+02  0.00000E+00  9.000E+00
      25     1     1     2     0     0 -7.755284299E+01 -1.223611324E+02  1.488708688E+03  1.500954779E+03  1.250000000E+02  0.00000E+00  9.000E+00
       3     1     1     2   502     0 -3.695920186E+00 -8.185466823E+01  2.720019341E+02  2.840755158E+02  3.814697266E-06  0.00000E+00  9.000E+00
#rwgt            1           1   5.9844614514855787E-002           5      115387           0
</event>
<event>
      5   9999  3.19816E-02  2.72079E+02 -1.00000E+00  1.06989E-01
      21    -1     0     0   502   501  0.000000000E+00  0.000000000E+00  1.273345780E+03  1.273345780E+03  0.000000000E+00  0.00000E+00  9.000E+00
      21    -1     0     0   501   511  0.000000000E+00  0.000000000E+00 -1.401625328E+02  1.401625328E+02  0.000000000E+00  0.00000E+00  9.000E+00
      25     1     1     2     0     0  1.324348345E+01  9.594146843E+00  2.227767963E+02  2.559725346E+02  1.250000000E+02  0.00000E+00  9.000E+00
      25     1     1     2     0     0 -1.841818399E+02 -2.212707818E+02  8.080091134E+02  8.668260704E+02  1.250000000E+02  0.00000E+00  9.000E+00
      21     1     1     2   502   511  1.709383565E+02  2.116766350E+02  1.023973378E+02  2.907097079E+02  2.697398305E-06  0.00000E+00  9.000E+00
#rwgt            2          11   5.9949861770513093E-003           5      115477           0
</event>
<event>
      5   9999  3.19816E-02  3.26197E+01 -1.00000E+00  1.50557E-01
      21    -1     0     0   512   501  0.000000000E+00  0.000000000E+00  4.536889875E+02  4.536889875E+02  0.000000000E+00  0.00000E+00  9.000E+00
      21    -1     0     0   501   502  0.000000000E+00  0.000000000E+00 -6.009190467E+02  6.009190467E+02  0.000000000E+00  0.00000E+00  9.000E+00
      25     1     1     2     0     0  3.283757613E+02 -8.916199058E+01  1.065681331E+02  3.778389447E+02  1.250000000E+02  0.00000E+00  9.000E+00
      25     1     1     2     0     0 -3.377171282E+02  1.204154948E+02 -3.854934235E+02  5.410941966E+02  1.250000000E+02  0.00000E+00  9.000E+00
      21     1     1     2   512   502  9.341366915E+00 -3.125350418E+01  1.316952311E+02  1.356748929E+02  0.000000000E+00  0.00000E+00  9.000E+00
#rwgt            1           1   2.6276274752068798E-002           5      115497           0
</event>
<event>
      5   9999  3.19816E-02  1.28690E+01 -1.00000E+00  1.83891E-01
       1    -1     0     0   502     0  0.000000000E+00  0.000000000E+00  1.043560644E+03  1.043560644E+03  0.000000000E+00  0.00000E+00  9.000E+00
      21    -1     0     0   501   502  0.000000000E+00  0.000000000E+00 -1.664567941E+03  1.664567941E+03  0.000000000E+00  0.00000E+00  9.000E+00
      25     1     1     2     0     0 -9.608237187E+02 -1.697080415E+02  4.884306824E+02  1.098258881E+03  1.250000000E+02  0.00000E+00  9.000E+00
      25     1     1     2     0     0  9.481345201E+02  1.675642591E+02 -1.185718600E+03  1.532511157E+03  1.250000000E+02  0.00000E+00  9.000E+00
       1     1     1     2   501     0  1.268919867E+01  2.143782362E+00  7.628062146E+01  7.735854689E+01  0.000000000E+00  0.00000E+00  9.000E+00
#rwgt            1           1   6.9974749485800597E-002           5      115684           0
</event>
<event>
      5   9999  3.19816E-02  1.67399E+01 -1.00000E+00  1.73008E-01
      21    -1     0     0   502   511  0.000000000E+00  0.000000000E+00  5.701346962E+01  5.701346962E+01  0.000000000E+00  0.00000E+00  9.000E+00
      21    -1     0     0   501   502  0.000000000E+00  0.000000000E+00 -2.134931355E+03  2.134931355E+03  0.000000000E+00  0.00000E+00  9.000E+00
      25     1     1     2     0     0 -2.535012823E+01 -9.090559302E+01 -1.993606825E+03  1.999749892E+03  1.250000000E+02  0.00000E+00  9.000E+00
      25     1     1     2     0     0  8.673886192E+00  9.236442942E+01 -7.257882203E+01  1.717530481E+02  1.250000000E+02  0.00000E+00  9.000E+00
      21     1     1     2   501   511  1.667624203E+01 -1.458836400E+00 -1.173223862E+01  2.044188531E+01  4.768371582E-07  0.00000E+00  9.000E+00
#rwgt            1           1   8.7124942499102340E-002           5      116039           0
</event>
<event>
      5   9999  3.19816E-02  1.79680E+01 -1.00000E+00  1.70302E-01
       2    -1     0     0   502     0  0.000000000E+00  0.000000000E+00  1.974665691E+03  1.974665691E+03  0.000000000E+00  0.00000E+00  9.000E+00
      21    -1     0     0   501   502  0.000000000E+00  0.000000000E+00 -4.395965613E+01  4.395965613E+01  0.000000000E+00  0.00000E+00  9.000E+00
      25     1     1     2     0     0  7.498146819E+01  6.276842958E+01  1.028538637E+03  1.040710731E+03  1.250000000E+02  0.00000E+00  9.000E+00
      25     1     1     2     0     0 -8.794249261E+01 -7.521275534E+01  1.543123008E+02  2.298437007E+02  1.250000000E+02  0.00000E+00  9.000E+00
       2     1     1     2   501     0  1.296102442E+01  1.244432576E+01  7.478550969E+02  7.480709160E+02  1.868812365E-05  0.00000E+00  9.000E+00
#rwgt            1           1   2.9582665207449597E-002           5      116156           0
</event>
<event>
      5   9999  3.19816E-02  1.07061E+01 -1.00000E+00  1.92393E-01
      21    -1     0     0   502   501  0.000000000E+00  0.000000000E+00  1.284548974E+02  1.284548974E+02  0.000000000E+00  0.00000E+00  9.000E+00
      21    -1     0     0   501   511  0.000000000E+00  0.000000000E+00 -2.682889925E+03  2.682889925E+03  0.000000000E+00  0.00000E+00  9.000E+00
      25     1     1     2     0     0  1.804015859E+02 -1.323380044E+02 -2.351668192E+01  2.573637774E+02  1.250000000E+02  0.00000E+00  9.000E+00
      25     1     1     2     0     0 -1.708304887E+02  1.275407366E+02 -1.315305639E+03  1.338321195E+03  1.250000000E+02  0.00000E+00  9.000E+00
      21     1     1     2   502   511 -9.571097156E+00  4.797267795E+00 -1.215612707E+03  1.215659851E+03  0.000000000E+00  0.00000E+00  9.000E+00
#rwgt            1           1   3.0682991248716443E-002           5      116347           0
</event>
<event>
      5   9999  3.19816E-02  9.80950E+00 -1.00000E+00  1.96728E-01
      21    -1     0     0   502   501  0.000000000E+00  0.000000000E+00  8.478274055E+01  8.478274055E+01  0.000000000E+00  0.00000E+00  9.000E+00
      21    -1     0     0   512   502  0.000000000E+00  0.000000000E+00 -7.169061075E+02  7.169061075E+02  0.000000000E+00  0.00000E+00  9.000E+00
      25     1     1     2     0     0 -4.979623560E+01 -1.102922555E+02 -5.062239198E+01  1.811951249E+02  1.250000000E+02  0.00000E+00  9.000E+00
      25     1     1     2     0     0  4.731004685E+01  1.008030472E+02 -3.418179350E+02  3.806100308E+02  1.250000000E+02  0.00000E+00  9.000E+00
      21     1     1     2   512   501  2.486188757E+00  9.489208326E+00 -2.396830400E+02  2.398836923E+02  5.394796609E-06  0.00000E+00  9.000E+00
#rwgt            1           1   2.6928318994714130E-002           5      116553           0
</event>
<event>
      5   9999  3.19816E-02  4.17373E+01 -1.00000E+00  1.43704E-01
      21    -1     0     0   502   501  0.000000000E+00  0.000000000E+00  1.811789711E+02  1.811789711E+02  0.000000000E+00  0.00000E+00  9.000E+00
      21    -1     0     0   511   502  0.000000000E+00  0.000000000E+00 -2.590618073E+03  2.590618073E+03  0.000000000E+00  0.00000E+00  9.000E+00
      25     1     1     2     0     0  1.371674426E+02  5.509262929E+02 -1.152158573E+03  1.290515039E+03  1.250000000E+02  0.00000E+00  9.000E+00
      25     1     1     2     0     0 -1.773522495E+02 -5.396488285E+02 -6.486921697E+02  8.712641445E+02  1.250000000E+02  0.00000E+00  9.000E+00
      21     1     1     2   511   501  4.018480689E+01 -1.127746443E+01 -6.085883587E+02  6.100178606E+02  7.629394531E-06  0.00000E+00  9.000E+00
#rwgt            1           1   2.5424223178123709E-002           5      116762           0
</event>
<event>
      5   9999  3.19816E-02  3.86682E+02 -1.00000E+00  1.02130E-01
      21    -1     0     0   512   501  0.000000000E+00  0.000000000E+00  2.495680117E+03  2.495680117E+03  0.000000000E+00  0.00000E+00  9.000E+00
      21    -1     0     0   501   502  0.000000000E+00  0.000000000E+00 -9.599737426E+02  9.599737426E+02  0.000000000E+00  0.00000E+00  9.000E+00
      25     1     1     2     0     0 -1.387892123E+03  2.804183833E+02  1.334324678E+03  1.949596461E+03  1.250000000E+02  0.00000E+00  9.000E+00
      25     1     1     2     0     0  1.005764513E+03 -2.212448590E+02 -6.035053857E+01  1.039124021E+03  1.250000000E+02  0.00000E+00  9.000E+00
      21     1     1     2   512   502  3.821276098E+02 -5.917352422E+01  2.617322350E+02  4.669333775E+02  3.814697266E-06  0.00000E+00  9.000E+00
#rwgt            2          11   1.4956584847423963E-002           5      116914           0
</event>
<event>
      5   9999  3.19816E-02  5.11021E+01 -1.00000E+00  1.38537E-01
      21    -1     0     0   502   501  0.000000000E+00  0.000000000E+00  5.008812846E+02  5.008812846E+02  0.000000000E+00  0.00000E+00  9.000E+00
       4    -1     0     0   501     0  0.000000000E+00  0.000000000E+00 -1.892363600E+02  1.892363600E+02  0.000000000E+00  0.00000E+00  9.000E+00
      25     1     1     2     0     0  1.016365933E+02 -4.045414627E+01  2.879398937E+02  3.324167827E+02  1.250000000E+02  0.00000E+00  9.000E+00
      25     1     1     2     0     0 -1.526738706E+02  4.302795496E+01  1.297097397E+02  2.400215246E+02  1.250000000E+02  0.00000E+00  9.000E+00
       4     1     1     2   502     0  5.103727727E+01 -2.573808691E+00 -1.060047087E+02  1.176793373E+02  1.907348633E-06  0.00000E+00  9.000E+00
#rwgt            1           1   2.9482988491701140E-002           5      116949           0
</event>
<event>
      5   9999  3.19816E-02  1.88028E+01 -1.00000E+00  1.68612E-01
      21    -1     0     0   502   501  0.000000000E+00  0.000000000E+00  2.743008988E+02  2.743008988E+02  0.000000000E+00  0.00000E+00  9.000E+00
      -4    -1     0     0     0   502  0.000000000E+00  0.000000000E+00 -3.466203575E+02  3.466203575E+02  0.000000000E+00  0.00000E+00  9.000E+00
      25     1     1     2     0     0 -1.698666390E+02 -1.874252044E+02  2.195290123E+01  2.830014349E+02  1.250000000E+02  0.00000E+00  9.000E+00
      25     1     1     2     0     0  1.706913512E+02  1.686405257E+02 -3.148929535E+01  2.723816073E+02  1.250000000E+02  0.00000E+00  9.000E+00
      -4     1     1     2     0   501 -8.247121837E-01  1.878467869E+01 -6.278306463E+01  6.553821411E+01  1.348699152E-06  0.00000E+00  9.000E+00
#rwgt            1           1   2.7230074147951006E-002           5      117046           0
</event>
<event>
      5   9999  3.19816E-02  1.67399E+01 -1.00000E+00  1.73008E-01
      21    -1     0     0   511   501  0.000000000E+00  0.000000000E+00  3.006140720E+02  3.006140720E+02  0.000000000E+00  0.00000E+00  9.000E+00
      21    -1     0     0   501   502  0.000000000E+00  0.000000000E+00 -1.657275527E+02  1.657275527E+02  0.000000000E+00  0.00000E+00  9.000E+00
      25     1     1     2     0     0  1.177767440E+02  1.275024354E+02  8.486419532E+01  2.301198907E+02  1.250000000E+02  0.00000E+00  9.000E+00
      25     1     1     2     0     0 -1.018598354E+02 -1.223182725E+02  2.200430592E+01  2.035838288E+02  1.250000000E+02  0.00000E+00  9.000E+00
      21     1     1     2   511   502 -1.591690855E+01 -5.184162922E+00  2.801801801E+01  3.263790521E+01  0.000000000E+00  0.00000E+00  9.000E+00
#rwgt            1           1   2.5624560619733030E-002           5      117194           0
</event>
<event>
      5   9999  3.19816E-02  2.89588E+01 -1.00000E+00  1.54113E-01
      21    -1     0     0   502   501  0.000000000E+00  0.000000000E+00  8.582250164E+02  8.582250164E+02  0.000000000E+00  0.00000E+00  9.000E+00
      21    -1     0     0   512   502  0.000000000E+00  0.000000000E+00 -4.415128291E+02  4.415128291E+02  0.000000000E+00  0.00000E+00  9.000E+00
      25     1     1     2     0     0 -3.137544392E+02 -1.660348349E+02 -2.257624787E+02  4.388657099E+02  1.250000000E+02  0.00000E+00  9.000E+00
      25     1     1     2     0     0  3.421481910E+02  1.603420066E+02  6.950015352E+02  8.008914269E+02  1.250000000E+02  0.00000E+00  9.000E+00
      21     1     1     2   512   501 -2.839375178E+01  5.692828296E+00 -5.252686917E+01  5.998070872E+01  6.743495762E-07  0.00000E+00  9.000E+00
#rwgt            1           1   2.6961984021344219E-002           5      117348           0
</event>
<event>
      5   9999  3.19816E-02  5.37563E+01 -1.00000E+00  1.37304E-01
      21    -1     0     0   502   501  0.000000000E+00  0.000000000E+00  7.812543330E+02  7.812543330E+02  0.000000000E+00  0.00000E+00  9.000E+00
      21    -1     0     0   511   502  0.000000000E+00  0.000000000E+00 -3.227444539E+02  3.227444539E+02  0.000000000E+00  0.00000E+00  9.000E+00
      25     1     1     2     0     0 -1.772251411E+02  1.930672901E+01  6.236167908E+02  6.605334224E+02  1.250000000E+02  0.00000E+00  9.000E+00
      25     1     1     2     0     0  2.261880624E+02  2.882763469E+00  1.165638384E+01  2.587087574E+02  1.250000000E+02  0.00000E+00  9.000E+00
      21     1     1     2   511   501 -4.896292127E+01 -2.218949248E+01 -1.767632955E+02  1.847566071E+02  2.697398305E-06  0.00000E+00  9.000E+00
#rwgt            1           1   3.1110432096408326E-002           5      117533           0
</event>
<event>
      5   9999  3.19816E-02  4.81446E+01 -1.00000E+00  1.40019E-01
      21    -1     0     0   502   501  0.000000000E+00  0.000000000E+00  9.145917824E+01  9.145917824E+01  0.000000000E+00  0.00000E+00  9.000E+00
      21    -1     0     0   501   512  0.000000000E+00  0.000000000E+00 -1.104006215E+03  1.104006215E+03  0.000000000E+00  0.00000E+00  9.000E+00
      25     1     1     2     0     0 -1.763422011E+00 -7.357491722E+00  3.395108086E+01  1.297494441E+02  1.250000000E+02  0.00000E+00  9.000E+00
      25     1     1     2     0     0 -3.489299796E+01  3.856981417E+01 -9.277891128E+02  9.376154808E+02  1.250000000E+02  0.00000E+00  9.000E+00
      21     1     1     2   502   512  3.665641997E+01 -3.121232245E+01 -1.187090051E+02  1.281004687E+02  0.000000000E+00  0.00000E+00  9.000E+00
#rwgt            1           1   2.6927240116204575E-002           5      117604           0
</event>
<event>
      5   9999  3.19816E-02  1.55734E+02 -1.00000E+00  1.15752E-01
      21    -1     0     0   502   501  0.000000000E+00  0.000000000E+00  4.551280869E+02  4.551280869E+02  0.000000000E+00  0.00000E+00  9.000E+00
      21    -1     0     0   501   511  0.000000000E+00  0.000000000E+00 -5.242773014E+02  5.242773014E+02  0.000000000E+00  0.00000E+00  9.000E+00
      25     1     1     2     0     0  2.257303153E+02 -8.501814028E+01  2.663658717E+02  3.804708097E+02  1.250000000E+02  0.00000E+00  9.000E+00
      25     1     1     2     0     0 -2.157087751E+02 -7.039278001E+01 -3.625982627E+01  2.615820983E+02  1.250000000E+02  0.00000E+00  9.000E+00
      21     1     1     2   502   511 -1.002154015E+01  1.554109203E+02 -2.992552599E+02  3.373524804E+02  0.000000000E+00  0.00000E+00  9.000E+00
#rwgt            1           1   3.1347906947863623E-002           5      117695           0
</event>
<event>
      5   9999  3.19816E-02  4.06458E+01 -1.00000E+00  1.44410E-01
      -3    -1     0     0     0   501  0.000000000E+00  0.000000000E+00  4.938091788E+02  4.938091788E+02  0.000000000E+00  0.00000E+00  9.000E+00
      21    -1     0     0   501   502  0.000000000E+00  0.000000000E+00 -2.677921236E+02  2.677921236E+02  0.000000000E+00  0.00000E+00  9.000E+00
      25     1     1     2     0     0 -1.599528391E+02  1.832776108E+02 -5.390617751E+00  2.735500907E+02  1.250000000E+02  0.00000E+00  9.000E+00
      25     1     1     2     0     0  1.193912792E+02 -1.806628406E+02 -3.091252919E+00  2.500557845E+02  1.250000000E+02  0.00000E+00  9.000E+00
      -3     1     1     2     0   502  4.056155989E+01 -2.614770289E+00  2.344989258E+02  2.379954272E+02  0.000000000E+00  0.00000E+00  9.000E+00
#rwgt            1           1   2.6100843064930105E-002           5      117725           0
</event>
<event>
      5   9999  3.19816E-02  3.72119E+01 -1.00000E+00  1.46813E-01
      21    -1     0     0   502   501  0.000000000E+00  0.000000000E+00  2.616588585E+02  2.616588585E+02  0.000000000E+00  0.00000E+00  9.000E+00
      21    -1     0     0   501   511  0.000000000E+00  0.000000000E+00 -6.866715978E+02  6.866715978E+02  0.000000000E+00  0.00000E+00  9.000E+00
      25     1     1     2     0     0 -1.810611225E+02 -3.439188670E+02 -1.564028800E+02  4.372072483E+02  1.250000000E+02  0.00000E+00  9.000E+00
      25     1     1     2     0     0  1.440004547E+02  3.405678357E+02 -2.142697125E+02  4.452629463E+02  1.250000000E+02  0.00000E+00  9.000E+00
      21     1     1     2   502   511  3.706066774E+01  3.351031294E+00 -5.434014684E+01  6.586026164E+01  6.743495762E-07  0.00000E+00  9.000E+00
#rwgt            1           1   2.7728012650521598E-002           5      117847           0
</event>
<event>
      5   9999  3.19816E-02  3.27804E+01 -1.00000E+00  1.50414E-01
      21    -1     0     0   512   501  0.000000000E+00  0.000000000E+00  1.434496008E+02  1.434496008E+02  0.000000000E+00  0.00000E+00  9.000E+00
      21    -1     0     0   501   502  0.000000000E+00  0.000000000E+00 -4.968369514E+02  4.968369514E+02  0.000000000E+00  0.00000E+00  9.000E+00
      25     1     1     2     0     0  6.049765092E+01  1.165187792E+02 -2.449606895E+02  3.047414168E+02  1.250000000E+02  0.00000E+00  9.000E+00
      25     1     1     2     0     0 -3.038176719E+01 -1.035732721E+02 -1.875495600E+02  2.499006041E+02  1.250000000E+02  0.00000E+00  9.000E+00
      21     1     1     2   512   502 -3.011588373E+01 -1.294550713E+01  7.912289893E+01  8.564453130E+01  1.907348633E-06  0.00000E+00  9.000E+00
#rwgt            1           1   2.8010471596896503E-002           5      117967           0
</event>
<event>
      5   9999  3.19816E-02  2.06794E+01 -1.00000E+00  1.65181E-01
      21    -1     0     0   502   511  0.000000000E+00  0.000000000E+00  7.044848579E+02  7.044848579E+02  0.000000000E+00  0.00000E+00  9.000E+00
      21    -1     0     0   501   502  0.000000000E+00  0.000000000E+00 -2.580894175E+02  2.580894175E+02  0.000000000E+00  0.00000E+00  9.000E+00
      25     1     1     2     0     0  8.122337831E+00 -3.317906451E+02  2.791190274E+01  3.557458065E+02  1.250000000E+02  0.00000E+00  9.000E+00
      25     1     1     2     0     0 -3.151585254E+00  3.518637109E+02  2.798127235E+02  4.666242212E+02  1.250000000E+02  0.00000E+00  9.000E+00
      21     1     1     2   501   511 -4.970752577E+00 -2.007306588E+01  1.386708142E+02  1.402042477E+02  1.907348633E-06  0.00000E+00  9.000E+00
#rwgt            1           1   3.0812553185175742E-002           5      118033           0
</event>
<event>
      5   9999  3.19816E-02  2.48545E+01 -1.00000E+00  1.58941E-01
      21    -1     0     0   512   501  0.000000000E+00  0.000000000E+00  8.445895076E+02  8.445895076E+02  0.000000000E+00  0.00000E+00  9.000E+00
      21    -1     0     0   501   502  0.000000000E+00  0.000000000E+00 -7.945878494E+02  7.945878494E+02  0.000000000E+00  0.00000E+00  9.000E+00
      25     1     1     2     0     0 -3.489364232E+02  1.988569757E+02 -6.356370307E+02  7.622074252E+02  1.250000000E+02  0.00000E+00  9.000E+00
      25     1     1     2     0     0  3.718035936E+02 -1.891183522E+02  4.032749139E+02  5.935143802E+02  1.250000000E+02  0.00000E+00  9.000E+00
      21     1     1     2   512   502 -2.286717040E+01 -9.738623562E+00  2.823637750E+02  2.834555516E+02  5.394796609E-06  0.00000E+00  9.000E+00
#rwgt            1           1   2.9298367202440993E-002           5      118181           0
</event>
<event>
      5   9999  3.19816E-02  6.46033E+01 -1.00000E+00  1.33010E-01
      21    -1     0     0   502   511  0.000000000E+00  0.000000000E+00  2.019978540E+03  2.019978540E+03  0.000000000E+00  0.00000E+00  9.000E+00
      21    -1     0     0   501   502  0.000000000E+00  0.000000000E+00 -5.063050680E+02  5.063050680E+02  0.000000000E+00  0.00000E+00  9.000E+00
      25     1     1     2     0     0 -2.794745791E+01  6.338615943E+02  8.957142304E+00  6.467355035E+02  1.250000000E+02  0.00000E+00  9.000E+00
      25     1     1     2     0     0 -2.319320110E+01 -6.733358369E+02  4.432050749E+02  8.160727984E+02  1.250000000E+02  0.00000E+00  9.000E+00
      21     1     1     2   501   511  5.114065901E+01  3.947424261E+01  1.061511255E+03  1.063475306E+03  0.000000000E+00  0.00000E+00  9.000E+00
#rwgt            1           1   2.8849128179340829E-002           5      118290           0
</event>
<event>
      5   9999  3.19816E-02  4.98135E+02 -1.00000E+00  9.88981E-02
       3    -1     0     0   502     0  0.000000000E+00  0.000000000E+00  2.273840144E+03  2.273840144E+03  0.000000000E+00  0.00000E+00  9.000E+00
      21    -1     0     0   501   502  0.000000000E+00  0.000000000E+00 -3.546510531E+02  3.546510531E+02  0.000000000E+00  0.00000E+00  9.000E+00
      25     1     1     2     0     0  7.521954218E+01  2.939415155E+02  2.763019811E+02  4.289841242E+02  1.250000000E+02  0.00000E+00  9.000E+00
      25     1     1     2     0     0  3.455848233E+02 -5.605156633E+02  2.418458455E+02  7.125455016E+02  1.250000000E+02  0.00000E+00  9.000E+00
       3     1     1     2   501     0 -4.208043655E+02  2.665741479E+02  1.401041265E+03  1.486961572E+03  2.157918644E-05  0.00000E+00  9.000E+00
#rwgt            2          19   2.6681967189777155E-005           5      118449           0
</event>
<event>
      5   9999  3.19816E-02  1.05007E+02 -1.00000E+00  1.22881E-01
      21    -1     0     0   502   501  0.000000000E+00  0.000000000E+00  4.071207256E+02  4.071207256E+02  0.000000000E+00  0.00000E+00  9.000E+00
       5    -1     0     0   501     0  0.000000000E+00  0.000000000E+00 -6.528351543E+02  6.528351543E+02  0.000000000E+00  0.00000E+00  9.000E+00
      25     1     1     2     0     0 -3.640387978E+02 -6.223843631E+01  1.406064857E+02  4.144792553E+02  1.250000000E+02  0.00000E+00  9.000E+00
      25     1     1     2     0     0  3.381575248E+02 -3.952895119E+01 -3.995850844E+02  5.396353299E+02  1.250000000E+02  0.00000E+00  9.000E+00
       5     1     1     2   502     0  2.588127300E+01  1.017673875E+02  1.326417002E+01  1.058412947E+02  2.372234910E-06  0.00000E+00  9.000E+00
#rwgt            1           1   3.1108129506040878E-002           5      118483           0
</event>
<event>
      5   9999  3.19816E-02  1.83494E+01 -1.00000E+00  1.69516E-01
      21    -1     0     0   502   511  0.000000000E+00  0.000000000E+00  6.102502939E+01  6.102502939E+01  0.000000000E+00  0.00000E+00  9.000E+00
      21    -1     0     0   501   502  0.000000000E+00  0.000000000E+00 -1.530655487E+03  1.530655487E+03  0.000000000E+00  0.00000E+00  9.000E+00
      25     1     1     2     0     0  1.963914009E+02  1.186971183E+02 -1.039345844E+03  1.071691827E+03  1.250000000E+02  0.00000E+00  9.000E+00
      25     1     1     2     0     0 -2.108564445E+02 -1.074071657E+02 -4.223409840E+02  4.999936462E+02  1.250000000E+02  0.00000E+00  9.000E+00
      21     1     1     2   501   511  1.446504360E+01 -1.128995267E+01 -7.943629901E+00  1.999504373E+01  2.064765462E-07  0.00000E+00  9.000E+00
#rwgt            1           1   2.6961265689794466E-002           5      118547           0
</event>
<event>
      5   9999  3.19816E-02  3.64465E+01 -1.00000E+00  1.47391E-01
      21    -1     0     0   502   512  0.000000000E+00  0.000000000E+00  6.538818732E+02  6.538818732E+02  0.000000000E+00  0.00000E+00  9.000E+00
      21    -1     0     0   501   502  0.000000000E+00  0.000000000E+00 -1.592341703E+02  1.592341703E+02  0.000000000E+00  0.00000E+00  9.000E+00
      25     1     1     2     0     0 -4.964767608E+01 -2.359404565E+02  7.507327138E+01  2.817690310E+02  1.250000000E+02  0.00000E+00  9.000E+00
      25     1     1     2     0     0  8.433568404E+01  2.471246644E+02  3.761536842E+02  4.746574570E+02  1.250000000E+02  0.00000E+00  9.000E+00
      21     1     1     2   501   512 -3.468800796E+01 -1.118420792E+01  4.342074731E+01  5.668955547E+01  6.743495762E-07  0.00000E+00  9.000E+00
#rwgt            1           1   2.7304341424107599E-002           5      118771           0
</event>
<event>
      5   9999  3.19816E-02  4.12360E+01 -1.00000E+00  1.44025E-01
      21    -1     0     0   511   501  0.000000000E+00  0.000000000E+00  1.677401491E+03  1.677401491E+03  0.000000000E+00  0.00000E+00  9.000E+00
      21    -1     0     0   501   502  0.000000000E+00  0.000000000E+00 -1.372483620E+02  1.372483620E+02  0.000000000E+00  0.00000E+00  9.000E+00
      25     1     1     2     0     0 -1.763189619E+02 -5.472808476E+01 -2.126053925E+01  2.239655110E+02  1.250000000E+02  0.00000E+00  9.000E+00
      25     1     1     2     0     0  1.713198744E+02  9.565994866E+01  1.491341348E+03  1.509379124E+03  1.250000000E+02  0.00000E+00  9.000E+00
      21     1     1     2   511   502  4.999087514E+00 -4.093186389E+01  7.007232087E+01  8.130521822E+01  0.000000000E+00  0.00000E+00  9.000E+00
#rwgt            1           1   2.5439829576450863E-002           5      118860           0
</event>
<event>
      5   9999  3.19816E-02  3.28119E+01 -1.00000E+00  1.50386E-01
      21    -1     0     0   512   501  0.000000000E+00  0.000000000E+00  1.145858719E+02  1.145858719E+02  0.000000000E+00  0.00000E+00  9.000E+00
      21    -1     0     0   501   502  0.000000000E+00  0.000000000E+00 -1.181593588E+03  1.181593588E+03  0.000000000E+00  0.00000E+00  9.000E+00
      25     1     1     2     0     0 -2.852452125E+02  1.046811767E+02 -6.190425646E+02  7.008292780E+02  1.250000000E+02  0.00000E+00  9.000E+00
      25     1     1     2     0     0  3.157075916E+02 -1.168740146E+02 -4.047505936E+02  5.410904376E+02  1.250000000E+02  0.00000E+00  9.000E+00
      21     1     1     2   512   502 -3.046237910E+01  1.219283792E+01 -4.321455816E+01  5.425974451E+01  8.259061849E-07  0.00000E+00  9.000E+00
#rwgt            1           1   2.8258798435295111E-002           5      119007           0
</event>
<event>
      5   9999  3.19816E-02  1.01112E+01 -1.00000E+00  1.95204E-01
      21    -1     0     0   502   501  0.000000000E+00  0.000000000E+00  2.658174207E+02  2.658174207E+02  0.000000000E+00  0.00000E+00  9.000E+00
      21    -1     0     0   501   511  0.000000000E+00  0.000000000E+00 -2.612547564E+02  2.612547564E+02  0.000000000E+00  0.00000E+00  9.000E+00
      25     1     1     2     0     0 -8.434948995E+01 -1.740370371E+02 -3.973520705E+01  2.336827195E+02  1.250000000E+02  0.00000E+00  9.000E+00
      25     1     1     2     0     0  7.428190496E+01  1.730993809E+02  9.241105406E+01  2.442253058E+02  1.250000000E+02  0.00000E+00  9.000E+00
      21     1     1     2   502   511  1.006758499E+01  9.376561284E-01 -4.811318277E+01  4.916415180E+01  6.743495762E-07  0.00000E+00  9.000E+00
#rwgt            1           1   2.5200889117734396E-002           5      119095           0
</event>
<event>
      5   9999  3.19816E-02  2.38515E+01 -1.00000E+00  1.60296E-01
      21    -1     0     0   502   501  0.000000000E+00  0.000000000E+00  5.299667236E+02  5.299667236E+02  0.000000000E+00  0.00000E+00  9.000E+00
      21    -1     0     0   501   512  0.000000000E+00  0.000000000E+00 -1.906414663E+03  1.906414663E+03  0.000000000E+00  0.00000E+00  9.000E+00
      25     1     1     2     0     0  5.260841552E+02  3.288112297E+02 -1.509943130E+03  1.637203292E+03  1.250000000E+02  0.00000E+00  9.000E+00
      25     1     1     2     0     0 -5.317863192E+02 -3.519710724E+02  2.379426270E+02  6.920419199E+02  1.250000000E+02  0.00000E+00  9.000E+00
      21     1     1     2   502   512  5.702164009E+00  2.315984271E+01 -1.044474362E+02  1.071361747E+02  1.907348633E-06  0.00000E+00  9.000E+00
#rwgt            1           1   3.5020475196650289E-002           5      119343           0
</event>
<event>
      5   9999  3.19816E-02  1.49997E+01 -1.00000E+00  1.77385E-01
      21    -1     0     0   511   501  0.000000000E+00  0.000000000E+00  1.606520680E+02  1.606520680E+02  0.000000000E+00  0.00000E+00  9.000E+00
      21    -1     0     0   501   502  0.000000000E+00  0.000000000E+00 -9.656197576E+02  9.656197576E+02  0.000000000E+00  0.00000E+00  9.000E+00
      25     1     1     2     0     0 -5.280338496E+01 -4.641455784E+00 -6.167433120E+01  1.491256641E+02  1.250000000E+02  0.00000E+00  9.000E+00
      25     1     1     2     0     0  3.782287858E+01  5.399138688E+00 -8.547492424E+02  8.646854851E+02  1.250000000E+02  0.00000E+00  9.000E+00
      21     1     1     2   511   502  1.498050639E+01 -7.576829047E-01  1.114558840E+02  1.124606763E+02  1.907348633E-06  0.00000E+00  9.000E+00
#rwgt            1           1   2.4125576482931611E-002           5      119612           0
</event>
<event>
      5   9999  3.19816E-02  4.79243E+02 -1.00000E+00  9.93780E-02
      21    -1     0     0   502   501  0.000000000E+00  0.000000000E+00  1.225562497E+03  1.225562497E+03  0.000000000E+00  0.00000E+00  9.000E+00
       1    -1     0     0   501     0  0.000000000E+00  0.000000000E+00 -4.538231975E+02  4.538231975E+02  0.000000000E+00  0.00000E+00  9.000E+00
      25     1     1     2     0     0  2.831353348E+02  3.098683429E+01  2.300914454E+02  3.869016347E+02  1.250000000E+02  0.00000E+00  9.000E+00
      25     1     1     2     0     0 -1.568896211E+02 -4.933025209E+02  6.084835566E+02  8.086030974E+02  1.250000000E+02  0.00000E+00  9.000E+00
       1     1     1     2   502     0 -1.262457137E+02  4.623156866E+02 -6.683570279E+01  4.838809621E+02  4.955437110E-06  0.00000E+00  9.000E+00
#rwgt            2          12   2.8090969959224641E-004           5      119762           0
</event>
<event>
      5   9999  3.19816E-02  1.49207E+02 -1.00000E+00  1.16485E-01
      21    -1     0     0   502   511  0.000000000E+00  0.000000000E+00  8.581266943E+02  8.581266943E+02  0.000000000E+00  0.00000E+00  9.000E+00
      21    -1     0     0   501   502  0.000000000E+00  0.000000000E+00 -1.278559579E+02  1.278559579E+02  0.000000000E+00  0.00000E+00  9.000E+00
      25     1     1     2     0     0 -7.179103304E+01  7.193466969E+01  1.542455149E+02  2.230363827E+02  1.250000000E+02  0.00000E+00  9.000E+00
      25     1     1     2     0     0  7.169907415E+01  7.727254580E+01 -4.477037210E+00  1.635752042E+02  1.250000000E+02  0.00000E+00  9.000E+00
      21     1     1     2   501   511  9.195888284E-02 -1.492072155E+02  5.805022587E+02  5.993710654E+02  0.000000000E+00  0.00000E+00  9.000E+00
#rwgt            1           1   2.6673028103759617E-002           5      119781           0
</event>
<event>
      5   9999  3.19816E-02  1.05273E+01 -1.00000E+00  1.93212E-01
      21    -1     0     0   502   501  0.000000000E+00  0.000000000E+00  3.482897708E+02  3.482897708E+02  0.000000000E+00  0.00000E+00  9.000E+00
      21    -1     0     0   512   502  0.000000000E+00  0.000000000E+00 -3.503286257E+02  3.503286257E+02  0.000000000E+00  0.00000E+00  9.000E+00
      25     1     1     2     0     0 -1.033270566E+02 -2.945082113E+02  2.781314180E-01  3.362092273E+02  1.250000000E+02  0.00000E+00  9.000E+00
      25     1     1     2     0     0  1.010896186E+02  3.047950298E+02  1.180532107E+01  3.447948474E+02  1.250000000E+02  0.00000E+00  9.000E+00
      21     1     1     2   512   501  2.237438025E+00 -1.028681855E+01 -1.412230743E+01  1.761432178E+01  1.685873940E-07  0.00000E+00  9.000E+00
#rwgt            1           1   2.5769421858024170E-002           5      119839           0
</event>
<event>
      5   9999  3.19816E-02  7.09773E+01 -1.00000E+00  1.30916E-01
      21    -1     0     0   511   501  0.000000000E+00  0.000000000E+00  3.779346630E+02  3.779346630E+02  0.000000000E+00  0.00000E+00  9.000E+00
      21    -1     0     0   501   502  0.000000000E+00  0.000000000E+00 -1.709928635E+03  1.709928635E+03  0.000000000E+00  0.00000E+00  9.000E+00
      25     1     1     2     0     0 -4.224454705E+01 -6.577203496E+02 -9.285898695E+02  1.145550001E+03  1.250000000E+02  0.00000E+00  9.000E+00
      25     1     1     2     0     0  1.109853278E+02  6.400431944E+02 -4.951624550E+02  8.263073826E+02  1.250000000E+02  0.00000E+00  9.000E+00
      21     1     1     2   511   502 -6.874078075E+01  1.767715517E+01  9.175835270E+01  1.160059138E+02  1.907348633E-06  0.00000E+00  9.000E+00
#rwgt            1           1   3.0176729795328153E-002           5      120086           0
</event>
<event>
      5   9999  3.19816E-02  1.51747E+02 -1.00000E+00  1.16195E-01
      21    -1     0     0   502   512  0.000000000E+00  0.000000000E+00  4.010594948E+02  4.010594948E+02  0.000000000E+00  0.00000E+00  9.000E+00
      21    -1     0     0   501   502  0.000000000E+00  0.000000000E+00 -5.414888756E+02  5.414888756E+02  0.000000000E+00  0.00000E+00  9.000E+00
      25     1     1     2     0     0 -4.263705368E+00  4.915892134E+00 -2.538632294E+02  2.830439620E+02  1.250000000E+02  0.00000E+00  9.000E+00
      25     1     1     2     0     0  1.402584635E+02 -7.224033130E+01 -2.169456851E+02  2.959417719E+02  1.250000000E+02  0.00000E+00  9.000E+00
      21     1     1     2   501   512 -1.359947581E+02  6.732443916E+01  3.303795337E+02  3.635626365E+02  3.814697266E-06  0.00000E+00  9.000E+00
#rwgt            1           1   5.4467961358309495E-002           5      120207           0
</event>
<event>
      5   9999  3.19816E-02  1.59407E+02 -1.00000E+00  1.15356E-01
       2    -1     0     0   502     0  0.000000000E+00  0.000000000E+00  1.275795954E+03  1.275795954E+03  0.000000000E+00  0.00000E+00  9.000E+00
      21    -1     0     0   501   502  0.000000000E+00  0.000000000E+00 -5.465864922E+02  5.465864922E+02  0.000000000E+00  0.00000E+00  9.000E+00
      25     1     1     2     0     0  2.008405788E+02 -2.662481189E+02 -4.516827105E+02  5.752106309E+02  1.250000000E+02  0.00000E+00  9.000E+00
      25     1     1     2     0     0 -5.894879440E+01  1.936019321E+02  6.198981807E+02  6.639694443E+02  1.250000000E+02  0.00000E+00  9.000E+00
       2     1     1     2   501     0 -1.418917844E+02  7.264618678E+01  5.609939911E+02  5.832023705E+02  7.629394531E-06  0.00000E+00  9.000E+00
#rwgt            2          18   1.0108530671077694E-003           5      120275           0
</event>
<event>
      5   9999  3.19816E-02  3.48163E+02 -1.00000E+00  1.03533E-01
       2    -1     0     0   502     0  0.000000000E+00  0.000000000E+00  3.429160470E+03  3.429160470E+03  0.000000000E+00  0.00000E+00  9.000E+00
      21    -1     0     0   501   502  0.000000000E+00  0.000000000E+00 -2.769962797E+02  2.769962797E+02  0.000000000E+00  0.00000E+00  9.000E+00
      25     1     1     2     0     0 -6.389208679E+01  7.644220462E+02  9.033256202E+02  1.191656595E+03  1.250000000E+02  0.00000E+00  9.000E+00
      25     1     1     2     0     0  3.929463334E+02 -6.506648881E+02  1.419550344E+03  1.615091266E+03  1.250000000E+02  0.00000E+00  9.000E+00
       2     1     1     2   501     0 -3.290542466E+02 -1.137571581E+02  8.292882258E+02  8.994088890E+02  1.078959322E-05  0.00000E+00  9.000E+00
#rwgt            2          18   2.0338941157984902E-003           5      120369           0
</event>
<event>
      5   9999  3.19816E-02  1.40182E+02 -1.00000E+00  1.17571E-01
      21    -1     0     0   502   501  0.000000000E+00  0.000000000E+00  1.962242447E+03  1.962242447E+03  0.000000000E+00  0.00000E+00  9.000E+00
      21    -1     0     0   511   502  0.000000000E+00  0.000000000E+00 -2.401805893E+03  2.401805893E+03  0.000000000E+00  0.00000E+00  9.000E+00
      25     1     1     2     0     0  8.163365130E+02 -5.086628623E+02  4.626715659E+02  1.074631652E+03  1.250000000E+02  0.00000E+00  9.000E+00
      25     1     1     2     0     0 -7.423276034E+02  6.277161041E+02  9.893378934E+02  1.392656543E+03  1.250000000E+02  0.00000E+00  9.000E+00
      21     1     1     2   511   501 -7.400890956E+01 -1.190532418E+02 -1.891572905E+03  1.896760145E+03  2.157918644E-05  0.00000E+00  9.000E+00
#rwgt            1           1   4.1837060185552895E-002           5      120388           0
</event>
<event>
      5   9999  3.19816E-02  5.95129E+01 -1.00000E+00  1.34893E-01
      21    -1     0     0   502   512  0.000000000E+00  0.000000000E+00  2.261256204E+03  2.261256204E+03  0.000000000E+00  0.00000E+00  9.000E+00
      21    -1     0     0   501   502  0.000000000E+00  0.000000000E+00 -2.802360309E+02  2.802360309E+02  0.000000000E+00  0.00000E+00  9.000E+00
      25     1     1     2     0     0  3.455212383E+02 -4.516429552E+02  1.121372243E+03  1.263513748E+03  1.250000000E+02  0.00000E+00  9.000E+00
      25     1     1     2     0     0 -2.902020066E+02  4.296981780E+02  1.340665170E+02  5.499605075E+02  1.250000000E+02  0.00000E+00  9.000E+00
      21     1     1     2   501   512 -5.531923171E+01  2.194477713E+01  7.255814131E+02  7.280179789E+02  0.000000000E+00  0.00000E+00  9.000E+00
#rwgt            1           1   2.6325549943405094E-002           5      120480           0
</event>
<event>
      5   9999  3.19816E-02  2.73887E+01 -1.00000E+00  1.55839E-01
      21    -1     0     0   502   501  0.000000000E+00  0.000000000E+00  1.305270798E+03  1.305270798E+03  0.000000000E+00  0.00000E+00  9.000E+00
       3    -1     0     0   501     0  0.000000000E+00  0.000000000E+00 -7.540850077E+01  7.540850077E+01  0.000000000E+00  0.00000E+00  9.000E+00
      25     1     1     2     0     0 -3.609447448E+01  6.214727965E+01  7.219382420E+02  7.361962515E+02  1.250000000E+02  0.00000E+00  9.000E+00
      25     1     1     2     0     0  8.731831457E+00 -6.334136721E+01  5.644611503E+02  5.816612105E+02  1.250000000E+02  0.00000E+00  9.000E+00
       3     1     1     2   502     0  2.736264303E+01  1.194087558E+00 -5.653709494E+01  6.282183683E+01  0.000000000E+00  0.00000E+00  9.000E+00
#rwgt            1           1   3.2399024131879374E-002           5      120652           0
</event>
<event>
      5   9999  3.19816E-02  1.12814E+01 -1.00000E+00  1.89893E-01
      21    -1     0     0   502   511  0.000000000E+00  0.000000000E+00  5.731092088E+01  5.731092088E+01  0.000000000E+00  0.00000E+00  9.000E+00
      21    -1     0     0   501   502  0.000000000E+00  0.000000000E+00 -1.644417154E+03  1.644417154E+03  0.000000000E+00  0.00000E+00  9.000E+00
      25     1     1     2     0     0  2.157280102E+02 -1.209643604E+02 -7.695634093E+02  8.179387458E+02  1.250000000E+02  0.00000E+00  9.000E+00
      25     1     1     2     0     0 -2.229318129E+02  1.122824951E+02 -8.245391212E+02  8.705146261E+02  1.250000000E+02  0.00000E+00  9.000E+00
      21     1     1     2   501   511  7.203802685E+00  8.681865247E+00  6.996297512E+00  1.327470287E+01  6.474721725E-07  0.00000E+00  9.000E+00
#rwgt            1           1   3.1303705578362651E-002           5      120791           0
</event>
<event>
      5   9999  3.19816E-02  2.21672E+02 -1.00000E+00  1.10045E-01
       1    -1     0     0   502     0  0.000000000E+00  0.000000000E+00  6.106917599E+02  6.106917599E+02  0.000000000E+00  0.00000E+00  9.000E+00
      21    -1     0     0   501   502  0.000000000E+00  0.000000000E+00 -3.759940286E+02  3.759940286E+02  0.000000000E+00  0.00000E+00  9.000E+00
      25     1     1     2     0     0  9.494161148E+01  1.931374311E+02  7.649089481E+01  2.603686499E+02  1.250000000E+02  0.00000E+00  9.000E+00
      25     1     1     2     0     0  1.152462139E+02 -1.227141536E+02 -2.098558332E+02  2.966562389E+02  1.250000000E+02  0.00000E+00  9.000E+00
       1     1     1     2   501     0 -2.101878254E+02 -7.042327750E+01  3.680626696E+02  4.296608997E+02  5.394796609E-06  0.00000E+00  9.000E+00
#rwgt            1           1   2.8352715959046086E-002           5      120992           0
</event>
<event>
      5   9999  3.19816E-02  3.63936E+02 -1.00000E+00  1.02936E-01
      21    -1     0     0   502   511  0.000000000E+00  0.000000000E+00  7.235391699E+02  7.235391699E+02  0.000000000E+00  0.00000E+00  9.000E+00
      21    -1     0     0   501   502  0.000000000E+00  0.000000000E+00 -4.711679420E+02  4.711679420E+02  0.000000000E+00  0.00000E+00  9.000E+00
      25     1     1     2     0     0 -1.920351440E+02 -3.264712587E+02  1.098767124E+02  4.137135134E+02  1.250000000E+02  0.00000E+00  9.000E+00
      25     1     1     2     0     0  3.817834918E+02  1.591564857E+01  4.729995960E+01  4.048138198E+02  1.250000000E+02  0.00000E+00  9.000E+00
      21     1     1     2   501   511 -1.897483479E+02  3.105556101E+02  9.519455593E+01  3.761797788E+02  5.878843310E-06  0.00000E+00  9.000E+00
#rwgt            1           1   2.9752223500328741E-002           5      121045           0
</event>
<event>
      5   9999  3.19816E-02  1.96055E+01 -1.00000E+00  1.67086E-01
      21    -1     0     0   502   501  0.000000000E+00  0.000000000E+00  7.417974657E+02  7.417974657E+02  0.000000000E+00  0.00000E+00  9.000E+00
       2    -1     0     0   501     0  0.000000000E+00  0.000000000E+00 -1.756039443E+03  1.756039443E+03  0.000000000E+00  0.00000E+00  9.000E+00
      25     1     1     2     0     0  7.159845485E+02  5.487328989E+02 -3.437002126E+02  9.733943210E+02  1.250000000E+02  0.00000E+00  9.000E+00
      25     1     1     2     0     0 -6.966773994E+02 -5.453257760E+02 -4.085013691E+01  8.944458253E+02  1.250000000E+02  0.00000E+00  9.000E+00
       2     1     1     2   502     0 -1.930714911E+01 -3.407122898E+00 -6.296916282E+02  6.299967628E+02  1.078959322E-05  0.00000E+00  9.000E+00
#rwgt            1           1   3.2996989265195065E-002           5      121134           0
</event>
<event>
      5   9999  3.19816E-02  1.28728E+01 -1.00000E+00  1.83878E-01
      21    -1     0     0   511   501  0.000000000E+00  0.000000000E+00  4.032524210E+02  4.032524210E+02  0.000000000E+00  0.00000E+00  9.000E+00
      21    -1     0     0   501   502  0.000000000E+00  0.000000000E+00 -2.141809729E+02  2.141809729E+02  0.000000000E+00  0.00000E+00  9.000E+00
      25     1     1     2     0     0  4.176607628E+01  9.924815619E+01 -1.547912866E+02  2.262298478E+02  1.250000000E+02  0.00000E+00  9.000E+00
      25     1     1     2     0     0 -4.405780143E+01 -1.119152761E+02  3.151411160E+02  3.597291230E+02  1.250000000E+02  0.00000E+00  9.000E+00
      21     1     1     2   511   502  2.291725153E+00  1.266711995E+01  2.872161864E+01  3.147442310E+01  3.371747881E-07  0.00000E+00  9.000E+00
#rwgt            1           1   2.8337518118986965E-002           5      121365           0
</event>
<event>
      5   9999  3.19816E-02  1.16803E+03 -1.00000E+00  8.94007E-02
      21    -1     0     0   502   501  0.000000000E+00  0.000000000E+00  1.020747373E+03  1.020747373E+03  0.000000000E+00  0.00000E+00  9.000E+00
       2    -1     0     0   501     0  0.000000000E+00  0.000000000E+00 -2.640713516E+03  2.640713516E+03  0.000000000E+00  0.00000E+00  9.000E+00
      25     1     1     2     0     0  4.515006107E+02 -1.868233423E+02 -4.817800240E+02  6.974903255E+02  1.250000000E+02  0.00000E+00  9.000E+00
      25     1     1     2     0     0 -1.402077771E+03 -4.919217615E+02 -2.864703749E+02  1.518387095E+03  1.250000000E+02  0.00000E+00  9.000E+00
       2     1     1     2   502     0  9.505771602E+02  6.787451038E+02 -8.517157443E+02  1.445583468E+03  1.078959322E-05  0.00000E+00  9.000E+00
#rwgt            2          13   6.3662779842598490E-004           5      121652           0
</event>
<event>
      5   9999  3.19816E-02  1.05534E+02 -1.00000E+00  1.22785E-01
       5    -1     0     0   502     0  0.000000000E+00  0.000000000E+00  5.470906027E+02  5.470906027E+02  0.000000000E+00  0.00000E+00  9.000E+00
      21    -1     0     0   501   502  0.000000000E+00  0.000000000E+00 -1.653325187E+02  1.653325187E+02  0.000000000E+00  0.00000E+00  9.000E+00
      25     1     1     2     0     0  1.237161770E+02  1.445205509E+02  6.517724750E+01  2.367803954E+02  1.250000000E+02  0.00000E+00  9.000E+00
      25     1     1     2     0     0 -4.230907564E+01 -2.116790647E+02  2.233777562E+02  3.348443015E+02  1.250000000E+02  0.00000E+00  9.000E+00
       5     1     1     2   501     0 -8.140710134E+01  6.715851380E+01  9.320308038E+01  1.407984244E+02  1.348699152E-06  0.00000E+00  9.000E+00
#rwgt            1           1   2.7811174429545837E-002           5      121701           0
</event>
<event>
      5   9999  3.19816E-02  1.02421E+02 -1.00000E+00  1.23363E-01
      21    -1     0     0   502   501  0.000000000E+00  0.000000000E+00  1.557183070E+03  1.557183070E+03  0.000000000E+00  0.00000E+00  9.000E+00
      21    -1     0     0   511   502  0.000000000E+00  0.000000000E+00 -1.694645294E+03  1.694645294E+03  0.000000000E+00  0.00000E+00  9.000E+00
      25     1     1     2     0     0 -2.650824556E+02  2.745315756E+01  3.306739324E+02  4.427105529E+02  1.250000000E+02  0.00000E+00  9.000E+00
      25     1     1     2     0     0  3.661078882E+02 -4.430016688E+01  1.136428477E+03  1.201287715E+03  1.250000000E+02  0.00000E+00  9.000E+00
      21     1     1     2   511   501 -1.010254326E+02  1.684700932E+01 -1.604564633E+03  1.607830097E+03  0.000000000E+00  0.00000E+00  9.000E+00
#rwgt            1           1   2.8093233945917402E-002           5      121841           0
</event>
<event>
      5   9999  3.19816E-02  3.30483E+01 -1.00000E+00  1.50177E-01
      21    -1     0     0   502   501  0.000000000E+00  0.000000000E+00  4.915489070E+01  4.915489070E+01  0.000000000E+00  0.00000E+00  9.000E+00
      21    -1     0     0   512   502  0.000000000E+00  0.000000000E+00 -9.382524841E+02  9.382524841E+02  0.000000000E+00  0.00000E+00  9.000E+00
      25     1     1     2     0     0 -2.023895780E+00 -1.188660143E+02 -4.681326707E+02  4.989052243E+02  1.250000000E+02  0.00000E+00  9.000E+00
      25     1     1     2     0     0 -3.097996658E+01  1.205791503E+02 -2.069117180E+02  2.719127597E+02  1.250000000E+02  0.00000E+00  9.000E+00
      21     1     1     2   512   501  3.300386236E+01 -1.713136043E+00 -2.140532048E+02  2.165893909E+02  3.814697266E-06  0.00000E+00  9.000E+00
#rwgt            1           1   2.7603174823783945E-002           5      121966           0
</event>
<event>
      5   9999  3.19816E-02  2.53936E+01 -1.00000E+00  1.58244E-01
      21    -1     0     0   511   501  0.000000000E+00  0.000000000E+00  2.144188098E+03  2.144188098E+03  0.000000000E+00  0.00000E+00  9.000E+00
      21    -1     0     0   501   502  0.000000000E+00  0.000000000E+00 -8.389026203E+01  8.389026203E+01  0.000000000E+00  0.00000E+00  9.000E+00
      25     1     1     2     0     0 -1.058378650E+02  2.195131197E+02  2.035220840E+02  3.412241229E+02  1.250000000E+02  0.00000E+00  9.000E+00
      25     1     1     2     0     0  1.047616307E+02 -2.448839146E+02  1.464827662E+03  1.494084405E+03  1.250000000E+02  0.00000E+00  9.000E+00
      21     1     1     2   511   502  1.076234245E+00  2.537079486E+01  3.919480899E+02  3.927698317E+02  7.629394531E-06  0.00000E+00  9.000E+00
#rwgt            1           1   2.5139997307271712E-002           5      122056           0
</event>
<event>
      5   9999  3.19816E-02  1.24105E+02 -1.00000E+00  1.19751E-01
       2    -1     0     0   502     0  0.000000000E+00  0.000000000E+00  2.222845068E+03  2.222845068E+03  0.000000000E+00  0.00000E+00  9.000E+00
      21    -1     0     0   501   502  0.000000000E+00  0.000000000E+00 -7.035919663E+01  7.035919663E+01  0.000000000E+00  0.00000E+00  9.000E+00
      25     1     1     2     0     0 -7.332909757E-01 -2.985771909E+02  1.038045537E+03  1.087341903E+03  1.250000000E+02  0.00000E+00  9.000E+00
      25     1     1     2     0     0  1.123853491E+02  2.443927998E+02  5.204192366E+02  5.990154331E+02  1.250000000E+02  0.00000E+00  9.000E+00
       2     1     1     2   501     0 -1.116520582E+02  5.418439105E+01  5.940210975E+02  6.068469285E+02  1.078959322E-05  0.00000E+00  9.000E+00
#rwgt            1           1   2.6009519334685052E-002           5      122232           0
</event>
<event>
      5   9999  3.19816E-02  9.38146E+01 -1.00000E+00  1.25088E-01
      21    -1     0     0   502   511  0.000000000E+00  0.000000000E+00  1.792920961E+02  1.792920961E+02  0.000000000E+00  0.00000E+00  9.000E+00
      21    -1     0     0   501   502  0.000000000E+00  0.000000000E+00 -4.646188940E+02  4.646188940E+02  0.000000000E+00  0.00000E+00  9.000E+00
      25     1     1     2     0     0  1.387964006E+02  2.612283011E+01 -1.337064302E+02  2.311909439E+02  1.250000000E+02  0.00000E+00  9.000E+00
      25     1     1     2     0     0 -1.926793885E+02  5.067426929E+01 -1.985710630E+02  3.078127602E+02  1.250000000E+02  0.00000E+00  9.000E+00
      21     1     1     2   501   511  5.388298787E+01 -7.679709940E+01  4.695069528E+01  1.049072860E+02  0.000000000E+00  0.00000E+00  9.000E+00
#rwgt            1           1   3.1039114683876937E-002           5      122287           0
</event>
<event>
      5   9999  3.19816E-02  1.13758E+02 -1.00000E+00  1.21361E-01
      21    -1     0     0   502   501  0.000000000E+00  0.000000000E+00  1.139094826E+03  1.139094826E+03  0.000000000E+00  0.00000E+00  9.000E+00
      21    -1     0     0   501   512  0.000000000E+00  0.000000000E+00 -2.349484714E+02  2.349484714E+02  0.000000000E+00  0.00000E+00  9.000E+00
      25     1     1     2     0     0  1.249372262E+02  3.047633764E+02  1.513739959E+02  3.834437544E+02  1.250000000E+02  0.00000E+00  9.000E+00
      25     1     1     2     0     0 -1.646086438E+02 -4.113800851E+02  7.460193577E+02  8.766410110E+02  1.250000000E+02  0.00000E+00  9.000E+00
      21     1     1     2   502   512  3.967141755E+01  1.066167086E+02  6.753000701E+00  1.139585317E+02  2.619893667E-06  0.00000E+00  9.000E+00
#rwgt            2          11   4.3881165912023259E-003           5      122466           0
</event>
<event>
      5   9999  3.19816E-02  1.44414E+02 -1.00000E+00  1.17051E-01
      21    -1     0     0   502   501  0.000000000E+00  0.000000000E+00  1.198862608E+03  1.198862608E+03  0.000000000E+00  0.00000E+00  9.000E+00
      21    -1     0     0   511   502  0.000000000E+00  0.000000000E+00 -4.091535949E+02  4.091535949E+02  0.000000000E+00  0.00000E+00  9.000E+00
      25     1     1     2     0     0  4.387999922E+01 -3.598768336E+02  8.567798229E+02  9.386870909E+02  1.250000000E+02  0.00000E+00  9.000E+00
      25     1     1     2     0     0  1.002434186E+02  3.690279367E+02  1.319814752E+02  4.234081610E+02  1.250000000E+02  0.00000E+00  9.000E+00
      21     1     1     2   511   501 -1.441234178E+02 -9.151103012E+00 -1.990522847E+02  2.459209513E+02  2.697398305E-06  0.00000E+00  9.000E+00
#rwgt            2          11   4.3172253255272875E-003           5      122666           0
</event>
<event>
      5   9999  3.19816E-02  6.93775E+01 -1.00000E+00  1.31417E-01
      21    -1     0     0   502   501  0.000000000E+00  0.000000000E+00  3.908947157E+02  3.908947157E+02  0.000000000E+00  0.00000E+00  9.000E+00
       2    -1     0     0   501     0  0.000000000E+00  0.000000000E+00 -1.318473783E+03  1.318473783E+03  0.000000000E+00  0.00000E+00  9.000E+00
      25     1     1     2     0     0 -2.603091907E+01 -3.553161543E+02  2.161110242E+02  4.350358066E+02  1.250000000E+02  0.00000E+00  9.000E+00
      25     1     1     2     0     0  9.540812374E+01  3.555215308E+02 -5.329557534E+02  6.596704511E+02  1.250000000E+02  0.00000E+00  9.000E+00
       2     1     1     2   502     0 -6.937720468E+01 -2.053765109E-01 -6.107343384E+02  6.146622413E+02  7.629394531E-06  0.00000E+00  9.000E+00
#rwgt            1           1   3.3249142305242105E-002           5      122701           0
</event>
<event>
      5   9999  3.19816E-02  2.97473E+02 -1.00000E+00  1.05711E-01
      21    -1     0     0   502   501  0.000000000E+00  0.000000000E+00  7.755018710E+02  7.755018710E+02  0.000000000E+00  0.00000E+00  9.000E+00
      21    -1     0     0   501   511  0.000000000E+00  0.000000000E+00 -1.734501584E+03  1.734501584E+03  0.000000000E+00  0.00000E+00  9.000E+00
      25     1     1     2     0     0  4.980052143E+02  4.981137918E+02  4.707000286E+02  8.563352497E+02  1.250000000E+02  0.00000E+00  9.000E+00
      25     1     1     2     0     0 -2.018938835E+02 -4.696826213E+02 -8.052754129E+02  9.620064426E+02  1.250000000E+02  0.00000E+00  9.000E+00
      21     1     1     2   502   511 -2.961113308E+02 -2.843117052E+01 -6.244243289E+02  6.916617629E+02  0.000000000E+00  0.00000E+00  9.000E+00
#rwgt            2          11   2.7463151574110118E-003           5      122798           0
</event>
<event>
      5   9999  3.19816E-02  4.39662E+01 -1.00000E+00  1.42339E-01
      21    -1     0     0   502   501  0.000000000E+00  0.000000000E+00  8.396865731E+02  8.396865731E+02  0.000000000E+00  0.00000E+00  9.000E+00
      21    -1     0     0   512   502  0.000000000E+00  0.000000000E+00 -1.378072405E+02  1.378072405E+02  0.000000000E+00  0.00000E+00  9.000E+00
      25     1     1     2     0     0 -1.650608433E+02  1.045359939E+02  1.252074680E+02  2.635806633E+02  1.250000000E+02  0.00000E+00  9.000E+00
      25     1     1     2     0     0  1.334435026E+02 -1.350871330E+02  6.149460130E+02  6.556213089E+02  1.250000000E+02  0.00000E+00  9.000E+00
      21     1     1     2   512   501  3.161734079E+01  3.055113910E+01 -3.827414834E+01  5.829184136E+01  1.066240300E-06  0.00000E+00  9.000E+00
#rwgt            1           1   2.9828493576299978E-002           5      122848           0
</event>
<event>
      5   9999  3.19816E-02  4.57914E+01 -1.00000E+00  1.41290E-01
      21    -1     0     0   511   501  0.000000000E+00  0.000000000E+00  1.196128561E+03  1.196128561E+03  0.000000000E+00  0.00000E+00  9.000E+00
      21    -1     0     0   501   502  0.000000000E+00  0.000000000E+00 -6.039994733E+02  6.039994733E+02  0.000000000E+00  0.00000E+00  9.000E+00
      25     1     1     2     0     0  7.559202508E+02  2.742641003E+02  5.053803352E+02  9.579512021E+02  1.250000000E+02  0.00000E+00  9.000E+00
      25     1     1     2     0     0 -7.116622010E+02 -2.860147745E+02  4.213713947E+01  7.782467976E+02  1.250000000E+02  0.00000E+00  9.000E+00
      21     1     1     2   511   502 -4.425804988E+01  1.175067422E+01  4.461161351E+01  6.393003507E+01  6.743495762E-07  0.00000E+00  9.000E+00
#rwgt            1           1   2.9807464901804775E-002           5      122927           0
</event>
<event>
      5   9999  3.19816E-02  3.98624E+01 -1.00000E+00  1.44933E-01
      21    -1     0     0   502   501  0.000000000E+00  0.000000000E+00  7.179906868E+01  7.179906868E+01  0.000000000E+00  0.00000E+00  9.000E+00
      21    -1     0     0   501   512  0.000000000E+00  0.000000000E+00 -5.161165461E+02  5.161165461E+02  0.000000000E+00  0.00000E+00  9.000E+00
      25     1     1     2     0     0 -7.201752568E+01  5.203282168E+01 -1.731068589E+02  2.312680763E+02  1.250000000E+02  0.00000E+00  9.000E+00
      25     1     1     2     0     0  9.254764341E+01 -8.620185392E+01 -1.626105288E+02  2.409626735E+02  1.250000000E+02  0.00000E+00  9.000E+00
      21     1     1     2   502   512 -2.053011773E+01  3.416903223E+01 -1.086000897E+02  1.156848650E+02  1.348699152E-06  0.00000E+00  9.000E+00
#rwgt            1           1   2.9784122002787849E-002           5      123062           0
</event>
<event>
      5   9999  3.19816E-02  1.53321E+02 -1.00000E+00  1.16018E-01
      21    -1     0     0   502   501  0.000000000E+00  0.000000000E+00  6.916015295E+02  6.916015295E+02  0.000000000E+00  0.00000E+00  9.000E+00
       2    -1     0     0   501     0  0.000000000E+00  0.000000000E+00 -1.389541430E+03  1.389541430E+03  0.000000000E+00  0.00000E+00  9.000E+00
      25     1     1     2     0     0  7.192995284E+02 -4.656054038E+02 -1.583922230E+02  8.802802394E+02  1.250000000E+02  0.00000E+00  9.000E+00
      25     1     1     2     0     0 -5.739826755E+02  4.167133236E+02 -8.993051867E+01  7.258227084E+02  1.250000000E+02  0.00000E+00  9.000E+00
       2     1     1     2   502     0 -1.453168529E+02  4.889208015E+01 -4.496171588E+02  4.750400117E+02  7.629394531E-06  0.00000E+00  9.000E+00
#rwgt            1           1   2.7666760116803107E-002           5      123142           0
</event>
<event>
      5   9999  3.19816E-02  1.93231E+01 -1.00000E+00  1.67612E-01
      21    -1     0     0   511   501  0.000000000E+00  0.000000000E+00  1.661124699E+01  1.661124699E+01  0.000000000E+00  0.00000E+00  9.000E+00
      21    -1     0     0   501   502  0.000000000E+00  0.000000000E+00 -2.034373420E+03  2.034373420E+03  0.000000000E+00  0.00000E+00  9.000E+00
      25     1     1     2     0     0 -3.651405139E+01 -8.120478076E+01 -1.374690287E+03  1.383230233E+03  1.250000000E+02  0.00000E+00  9.000E+00
      25     1     1     2     0     0  5.567437568E+01  8.370753547E+01 -5.653769798E+02  5.876927062E+02  1.250000000E+02  0.00000E+00  9.000E+00
      21     1     1     2   511   502 -1.916032429E+01 -2.502754716E+00 -7.769490667E+01  8.006172825E+01  9.536743164E-07  0.00000E+00  9.000E+00
#rwgt            1           1   9.0172680494507787E-002           5      123211           0
</event>
<event>
      5   9999  3.19816E-02  9.95698E+01 -1.00000E+00  1.23912E-01
      21    -1     0     0   502   501  0.000000000E+00  0.000000000E+00  1.020103412E+03  1.020103412E+03  0.000000000E+00  0.00000E+00  9.000E+00
      21    -1     0     0   512   502  0.000000000E+00  0.000000000E+00 -6.981313028E+01  6.981313028E+01  0.000000000E+00  0.00000E+00  9.000E+00
      25     1     1     2     0     0 -6.844699808E+01  4.304130900E+01  6.541741263E+02  6.708996447E+02  1.250000000E+02  0.00000E+00  9.000E+00
      25     1     1     2     0     0  4.564415092E+01 -1.399649071E+02  1.626067946E+02  2.524668956E+02  1.250000000E+02  0.00000E+00  9.000E+00
      21     1     1     2   512   501  2.280284716E+01  9.692359808E+01  1.335093606E+02  1.665500017E+02  3.303624740E-06  0.00000E+00  9.000E+00
#rwgt            1           1   2.5579999031681667E-002           5      123335           0
</event>
<event>
      5   9999  3.19816E-02  3.77737E+02 -1.00000E+00  1.02439E-01
       2    -1     0     0   502     0  0.000000000E+00  0.000000000E+00  2.213853263E+03  2.213853263E+03  0.000000000E+00  0.00000E+00  9.000E+00
      21    -1     0     0   501   502  0.000000000E+00  0.000000000E+00 -3.622218314E+02  3.622218314E+02  0.000000000E+00  0.00000E+00  9.000E+00
      25     1     1     2     0     0 -3.067339931E+02  6.821671643E+02  1.109390327E+03  1.343804182E+03  1.250000000E+02  0.00000E+00  9.000E+00
      25     1     1     2     0     0  3.510387885E+02 -3.070373911E+02  7.025309852E+02  8.524523304E+02  1.250000000E+02  0.00000E+00  9.000E+00
       2     1     1     2   501     0 -4.430479538E+01 -3.751297732E+02  3.971011978E+01  3.798185820E+02  9.933789566E-06  0.00000E+00  9.000E+00
#rwgt            1           1   2.8923408189304448E-002           5      123393           0
</event>
<event>
      5   9999  3.19816E-02  6.22888E+01 -1.00000E+00  1.33840E-01
      21    -1     0     0   502   511  0.000000000E+00  0.000000000E+00  2.679974373E+02  2.679974373E+02  0.000000000E+00  0.00000E+00  9.000E+00
      21    -1     0     0   501   502  0.000000000E+00  0.000000000E+00 -2.290152044E+02  2.290152044E+02  0.000000000E+00  0.00000E+00  9.000E+00
      25     1     1     2     0     0  9.097035964E+01  1.671491446E+01 -1.087927563E+02  1.897784459E+02  1.250000000E+02  0.00000E+00  9.000E+00
      25     1     1     2     0     0 -1.444400157E+02 -4.866631969E+01  7.369098548E+01  2.104440309E+02  1.250000000E+02  0.00000E+00  9.000E+00
      21     1     1     2   501   511  5.346965604E+01  3.195140524E+01  7.408400370E+01  9.679016488E+01  9.536743164E-07  0.00000E+00  9.000E+00
#rwgt            1           1   3.0188717380869087E-002           5      123455           0
</event>
<event>
      5   9999  3.19816E-02  2.91874E+01 -1.00000E+00  1.53873E-01
      21    -1     0     0   512   501  0.000000000E+00  0.000000000E+00  2.824391902E+02  2.824391902E+02  0.000000000E+00  0.00000E+00  9.000E+00
      21    -1     0     0   501   502  0.000000000E+00  0.000000000E+00 -3.189927188E+02  3.189927188E+02  0.000000000E+00  0.00000E+00  9.000E+00
      25     1     1     2     0     0 -2.810472058E+01 -1.484476599E+02  1.610124611E+02  2.537254337E+02  1.250000000E+02  0.00000E+00  9.000E+00
      25     1     1     2     0     0  8.695172951E-01  1.589427966E+02 -2.285352310E+02  3.051506520E+02  1.250000000E+02  0.00000E+00  9.000E+00
      21     1     1     2   512   502  2.723520328E+01 -1.049513666E+01  3.096924131E+01  4.255582332E+01  3.371747881E-07  0.00000E+00  9.000E+00
#rwgt            1           1   3.2901305100179211E-002           5      123557           0
</event>
<event>
      5   9999  3.19816E-02  1.53601E+02 -1.00000E+00  1.15987E-01
      21    -1     0     0   502   501  0.000000000E+00  0.000000000E+00  2.455811171E+03  2.455811171E+03  0.000000000E+00  0.00000E+00  9.000E+00
      21    -1     0     0   511   502  0.000000000E+00  0.000000000E+00 -2.144011225E+03  2.144011225E+03  0.000000000E+00  0.00000E+00  9.000E+00
      25     1     1     2     0     0  1.258817676E+03  1.532933265E+03 -4.008190732E+02  2.027507649E+03  1.250000000E+02  0.00000E+00  9.000E+00
      25     1     1     2     0     0 -1.105275848E+03 -1.528677848E+03  1.077773928E+03  2.176169181E+03  1.250000000E+02  0.00000E+00  9.000E+00
      21     1     1     2   511   501 -1.535418281E+02 -4.255417634E+00 -3.651549094E+02  3.961455660E+02  5.394796609E-06  0.00000E+00  9.000E+00
#rwgt            1           1   1.3126004612559739E-002           5      123692           0
</event>
<event>
      5   9999  3.19816E-02  7.29225E+01 -1.00000E+00  1.30327E-01
      21    -1     0     0   502   501  0.000000000E+00  0.000000000E+00  1.189929575E+03  1.189929575E+03  0.000000000E+00  0.00000E+00  9.000E+00
      21    -1     0     0   512   502  0.000000000E+00  0.000000000E+00 -4.182299258E+02  4.182299258E+02  0.000000000E+00  0.00000E+00  9.000E+00
      25     1     1     2     0     0 -8.271544681E+01 -5.805582243E+02  3.694147224E+02  7.042598484E+02  1.250000000E+02  0.00000E+00  9.000E+00
      25     1     1     2     0     0  8.692214886E+01  6.533593196E+02  4.578582713E+02  8.122149082E+02  1.250000000E+02  0.00000E+00  9.000E+00
      21     1     1     2   512   501 -4.206702043E+00 -7.280109532E+01 -5.557334410E+01  9.168474462E+01  2.236564522E-06  0.00000E+00  9.000E+00
#rwgt            1           1   3.0737247097298456E-002           5      123781           0
</event>
<event>
      5   9999  3.19816E-02  3.78512E+01 -1.00000E+00  1.46343E-01
      21    -1     0     0   511   501  0.000000000E+00  0.000000000E+00  1.154082989E+03  1.154082989E+03  0.000000000E+00  0.00000E+00  9.000E+00
      21    -1     0     0   501   502  0.000000000E+00  0.000000000E+00 -5.933147270E+02  5.933147270E+02  0.000000000E+00  0.00000E+00  9.000E+00
      25     1     1     2     0     0 -6.541024346E+02 -8.470584242E+01  6.147359330E+02  9.102474070E+02  1.250000000E+02  0.00000E+00  9.000E+00
      25     1     1     2     0     0  6.222495456E+02  1.051535694E+02 -2.098851115E+02  6.767041674E+02  1.250000000E+02  0.00000E+00  9.000E+00
      21     1     1     2   511   502  3.185288898E+01 -2.044772700E+01  1.559174408E+02  1.604461418E+02  0.000000000E+00  0.00000E+00  9.000E+00
#rwgt            1           1   3.0838433720618182E-002           5      123911           0
</event>
<event>
      5   9999  3.19816E-02  1.03397E+02 -1.00000E+00  1.23179E-01
      21    -1     0     0   502   501  0.000000000E+00  0.000000000E+00  2.113782233E+02  2.113782233E+02  0.000000000E+00  0.00000E+00  9.000E+00
      -2    -1     0     0     0   502  0.000000000E+00  0.000000000E+00 -2.721361721E+02  2.721361721E+02  0.000000000E+00  0.00000E+00  9.000E+00
      25     1     1     2     0     0 -3.937460560E+01  9.031803178E+01 -1.660928888E+02  2.300425051E+02  1.250000000E+02  0.00000E+00  9.000E+00
      25     1     1     2     0     0  1.992817703E+01  1.123333530E+01  5.484291211E+01  1.384054373E+02  1.250000000E+02  0.00000E+00  9.000E+00
      -2     1     1     2     0   501  1.944642857E+01 -1.015513671E+02  5.049202792E+01  1.150664531E+02  6.743495762E-07  0.00000E+00  9.000E+00
#rwgt            1           1   3.3634730419014713E-002           5      124114           0
</event>
<event>
      5   9999  3.19816E-02  1.69760E+02 -1.00000E+00  1.14303E-01
      21    -1     0     0   502   501  0.000000000E+00  0.000000000E+00  3.338561700E+02  3.338561700E+02  0.000000000E+00  0.00000E+00  9.000E+00
      21    -1     0     0   501   511  0.000000000E+00  0.000000000E+00 -7.945606463E+02  7.945606463E+02  0.000000000E+00  0.00000E+00  9.000E+00
      25     1     1     2     0     0 -1.030025189E+02  1.735370132E+02  6.137091534E+01  2.451856503E+02  1.250000000E+02  0.00000E+00  9.000E+00
      25     1     1     2     0     0  9.513019151E+00 -3.152341398E+02 -5.300673599E+00  3.392877209E+02  1.250000000E+02  0.00000E+00  9.000E+00
      21     1     1     2   502   511  9.348949973E+01  1.416971266E+02 -5.167747181E+02  5.439434451E+02  0.000000000E+00  0.00000E+00  9.000E+00
#rwgt            1           1   2.5723621571943283E-002           5      124159           0
</event>
<event>
      5   9999  3.19816E-02  2.93392E+01 -1.00000E+00  1.53715E-01
      21    -1     0     0   502   501  0.000000000E+00  0.000000000E+00  2.004365786E+02  2.004365786E+02  0.000000000E+00  0.00000E+00  9.000E+00
       1    -1     0     0   501     0  0.000000000E+00  0.000000000E+00 -1.403124816E+03  1.403124816E+03  0.000000000E+00  0.00000E+00  9.000E+00
      25     1     1     2     0     0 -8.904962262E+01  2.019215848E+02  6.730124611E+01  2.624054486E+02  1.250000000E+02  0.00000E+00  9.000E+00
      25     1     1     2     0     0  6.548421076E+01 -1.844441079E+02 -3.460657657E+02  4.167665114E+02  1.250000000E+02  0.00000E+00  9.000E+00
       1     1     1     2   502     0  2.356541186E+01 -1.747747692E+01 -9.239237180E+02  9.243894350E+02  1.078959322E-05  0.00000E+00  9.000E+00
#rwgt            1           1   2.6638273243931629E-002           5      124212           0
</event>
<event>
      5   9999  3.19816E-02  4.06072E+01 -1.00000E+00  1.44436E-01
       1    -1     0     0   502     0  0.000000000E+00  0.000000000E+00  4.396377082E+02  4.396377082E+02  0.000000000E+00  0.00000E+00  9.000E+00
      21    -1     0     0   501   502  0.000000000E+00  0.000000000E+00 -4.641398777E+02  4.641398777E+02  0.000000000E+00  0.00000E+00  9.000E+00
      25     1     1     2     0     0 -8.747316983E+01  1.762080448E+01  7.363889872E+00  1.537571952E+02  1.250000000E+02  0.00000E+00  9.000E+00
      25     1     1     2     0     0  5.835050144E+01 -4.591945989E+01 -3.761912012E+02  4.033090597E+02  1.250000000E+02  0.00000E+00  9.000E+00
       1     1     1     2   501     0  2.912266839E+01  2.829865542E+01  3.443251419E+02  3.467113310E+02  5.394796609E-06  0.00000E+00  9.000E+00
#rwgt            1           1   3.3951234511261509E-002           5      124349           0
</event>
<event>
      5   9999  3.19816E-02  1.51809E+02 -1.00000E+00  1.16188E-01
      21    -1     0     0   502   511  0.000000000E+00  0.000000000E+00  4.519927569E+02  4.519927569E+02  0.000000000E+00  0.00000E+00  9.000E+00
      21    -1     0     0   501   502  0.000000000E+00  0.000000000E+00 -1.951027594E+02  1.951027594E+02  0.000000000E+00  0.00000E+00  9.000E+00
      25     1     1     2     0     0 -5.927011716E+01 -5.016510956E+01  1.370234189E+02  2.010718835E+02  1.250000000E+02  0.00000E+00  9.000E+00
      25     1     1     2     0     0 -6.782088182E+01  1.331947208E+02 -6.628964392E+01  2.058150202E+02  1.250000000E+02  0.00000E+00  9.000E+00
      21     1     1     2   501   511  1.270909990E+02 -8.302961127E+01  1.861562225E+02  2.402086126E+02  2.697398305E-06  0.00000E+00  9.000E+00
#rwgt            1           1   2.8596246285878316E-002           5      124470           0
</event>
<event>
      5   9999  3.19816E-02  2.58717E+02 -1.00000E+00  1.07724E-01
      21    -1     0     0   502   501  0.000000000E+00  0.000000000E+00  3.350952992E+02  3.350952992E+02  0.000000000E+00  0.00000E+00  9.000E+00
      21    -1     0     0   512   502  0.000000000E+00  0.000000000E+00 -1.093680665E+03  1.093680665E+03  0.000000000E+00  0.00000E+00  9.000E+00
      25     1     1     2     0     0  9.593436071E+01  3.290442686E+02 -1.116435837E+02  3.815269611E+02  1.250000000E+02  0.00000E+00  9.000E+00
      25     1     1     2     0     0  1.411233503E+02 -4.326700146E+02 -1.644819406E+02  4.997984096E+02  1.250000000E+02  0.00000E+00  9.000E+00
      21     1     1     2   512   501 -2.370577110E+02  1.036257460E+02 -4.824598412E+02  5.474505932E+02  7.629394531E-06  0.00000E+00  9.000E+00
#rwgt            1           1   2.8273052506351225E-002           5      124506           0
</event>
<event>
      5   9999  3.19816E-02  2.24149E+01 -1.00000E+00  1.62385E-01
      21    -1     0     0   502   511  0.000000000E+00  0.000000000E+00  2.817893462E+02  2.817893462E+02  0.000000000E+00  0.00000E+00  9.000E+00
      21    -1     0     0   501   502  0.000000000E+00  0.000000000E+00 -9.557694581E+02  9.557694581E+02  0.000000000E+00  0.00000E+00  9.000E+00
      25     1     1     2     0     0  4.017395232E+01 -4.351797704E+02 -4.303795651E+02  6.259767959E+02  1.250000000E+02  0.00000E+00  9.000E+00
      25     1     1     2     0     0 -2.045552565E+01  4.458385661E+02 -2.991780011E+02  5.516547216E+02  1.250000000E+02  0.00000E+00  9.000E+00
      21     1     1     2   501   511 -1.971842667E+01 -1.065879570E+01  5.557745435E+01  5.992728684E+01  6.743495762E-07  0.00000E+00  9.000E+00
#rwgt            1           1   2.7319514436045279E-002           5      124568           0
</event>
<event>
      5   9999  3.19816E-02  1.11747E+02 -1.00000E+00  1.21697E-01
      21    -1     0     0   502   512  0.000000000E+00  0.000000000E+00  7.618890802E+02  7.618890802E+02  0.000000000E+00  0.00000E+00  9.000E+00
      21    -1     0     0   501   502  0.000000000E+00  0.000000000E+00 -3.447612203E+02  3.447612203E+02  0.000000000E+00  0.00000E+00  9.000E+00
      25     1     1     2     0     0  4.679086704E+02 -1.009777261E+02  2.846325768E+02  5.707676663E+02  1.250000000E+02  0.00000E+00  9.000E+00
      25     1     1     2     0     0 -3.743714266E+02  3.983666048E+01  5.639126502E+01  4.006817931E+02  1.250000000E+02  0.00000E+00  9.000E+00
      21     1     1     2   501   512 -9.353724388E+01  6.114106567E+01  7.610401805E+01  1.352008412E+02  2.132480600E-06  0.00000E+00  9.000E+00
#rwgt            1           1   3.0802276345651091E-002           5      124748           0
</event>
<event>
      5   9999  3.19816E-02  3.47688E+02 -1.00000E+00  1.03551E-01
      21    -1     0     0   502   501  0.000000000E+00  0.000000000E+00  1.576001176E+03  1.576001176E+03  0.000000000E+00  0.00000E+00  9.000E+00
      21    -1     0     0   501   511  0.000000000E+00  0.000000000E+00 -5.591974587E+02  5.591974587E+02  0.000000000E+00  0.00000E+00  9.000E+00
      25     1     1     2     0     0 -9.076646500E+01 -3.331143183E+02  3.725394578E+02  5.230815881E+02  1.250000000E+02  0.00000E+00  9.000E+00
      25     1     1     2     0     0 -2.267463980E+02  4.747925526E+02  9.860191145E+02  1.124589077E+03  1.250000000E+02  0.00000E+00  9.000E+00
      21     1     1     2   502   511  3.175128630E+02 -1.416782343E+02 -3.417548551E+02  4.875279698E+02  3.814697266E-06  0.00000E+00  9.000E+00
#rwgt            1           1   2.8712477327624938E-002           5      124843           0
</event>
<event>
      5   9999  3.19816E-02  2.20097E+01 -1.00000E+00  1.63010E-01
      21    -1     0     0   502   501  0.000000000E+00  0.000000000E+00  2.651423161E+02  2.651423161E+02  0.000000000E+00  0.00000E+00  9.000E+00
      21    -1     0     0   512   502  0.000000000E+00  0.000000000E+00 -7.992113029E+02  7.992113029E+02  0.000000000E+00  0.00000E+00  9.000E+00
      25     1     1     2     0     0 -1.216540047E+02 -3.728884695E+00  3.390232356E+01  1.777300452E+02  1.250000000E+02  0.00000E+00  9.000E+00
      25     1     1     2     0     0  1.049700054E+02 -1.062624897E+01  1.171187405E+02  2.011800651E+02  1.250000000E+02  0.00000E+00  9.000E+00
      21     1     1     2   512   501  1.668399926E+01  1.435513366E+01 -6.850900509E+02  6.854435087E+02  7.629394531E-06  0.00000E+00  9.000E+00
#rwgt            1           1   2.6049501860905766E-002           5      124928           0
</event>
<event>
      5   9999  3.19816E-02  1.26945E+01 -1.00000E+00  1.84495E-01
      21    -1     0     0   511   501  0.000000000E+00  0.000000000E+00  7.608386253E+02  7.608386253E+02  0.000000000E+00  0.00000E+00  9.000E+00
      21    -1     0     0   501   502  0.000000000E+00  0.000000000E+00 -4.075248624E+02  4.075248624E+02  0.000000000E+00  0.00000E+00  9.000E+00
      25     1     1     2     0     0  4.676830514E+02 -1.266438628E+02 -5.284465279E+01  5.031735902E+02  1.250000000E+02  0.00000E+00  9.000E+00
      25     1     1     2     0     0 -4.645600268E+02  1.143395519E+02  3.455277486E+02  6.032445414E+02  1.250000000E+02  0.00000E+00  9.000E+00
      21     1     1     2   511   502 -3.123024616E+00  1.230431088E+01  6.063066712E+01  6.194535611E+01  6.743495762E-07  0.00000E+00  9.000E+00
#rwgt            2          11   5.5976368032461194E-003           5      125092           0
</event>
<event>
      5   9999  3.19816E-02  4.23066E+01 -1.00000E+00  1.43346E-01
      21    -1     0     0   502   501  0.000000000E+00  0.000000000E+00  2.041258434E+03  2.041258434E+03  0.000000000E+00  0.00000E+00  9.000E+00
      21    -1     0     0   501   512  0.000000000E+00  0.000000000E+00 -3.303349472E+02  3.303349472E+02  0.000000000E+00  0.00000E+00  9.000E+00
      25     1     1     2     0     0  2.179477809E+02  7.491285921E+02  1.092612189E+03  1.348377276E+03  1.250000000E+02  0.00000E+00  9.000E+00
      25     1     1     2     0     0 -1.765639987E+02 -7.403404143E+02  5.996484018E+02  9.769759365E+02  1.250000000E+02  0.00000E+00  9.000E+00
      21     1     1     2   502   512 -4.138378219E+01 -8.788177783E+00  1.866289544E+01  4.624016829E+01  4.768371582E-07  0.00000E+00  9.000E+00
#rwgt            1           1   2.9118705431349208E-002           5      125127           0
</event>
<event>
      5   9999  3.19816E-02  2.10814E+02 -1.00000E+00  1.10822E-01
      21    -1     0     0   502   511  0.000000000E+00  0.000000000E+00  4.625599907E+02  4.625599907E+02  0.000000000E+00  0.00000E+00  9.000E+00
      21    -1     0     0   501   502  0.000000000E+00  0.000000000E+00 -3.956179979E+02  3.956179979E+02  0.000000000E+00  0.00000E+00  9.000E+00
      25     1     1     2     0     0  8.385358049E+01 -8.910250381E+01 -2.761247195E+02  3.268647119E+02  1.250000000E+02  0.00000E+00  9.000E+00
      25     1     1     2     0     0  1.244792158E+02  5.685126203E+01  1.038289285E+02  2.124443164E+02  1.250000000E+02  0.00000E+00  9.000E+00
      21     1     1     2   501   511 -2.083327963E+02  3.225124178E+01  2.392377839E+02  3.188689603E+02  3.814697266E-06  0.00000E+00  9.000E+00
#rwgt            2          11   3.3890413530657444E-003           5      125419           0
</event>
<event>
      5   9999  3.19816E-02  9.39512E+01 -1.00000E+00  1.25059E-01
      21    -1     0     0   512   501  0.000000000E+00  0.000000000E+00  2.348069482E+02  2.348069482E+02  0.000000000E+00  0.00000E+00  9.000E+00
      21    -1     0     0   501   502  0.000000000E+00  0.000000000E+00 -1.456847131E+03  1.456847131E+03  0.000000000E+00  0.00000E+00  9.000E+00
      25     1     1     2     0     0 -1.078082447E+02  1.173989913E+02 -1.342364072E+03  1.357560843E+03  1.250000000E+02  0.00000E+00  9.000E+00
      25     1     1     2     0     0  1.034504594E+02 -2.354891418E+01 -2.005287956E+01  1.651776828E+02  1.250000000E+02  0.00000E+00  9.000E+00
      21     1     1     2   512   502  4.357785272E+00 -9.385007708E+01  1.403767683E+02  1.689155539E+02  3.303624740E-06  0.00000E+00  9.000E+00
#rwgt            1           1   2.7071758309139143E-002           5      125454           0
</event>
<event>
      5   9999  3.19816E-02  2.27524E+02 -1.00000E+00  1.09647E-01
      21    -1     0     0   502   501  0.000000000E+00  0.000000000E+00  7.767397311E+02  7.767397311E+02  0.000000000E+00  0.00000E+00  9.000E+00
      -2    -1     0     0     0   502  0.000000000E+00  0.000000000E+00 -8.450813499E+02  8.450813499E+02  0.000000000E+00  0.00000E+00  9.000E+00
      25     1     1     2     0     0  3.417579246E+02  7.158237009E+01  1.732045116E+02  4.093254422E+02  1.250000000E+02  0.00000E+00  9.000E+00
      25     1     1     2     0     0 -1.680631184E+02  7.537752422E+01  4.404727632E+02  4.935263297E+02  1.250000000E+02  0.00000E+00  9.000E+00
      -2     1     1     2     0   501 -1.736948062E+02 -1.469598943E+02 -6.820188936E+02  7.189693091E+02  1.078959322E-05  0.00000E+00  9.000E+00
#rwgt            1           1   2.8258568982273493E-002           5      125541           0
</event>
<event>
      5   9999  3.19816E-02  2.23465E+01 -1.00000E+00  1.62490E-01
      21    -1     0     0   502   501  0.000000000E+00  0.000000000E+00  1.804449830E+03  1.804449830E+03  0.000000000E+00  0.00000E+00  9.000E+00
      21    -1     0     0   511   502  0.000000000E+00  0.000000000E+00 -6.822003844E+01  6.822003844E+01  0.000000000E+00  0.00000E+00  9.000E+00
      25     1     1     2     0     0 -9.780742682E+01  2.286192850E+02  6.853379304E+02  7.396932804E+02  1.250000000E+02  0.00000E+00  9.000E+00
      25     1     1     2     0     0  1.168070391E+02 -2.168558005E+02  1.069065974E+03  1.104172712E+03  1.250000000E+02  0.00000E+00  9.000E+00
      21     1     1     2   511   501 -1.899961232E+01 -1.176348456E+01 -1.817411308E+01  2.880387515E+01  1.039242493E-06  0.00000E+00  9.000E+00
#rwgt            1           1   3.0130547719432205E-002           5      125615           0
</event>
<event>
      5   9999  3.19816E-02  9.65586E+01 -1.00000E+00  1.24516E-01
      21    -1     0     0   502   501  0.000000000E+00  0.000000000E+00  2.879518896E+02  2.879518896E+02  0.000000000E+00  0.00000E+00  9.000E+00
      21    -1     0     0   512   502  0.000000000E+00  0.000000000E+00 -4.841646888E+02  4.841646888E+02  0.000000000E+00  0.00000E+00  9.000E+00
      25     1     1     2     0     0 -4.387069587E+01 -1.175625918E+02  1.916317361E+02  2.609469740E+02  1.250000000E+02  0.00000E+00  9.000E+00
      25     1     1     2     0     0 -5.452364553E+00  2.005734084E+02 -2.731228083E+02  3.612208312E+02  1.250000000E+02  0.00000E+00  9.000E+00
      21     1     1     2   512   501  4.932306042E+01 -8.301081656E+01 -1.147217270E+02  1.499487733E+02  1.348699152E-06  0.00000E+00  9.000E+00
#rwgt            1           1   2.6674607236157340E-002           5      125743           0
</event>
<event>
      5   9999  3.19816E-02  5.87651E+01 -1.00000E+00  1.35188E-01
      21    -1     0     0   502   511  0.000000000E+00  0.000000000E+00  9.730300569E+02  9.730300569E+02  0.000000000E+00  0.00000E+00  9.000E+00
      21    -1     0     0   501   502  0.000000000E+00  0.000000000E+00 -3.574232362E+02  3.574232362E+02  0.000000000E+00  0.00000E+00  9.000E+00
      25     1     1     2     0     0  1.989963453E+02  3.169450406E+02  3.276111833E+02  5.128428528E+02  1.250000000E+02  0.00000E+00  9.000E+00
      25     1     1     2     0     0 -2.558441341E+02 -3.020566764E+02 -9.852690663E+01  4.266462329E+02  1.250000000E+02  0.00000E+00  9.000E+00
      21     1     1     2   501   511  5.684778876E+01 -1.488836425E+01  3.865225439E+02  3.909642074E+02  7.629394531E-06  0.00000E+00  9.000E+00
#rwgt            1           1   2.7393430974940913E-002           5      125852           0
</event>
<event>
      5   9999  3.19816E-02  1.23358E+01 -1.00000E+00  1.85776E-01
      21    -1     0     0   502   501  0.000000000E+00  0.000000000E+00  1.231434458E+02  1.231434458E+02  0.000000000E+00  0.00000E+00  9.000E+00
      21    -1     0     0   512   502  0.000000000E+00  0.000000000E+00 -3.823434296E+02  3.823434296E+02  0.000000000E+00  0.00000E+00  9.000E+00
      25     1     1     2     0     0  2.075569783E+01 -1.628047659E+02 -1.449812789E+02  2.521522596E+02  1.250000000E+02  0.00000E+00  9.000E+00
      25     1     1     2     0     0 -8.706281235E+00  1.601620145E+02 -8.276999040E+01  2.195530495E+02  1.250000000E+02  0.00000E+00  9.000E+00
      21     1     1     2   512   501 -1.204941659E+01  2.642751336E+00 -3.144871454E+01  3.378156629E+01  3.371747881E-07  0.00000E+00  9.000E+00
#rwgt            1           1   3.0347535821542596E-002           5      125977           0
</event>
<event>
      5   9999  3.19816E-02  9.50033E+01 -1.00000E+00  1.24838E-01
      21    -1     0     0   502   501  0.000000000E+00  0.000000000E+00  4.464980142E+02  4.464980142E+02  0.000000000E+00  0.00000E+00  9.000E+00
       1    -1     0     0   501     0  0.000000000E+00  0.000000000E+00 -2.475645174E+03  2.475645174E+03  0.000000000E+00  0.00000E+00  9.000E+00
      25     1     1     2     0     0 -3.348780621E+00  2.274170564E+01  4.260861183E+02  4.446378073E+02  1.250000000E+02  0.00000E+00  9.000E+00
      25     1     1     2     0     0  9.835114772E+01 -2.233176146E+01 -6.420339787E+02  6.618189221E+02  1.250000000E+02  0.00000E+00  9.000E+00
       1     1     1     2   502     0 -9.500236710E+01 -4.099441804E-01 -1.813199299E+03  1.815686458E+03  0.000000000E+00  0.00000E+00  9.000E+00
#rwgt            1           1   2.6675238164294703E-002           5      126149           0
</event>
<event>
      5   9999  3.19816E-02  3.74848E+02 -1.00000E+00  1.02541E-01
       1    -1     0     0   502     0  0.000000000E+00  0.000000000E+00  9.894954525E+02  9.894954525E+02  0.000000000E+00  0.00000E+00  9.000E+00
      21    -1     0     0   501   502  0.000000000E+00  0.000000000E+00 -4.377922798E+02  4.377922798E+02  0.000000000E+00  0.00000E+00  9.000E+00
      25     1     1     2     0     0  7.111325343E+01  2.646387472E+02  4.505119155E+01  3.045412471E+02  1.250000000E+02  0.00000E+00  9.000E+00
      25     1     1     2     0     0  1.606135194E+02 -5.592798836E+02  4.443886032E+02  7.427630318E+02  1.250000000E+02  0.00000E+00  9.000E+00
       1     1     1     2   501     0 -2.317267729E+02  2.946411364E+02  6.226337802E+01  3.799834533E+02  2.132480600E-06  0.00000E+00  9.000E+00
#rwgt            1           1   3.2534374247693544E-002           5      126192           0
</event>
<event>
      5   9999  3.19816E-02  2.23070E+02 -1.00000E+00  1.09949E-01
      21    -1     0     0   502   501  0.000000000E+00  0.000000000E+00  1.204581967E+03  1.204581967E+03  0.000000000E+00  0.00000E+00  9.000E+00
      21    -1     0     0   511   502  0.000000000E+00  0.000000000E+00 -2.753254305E+02  2.753254305E+02  0.000000000E+00  0.00000E+00  9.000E+00
      25     1     1     2     0     0  3.417161483E+02 -1.119776276E+02  9.694405140E+02  1.041512758E+03  1.250000000E+02  0.00000E+00  9.000E+00
      25     1     1     2     0     0 -1.692765832E+02 -2.953128017E+01 -3.435567340E+01  2.152486247E+02  1.250000000E+02  0.00000E+00  9.000E+00
      21     1     1     2   511   501 -1.724395651E+02  1.415089078E+02 -5.828304390E+00  2.231460144E+02  6.131461176E-06  0.00000E+00  9.000E+00
#rwgt            1           1   2.3145107380595623E-002           5      126242           0
</event>
<event>
      5   9999  3.19816E-02  1.86153E+02 -1.00000E+00  1.12794E-01
      21    -1     0     0   502   501  0.000000000E+00  0.000000000E+00  1.456517758E+02  1.456517758E+02  0.000000000E+00  0.00000E+00  9.000E+00
       2    -1     0     0   501     0  0.000000000E+00  0.000000000E+00 -2.329552697E+03  2.329552697E+03  0.000000000E+00  0.00000E+00  9.000E+00
      25     1     1     2     0     0 -1.132626224E+02 -3.265015928E+01 -3.339863347E+01  1.750283498E+02  1.250000000E+02  0.00000E+00  9.000E+00
      25     1     1     2     0     0  2.547288295E+02 -8.834736700E+01 -2.437488550E+02  3.843573053E+02  1.250000000E+02  0.00000E+00  9.000E+00
       2     1     1     2   502     0 -1.414662071E+02  1.209975263E+02 -1.906753433E+03  1.915818818E+03  2.157918644E-05  0.00000E+00  9.000E+00
#rwgt            1           1   3.2358947100871838E-002           5      126283           0
</event>
<event>
      5   9999  3.19816E-02  2.69039E+01 -1.00000E+00  1.56400E-01
      21    -1     0     0   502   511  0.000000000E+00  0.000000000E+00  1.180692826E+02  1.180692826E+02  0.000000000E+00  0.00000E+00  9.000E+00
      21    -1     0     0   501   502  0.000000000E+00  0.000000000E+00 -4.690757122E+02  4.690757122E+02  0.000000000E+00  0.00000E+00  9.000E+00
      25     1     1     2     0     0  6.803079670E+01 -3.858931350E+01 -3.407065392E+02  3.712455660E+02  1.250000000E+02  0.00000E+00  9.000E+00
      25     1     1     2     0     0 -7.628629433E+01  1.298329060E+01 -6.047486114E+01  1.589665794E+02  1.250000000E+02  0.00000E+00  9.000E+00
      21     1     1     2   501   511  8.255497632E+00  2.560602291E+01  5.017497072E+01  5.693284936E+01  6.743495762E-07  0.00000E+00  9.000E+00
#rwgt            1           1   2.8473569893069709E-002           5      126314           0
</event>
<event>
      5   9999  3.19816E-02  2.17355E+02 -1.00000E+00  1.10348E-01
      21    -1     0     0   502   501  0.000000000E+00  0.000000000E+00  1.334669298E+03  1.334669298E+03  0.000000000E+00  0.00000E+00  9.000E+00
      21    -1     0     0   501   512  0.000000000E+00  0.000000000E+00 -7.428415369E+02  7.428415369E+02  0.000000000E+00  0.00000E+00  9.000E+00
      25     1     1     2     0     0 -1.329904571E+02  8.974085091E+02  1.368394047E+02  9.259473616E+02  1.250000000E+02  0.00000E+00  9.000E+00
      25     1     1     2     0     0  7.194105444E+01 -6.888033628E+02  5.700306902E+02  9.056409750E+02  1.250000000E+02  0.00000E+00  9.000E+00
      21     1     1     2   502   512  6.104940266E+01 -2.086051463E+02 -1.150423338E+02  2.459224984E+02  1.907348633E-06  0.00000E+00  9.000E+00
#rwgt            1           1   2.4173044667492059E-002           5      126421           0
</event>
<event>
      5   9999  3.19816E-02  6.03189E+01 -1.00000E+00  1.34580E-01
      21    -1     0     0   502   501  0.000000000E+00  0.000000000E+00  2.813928358E+02  2.813928358E+02  0.000000000E+00  0.00000E+00  9.000E+00
      21    -1     0     0   501   511  0.000000000E+00  0.000000000E+00 -1.334179350E+02  1.334179350E+02  0.000000000E+00  0.00000E+00  9.000E+00
      25     1     1     2     0     0  1.027820046E+01  5.292956192E+01 -2.771107623E+01  1.389247411E+02  1.250000000E+02  0.00000E+00  9.000E+00
      25     1     1     2     0     0  2.109501835E+01 -1.411650319E+00  1.743289980E+02  2.155518316E+02  1.250000000E+02  0.00000E+00  9.000E+00
      21     1     1     2   502   511 -3.137321881E+01 -5.151791160E+01  1.356979054E+00  6.033419815E+01  6.687285206E-07  0.00000E+00  9.000E+00
#rwgt            1           1   7.3342810465656494E-002           5      126569           0
</event>
<event>
      5   9999  3.19816E-02  1.01429E+02 -1.00000E+00  1.23551E-01
      21    -1     0     0   502   501  0.000000000E+00  0.000000000E+00  1.911125932E+02  1.911125932E+02  0.000000000E+00  0.00000E+00  9.000E+00
       2    -1     0     0   501     0  0.000000000E+00  0.000000000E+00 -1.412419350E+03  1.412419350E+03  0.000000000E+00  0.00000E+00  9.000E+00
      25     1     1     2     0     0 -2.603782828E+02 -1.853775662E+02 -8.074810960E+01  3.525719067E+02  1.250000000E+02  0.00000E+00  9.000E+00
      25     1     1     2     0     0  1.609847499E+02  1.651582009E+02 -2.771555773E+02  3.816196209E+02  1.250000000E+02  0.00000E+00  9.000E+00
       2     1     1     2   502     0  9.939353289E+01  2.021936538E+01 -8.634030696E+02  8.693404153E+02  1.525878906E-05  0.00000E+00  9.000E+00
#rwgt            1           1   2.8289603037351709E-002           5      126625           0
</event>
<event>
      5   9999  3.19816E-02  2.86240E+01 -1.00000E+00  1.54470E-01
      21    -1     0     0   502   511  0.000000000E+00  0.000000000E+00  1.741738423E+02  1.741738423E+02  0.000000000E+00  0.00000E+00  9.000E+00
      21    -1     0     0   501   502  0.000000000E+00  0.000000000E+00 -5.869125061E+02  5.869125061E+02  0.000000000E+00  0.00000E+00  9.000E+00
      25     1     1     2     0     0 -1.326455578E+02  1.147517412E+02 -4.537985168E+02  5.023155383E+02  1.250000000E+02  0.00000E+00  9.000E+00
      25     1     1     2     0     0  1.218152855E+02 -8.825572198E+01 -1.465605849E+01  1.961321908E+02  1.250000000E+02  0.00000E+00  9.000E+00
      21     1     1     2   501   511  1.083027232E+01 -2.649601925E+01  5.571591148E+01  6.263861929E+01  1.348699152E-06  0.00000E+00  9.000E+00
#rwgt            1           1   2.8952033326720913E-002           5      126712           0
</event>
<event>
      5   9999  3.19816E-02  3.01570E+01 -1.00000E+00  1.52883E-01
      21    -1     0     0   502   512  0.000000000E+00  0.000000000E+00  5.299626105E+02  5.299626105E+02  0.000000000E+00  0.00000E+00  9.000E+00
      21    -1     0     0   501   502  0.000000000E+00  0.000000000E+00 -2.327819671E+02  2.327819671E+02  0.000000000E+00  0.00000E+00  9.000E+00
      25     1     1     2     0     0 -2.334089390E+02  1.545156248E+02 -2.732458619E+01  3.077766140E+02  1.250000000E+02  0.00000E+00  9.000E+00
      25     1     1     2     0     0  2.199116992E+02 -1.275476517E+02  2.633975337E+02  3.868240165E+02  1.250000000E+02  0.00000E+00  9.000E+00
      21     1     1     2   501   512  1.349723971E+01 -2.696797304E+01  6.110769585E+01  6.814394721E+01  6.743495762E-07  0.00000E+00  9.000E+00
#rwgt            1           1   2.8399666501979001E-002           5      126844           0
</event>
<event>
      5   9999  3.19816E-02  3.26519E+01 -1.00000E+00  1.50528E-01
      21    -1     0     0   511   501  0.000000000E+00  0.000000000E+00  5.671777928E+02  5.671777928E+02  0.000000000E+00  0.00000E+00  9.000E+00
      21    -1     0     0   501   502  0.000000000E+00  0.000000000E+00 -1.195515341E+02  1.195515341E+02  0.000000000E+00  0.00000E+00  9.000E+00
      25     1     1     2     0     0 -4.791948163E+01  3.207542968E+01 -6.106538448E+01  1.505957871E+02  1.250000000E+02  0.00000E+00  9.000E+00
      25     1     1     2     0     0  2.006607368E+01 -1.503629316E+01  4.612244533E+02  4.785203587E+02  1.250000000E+02  0.00000E+00  9.000E+00
      21     1     1     2   511   502  2.785340795E+01 -1.703913652E+01  4.746718988E+01  5.761318098E+01  6.743495762E-07  0.00000E+00  9.000E+00
#rwgt            1           1   2.5357277673367883E-002           5      126930           0
</event>
<event>
      5   9999  3.19816E-02  8.18503E+01 -1.00000E+00  1.27871E-01
      21    -1     0     0   502   512  0.000000000E+00  0.000000000E+00  2.008576772E+02  2.008576772E+02  0.000000000E+00  0.00000E+00  9.000E+00
      21    -1     0     0   501   502  0.000000000E+00  0.000000000E+00 -3.148328465E+02  3.148328465E+02  0.000000000E+00  0.00000E+00  9.000E+00
      25     1     1     2     0     0  1.109416098E+01 -9.931070376E+01 -8.048146245E+01  1.791311310E+02  1.250000000E+02  0.00000E+00  9.000E+00
      25     1     1     2     0     0  6.773609562E+01  1.213394208E+02 -1.162890942E+02  2.201353837E+02  1.250000000E+02  0.00000E+00  9.000E+00
      21     1     1     2   501   512 -7.883025661E+01 -2.202871707E+01  8.279538740E+01  1.164240092E+02  1.907348633E-06  0.00000E+00  9.000E+00
#rwgt            1           1   2.8412504506632817E-002           5      127026           0
</event>
<event>
      5   9999  3.19816E-02  4.39200E+01 -1.00000E+00  1.42366E-01
      21    -1     0     0   511   501  0.000000000E+00  0.000000000E+00  1.431734985E+03  1.431734985E+03  0.000000000E+00  0.00000E+00  9.000E+00
      21    -1     0     0   501   502  0.000000000E+00  0.000000000E+00 -7.248625634E+02  7.248625634E+02  0.000000000E+00  0.00000E+00  9.000E+00
      25     1     1     2     0     0  4.155454693E+02 -1.439379184E+02 -6.043814525E+02  7.578245850E+02  1.250000000E+02  0.00000E+00  9.000E+00
      25     1     1     2     0     0 -3.717511888E+02  1.472583856E+02  1.274222941E+03  1.341325122E+03  1.250000000E+02  0.00000E+00  9.000E+00
      21     1     1     2   511   502 -4.379428056E+01 -3.320467273E+00  3.703093268E+01  5.744784146E+01  8.259061849E-07  0.00000E+00  9.000E+00
#rwgt            1           1   3.0461154589719409E-002           5      127095           0
</event>
<event>
      5   9999  3.19816E-02  6.85704E+01 -1.00000E+00  1.31676E-01
      21    -1     0     0   502   512  0.000000000E+00  0.000000000E+00  6.889176299E+02  6.889176299E+02  0.000000000E+00  0.00000E+00  9.000E+00
      21    -1     0     0   501   502  0.000000000E+00  0.000000000E+00 -3.191346972E+02  3.191346972E+02  0.000000000E+00  0.00000E+00  9.000E+00
      25     1     1     2     0     0 -1.977032630E+02  3.080324630E+02 -4.416066047E+01  3.892887648E+02  1.250000000E+02  0.00000E+00  9.000E+00
      25     1     1     2     0     0  2.516808729E+02 -2.657439911E+02  3.173123075E+02  5.002751554E+02  1.250000000E+02  0.00000E+00  9.000E+00
      21     1     1     2   501   512 -5.397760994E+01 -4.228847193E+01  9.663128566E+01  1.184884070E+02  1.348699152E-06  0.00000E+00  9.000E+00
#rwgt            1           1   3.0858918456745401E-002           5      127266           0
</event>
<event>
      5   9999  3.19816E-02  1.57486E+01 -1.00000E+00  1.75414E-01
      21    -1     0     0   511   501  0.000000000E+00  0.000000000E+00  3.416148299E+02  3.416148299E+02  0.000000000E+00  0.00000E+00  9.000E+00
      21    -1     0     0   501   502  0.000000000E+00  0.000000000E+00 -2.724013936E+02  2.724013936E+02  0.000000000E+00  0.00000E+00  9.000E+00
      25     1     1     2     0     0 -8.575662421E+01 -2.243721734E+02 -6.605299612E+01  2.787204138E+02  1.250000000E+02  0.00000E+00  9.000E+00
      25     1     1     2     0     0  9.283381132E+01  2.384410070E+02  1.095095906E+02  3.051058517E+02  1.250000000E+02  0.00000E+00  9.000E+00
      21     1     1     2   511   502 -7.077187113E+00 -1.406883355E+01  2.575684185E+01  3.018995788E+01  4.768371582E-07  0.00000E+00  9.000E+00
#rwgt            1           1   2.9224923694810404E-002           5      127401           0
</event>
<event>
      5   9999  3.19816E-02  3.52237E+01 -1.00000E+00  1.48350E-01
      21    -1     0     0   502   512  0.000000000E+00  0.000000000E+00  6.092633083E+02  6.092633083E+02  0.000000000E+00  0.00000E+00  9.000E+00
      21    -1     0     0   501   502  0.000000000E+00  0.000000000E+00 -3.030936433E+02  3.030936433E+02  0.000000000E+00  0.00000E+00  9.000E+00
      25     1     1     2     0     0 -2.564016825E+01  1.250495134E+02  3.454157936E+02  3.888854195E+02  1.250000000E+02  0.00000E+00  9.000E+00
      25     1     1     2     0     0  6.029021911E+01 -1.187182271E+02 -2.501067919E+02  3.096890946E+02  1.250000000E+02  0.00000E+00  9.000E+00
      21     1     1     2   501   512 -3.465005086E+01 -6.331286240E+00  2.108606633E+02  2.137824374E+02  2.697398305E-06  0.00000E+00  9.000E+00
#rwgt            1           1   2.7625889223688877E-002           5      127600           0
</event>
<event>
      5   9999  3.19816E-02  3.32337E+01 -1.00000E+00  1.50015E-01
      21    -1     0     0   511   501  0.000000000E+00  0.000000000E+00  2.509351794E+02  2.509351794E+02  0.000000000E+00  0.00000E+00  9.000E+00
      21    -1     0     0   501   502  0.000000000E+00  0.000000000E+00 -6.165517492E+02  6.165517492E+02  0.000000000E+00  0.00000E+00  9.000E+00
      25     1     1     2     0     0  1.881318448E+02 -2.727685669E+02 -3.257320645E+02  4.811680163E+02  1.250000000E+02  0.00000E+00  9.000E+00
      25     1     1     2     0     0 -1.560288592E+02  2.813636769E+02 -5.550974310E+01  3.495952734E+02  1.250000000E+02  0.00000E+00  9.000E+00
      21     1     1     2   511   502 -3.210298550E+01 -8.595109967E+00  1.562523780E+01  3.672363884E+01  0.000000000E+00  0.00000E+00  9.000E+00
#rwgt            1           1   3.0401721846432257E-002           5      127726           0
</event>
<event>
      5   9999  3.19816E-02  4.08508E+01 -1.00000E+00  1.44276E-01
      21    -1     0     0   502   501  0.000000000E+00  0.000000000E+00  2.779805941E+03  2.779805941E+03  0.000000000E+00  0.00000E+00  9.000E+00
      21    -1     0     0   501   512  0.000000000E+00  0.000000000E+00 -2.214799366E+02  2.214799366E+02  0.000000000E+00  0.00000E+00  9.000E+00
      25     1     1     2     0     0  5.112706625E+02 -3.100844189E+02  2.200674117E+03  2.283887389E+03  1.250000000E+02  0.00000E+00  9.000E+00
      25     1     1     2     0     0 -4.704981453E+02  3.075563738E+02  3.549855129E+02  6.764607469E+02  1.250000000E+02  0.00000E+00  9.000E+00
      21     1     1     2   502   512 -4.077251716E+01  2.528045128E+00  2.666374953E+00  4.093774204E+01  5.066394806E-07  0.00000E+00  9.000E+00
#rwgt            1           1   2.0407696787057363E-002           5      127890           0
</event>
<event>
      5   9999  3.19816E-02  7.00093E+00 -1.00000E+00  2.15545E-01
      21    -1     0     0   502   501  0.000000000E+00  0.000000000E+00  3.375906760E+02  3.375906760E+02  0.000000000E+00  0.00000E+00  9.000E+00
      21    -1     0     0   501   511  0.000000000E+00  0.000000000E+00 -2.228588883E+03  2.228588883E+03  0.000000000E+00  0.00000E+00  9.000E+00
      25     1     1     2     0     0  7.066488002E+01  7.831358409E+02 -1.336144963E+03  1.555378935E+03  1.250000000E+02  0.00000E+00  9.000E+00
      25     1     1     2     0     0 -6.613972692E+01 -7.884777555E+02 -4.763592685E+02  9.319950575E+02  1.250000000E+02  0.00000E+00  9.000E+00
      21     1     1     2   502   511 -4.525153100E+00  5.341914601E+00 -7.849397542E+01  7.880556604E+01  9.536743164E-07  0.00000E+00  9.000E+00
#rwgt            1           1   2.3922827485702663E-002           5      128067           0
</event>
<event>
      5   9999  3.19816E-02  3.40605E+02 -1.00000E+00  1.03831E-01
      21    -1     0     0   502   501  0.000000000E+00  0.000000000E+00  2.338242739E+03  2.338242739E+03  0.000000000E+00  0.00000E+00  9.000E+00
       2    -1     0     0   501     0  0.000000000E+00  0.000000000E+00 -2.349015946E+03  2.349015946E+03  0.000000000E+00  0.00000E+00  9.000E+00
      25     1     1     2     0     0 -2.216273553E+01  1.263749600E+02 -5.734586350E+02  6.007841737E+02  1.250000000E+02  0.00000E+00  9.000E+00
      25     1     1     2     0     0  1.816038877E+02  1.746071906E+02  2.299471232E+03  2.316605402E+03  1.250000000E+02  0.00000E+00  9.000E+00
       2     1     1     2   502     0 -1.594411522E+02 -3.009821506E+02 -1.736785804E+03  1.769869109E+03  0.000000000E+00  0.00000E+00  9.000E+00
#rwgt            1           1   6.8465991414514399E-002           5      128519           0
</event>
<event>
      5   9999  3.19816E-02  3.46958E+02 -1.00000E+00  1.03580E-01
      21    -1     0     0   502   511  0.000000000E+00  0.000000000E+00  1.477899147E+03  1.477899147E+03  0.000000000E+00  0.00000E+00  9.000E+00
      21    -1     0     0   501   502  0.000000000E+00  0.000000000E+00 -1.744596158E+03  1.744596158E+03  0.000000000E+00  0.00000E+00  9.000E+00
      25     1     1     2     0     0 -1.100200422E+03  1.149165643E+02  7.039854188E+02  1.317143597E+03  1.250000000E+02  0.00000E+00  9.000E+00
      25     1     1     2     0     0  9.986729031E+02  2.168546529E+02 -1.125544641E+03  1.525401340E+03  1.250000000E+02  0.00000E+00  9.000E+00
      21     1     1     2   501   511  1.015275189E+02 -3.317712172E+02  1.548622109E+02  3.799503679E+02  4.672030912E-06  0.00000E+00  9.000E+00
#rwgt            2          11   1.6721249588051712E-002           5      128639           0
</event>
<event>
      5   9999  3.19816E-02  5.13793E+02 -1.00000E+00  9.85174E-02
       2    -1     0     0   502     0  0.000000000E+00  0.000000000E+00  1.541449773E+03  1.541449773E+03  0.000000000E+00  0.00000E+00  9.000E+00
      21    -1     0     0   501   502  0.000000000E+00  0.000000000E+00 -3.499956131E+02  3.499956131E+02  0.000000000E+00  0.00000E+00  9.000E+00
      25     1     1     2     0     0  5.748557017E+01 -7.321215842E+01 -1.166393293E+02  1.946646965E+02  1.250000000E+02  0.00000E+00  9.000E+00
      25     1     1     2     0     0  2.174942656E+02  5.072281122E+02  6.480722347E+02  8.603526805E+02  1.250000000E+02  0.00000E+00  9.000E+00
       2     1     1     2   501     0 -2.749798358E+02 -4.340159537E+02  6.600212545E+02  8.364280092E+02  7.629394531E-06  0.00000E+00  9.000E+00
#rwgt            2          18   1.0074361558536987E-003           5      128719           0
</event>
<event>
      5   9999  3.19816E-02  1.63024E+02 -1.00000E+00  1.14978E-01
      21    -1     0     0   502   501  0.000000000E+00  0.000000000E+00  6.623500123E+02  6.623500123E+02  0.000000000E+00  0.00000E+00  9.000E+00
       2    -1     0     0   501     0  0.000000000E+00  0.000000000E+00 -1.884717794E+03  1.884717794E+03  0.000000000E+00  0.00000E+00  9.000E+00
      25     1     1     2     0     0 -8.059388306E+02 -1.880694916E+02 -2.601093108E+02  8.764641384E+02  1.250000000E+02  0.00000E+00  9.000E+00
      25     1     1     2     0     0  9.549887881E+02  2.541070666E+02 -1.080219341E+03  1.469378376E+03  1.250000000E+02  0.00000E+00  9.000E+00
       2     1     1     2   502     0 -1.490499575E+02 -6.603757498E+01  1.179608705E+02  2.012252919E+02  4.264961200E-06  0.00000E+00  9.000E+00
#rwgt            1           1   3.8579348446930992E-002           5      128753           0
</event>
<event>
      5   9999  3.19816E-02  1.19076E+02 -1.00000E+00  1.20511E-01
      21    -1     0     0   511   501  0.000000000E+00  0.000000000E+00  1.661012597E+02  1.661012597E+02  0.000000000E+00  0.00000E+00  9.000E+00
      21    -1     0     0   501   502  0.000000000E+00  0.000000000E+00 -7.431532619E+02  7.431532619E+02  0.000000000E+00  0.00000E+00  9.000E+00
      25     1     1     2     0     0 -5.652305631E+01 -2.314323580E+02 -1.026827329E+02  2.879662061E+02  1.250000000E+02  0.00000E+00  9.000E+00
      25     1     1     2     0     0  1.084192097E+02  1.242596835E+02 -4.560629505E+02  5.008129479E+02  1.250000000E+02  0.00000E+00  9.000E+00
      21     1     1     2   511   502 -5.189615338E+01  1.071726745E+02 -1.830631881E+01  1.204753676E+02  2.676241913E-06  0.00000E+00  9.000E+00
#rwgt            1           1   3.0189165589848022E-002           5      128862           0
</event>
<event>
      5   9999  3.19816E-02  8.05193E+00 -1.00000E+00  2.07304E-01
      21    -1     0     0   502   501  0.000000000E+00  0.000000000E+00  1.081979632E+02  1.081979632E+02  0.000000000E+00  0.00000E+00  9.000E+00
      21    -1     0     0   501   512  0.000000000E+00  0.000000000E+00 -6.194643249E+02  6.194643249E+02  0.000000000E+00  0.00000E+00  9.000E+00
      25     1     1     2     0     0 -1.565582439E+02 -4.759297834E+01 -3.662237518E+01  2.091453410E+02  1.250000000E+02  0.00000E+00  9.000E+00
      25     1     1     2     0     0  1.513787461E+02  4.142804155E+01 -4.583812015E+02  5.003699964E+02  1.250000000E+02  0.00000E+00  9.000E+00
      21     1     1     2   502   512  5.179497770E+00  6.164936791E+00 -1.626278501E+01  1.814695069E+01  0.000000000E+00  0.00000E+00  9.000E+00
#rwgt            1           1   2.8483001295007453E-002           5      128963           0
</event>
<event>
      5   9999  3.19816E-02  7.99358E+01 -1.00000E+00  1.28366E-01
       2    -1     0     0   502     0  0.000000000E+00  0.000000000E+00  3.648919085E+01  3.648919085E+01  0.000000000E+00  0.00000E+00  9.000E+00
      21    -1     0     0   501   502  0.000000000E+00  0.000000000E+00 -2.728181484E+03  2.728181484E+03  0.000000000E+00  0.00000E+00  9.000E+00
      25     1     1     2     0     0  8.381638524E+01 -9.556982317E+01 -5.377889475E+02  5.665692628E+02  1.250000000E+02  0.00000E+00  9.000E+00
      25     1     1     2     0     0 -3.956081743E+01  2.900273439E+01 -2.093772909E+03  2.098074406E+03  1.250000000E+02  0.00000E+00  9.000E+00
       2     1     1     2   501     0 -4.425556781E+01  6.656708878E+01 -6.013043648E+01  1.000270063E+02  4.156969970E-06  0.00000E+00  9.000E+00
#rwgt            1           1   3.8456713561138542E-002           5      129225           0
</event>
<event>
      5   9999  3.19816E-02  5.60880E+01 -1.00000E+00  1.36287E-01
      21    -1     0     0   502   501  0.000000000E+00  0.000000000E+00  2.898588356E+03  2.898588356E+03  0.000000000E+00  0.00000E+00  9.000E+00
      21    -1     0     0   501   511  0.000000000E+00  0.000000000E+00 -2.698770516E+02  2.698770516E+02  0.000000000E+00  0.00000E+00  9.000E+00
      25     1     1     2     0     0 -4.998521939E+01 -1.362953778E+02  2.786688605E+03  2.793265711E+03  1.250000000E+02  0.00000E+00  9.000E+00
      25     1     1     2     0     0  9.963071587E+01  1.623950494E+02 -2.299038134E+01  2.290239927E+02  1.250000000E+02  0.00000E+00  9.000E+00
      21     1     1     2   502   511 -4.964549648E+01 -2.609967157E+01 -1.349869189E+02  1.461757041E+02  5.046370146E-06  0.00000E+00  9.000E+00
#rwgt            1           1   6.9884568459239099E-002           5      129305           0
</event>
<event>
      5   9999  3.19816E-02  4.06326E+01 -1.00000E+00  1.44419E-01
      21    -1     0     0   502   501  0.000000000E+00  0.000000000E+00  5.723207763E+02  5.723207763E+02  0.000000000E+00  0.00000E+00  9.000E+00
      21    -1     0     0   512   502  0.000000000E+00  0.000000000E+00 -1.469444957E+02  1.469444957E+02  0.000000000E+00  0.00000E+00  9.000E+00
      25     1     1     2     0     0 -1.144035717E+02  2.768656888E+01  1.496086075E+02  2.277333062E+02  1.250000000E+02  0.00000E+00  9.000E+00
      25     1     1     2     0     0  1.107684051E+02  1.278307955E+01  3.605252563E+02  3.975380575E+02  1.250000000E+02  0.00000E+00  9.000E+00
      21     1     1     2   512   501  3.635166662E+00 -4.046964844E+01 -8.475758323E+01  9.399390829E+01  3.162979880E-06  0.00000E+00  9.000E+00
#rwgt            1           1   2.6539166618350693E-002           5      129444           0
</event>
<event>
      5   9999  3.19816E-02  5.85059E+00 -1.00000E+00  2.27186E-01
      21    -1     0     0   502   511  0.000000000E+00  0.000000000E+00  3.745150739E+02  3.745150739E+02  0.000000000E+00  0.00000E+00  9.000E+00
      21    -1     0     0   501   502  0.000000000E+00  0.000000000E+00 -1.148367820E+02  1.148367820E+02  0.000000000E+00  0.00000E+00  9.000E+00
      25     1     1     2     0     0  9.039162304E+01 -3.040453179E+01  2.490789363E+02  2.945511799E+02  1.250000000E+02  0.00000E+00  9.000E+00
      25     1     1     2     0     0 -8.884804114E+01  3.604782677E+01 -2.431105668E+01  1.594034118E+02  1.250000000E+02  0.00000E+00  9.000E+00
      21     1     1     2   501   511 -1.543581903E+00 -5.643294985E+00  3.491041226E+01  3.539726412E+01  0.000000000E+00  0.00000E+00  9.000E+00
#rwgt            1           1   2.5203459829570479E-002           5      129538           0
</event>
<event>
      5   9999  3.19816E-02  7.50040E+01 -1.00000E+00  1.29720E-01
      21    -1     0     0   512   501  0.000000000E+00  0.000000000E+00  8.957910639E+02  8.957910639E+02  0.000000000E+00  0.00000E+00  9.000E+00
      21    -1     0     0   501   502  0.000000000E+00  0.000000000E+00 -1.391937787E+03  1.391937787E+03  0.000000000E+00  0.00000E+00  9.000E+00
      25     1     1     2     0     0  5.832677815E+02  6.308479320E+02 -7.017977640E+02  1.116385023E+03  1.250000000E+02  0.00000E+00  9.000E+00
      25     1     1     2     0     0 -5.865772218E+02 -7.057788530E+02 -2.732750193E+01  9.265896712E+02  1.250000000E+02  0.00000E+00  9.000E+00
      21     1     1     2   512   502  3.309440295E+00  7.493092102E+01  2.329785433E+02  2.447541562E+02  3.814697266E-06  0.00000E+00  9.000E+00
#rwgt            1           1   4.0022385451979267E-002           5      129812           0
</event>
<event>
      5   9999  3.19816E-02  9.78395E+01 -1.00000E+00  1.24256E-01
      21    -1     0     0   502   501  0.000000000E+00  0.000000000E+00  3.357178311E+02  3.357178311E+02  0.000000000E+00  0.00000E+00  9.000E+00
       2    -1     0     0   501     0  0.000000000E+00  0.000000000E+00 -4.144138539E+02  4.144138539E+02  0.000000000E+00  0.00000E+00  9.000E+00
      25     1     1     2     0     0  9.558047522E+01 -1.886966858E+02  1.150997562E+02  2.713208808E+02  1.250000000E+02  0.00000E+00  9.000E+00
      25     1     1     2     0     0 -1.451068520E+02  2.730750571E+02 -1.828119644E+02  3.803566742E+02  1.250000000E+02  0.00000E+00  9.000E+00
       2     1     1     2   502     0  4.952637680E+01 -8.437837123E+01 -1.098381455E+01  9.845412999E+01  1.630162517E-06  0.00000E+00  9.000E+00
#rwgt            1           1   2.7426495929662675E-002           5      129943           0
</event>
<event>
      5   9999  3.19816E-02  2.65895E+02 -1.00000E+00  1.07323E-01
      21    -1     0     0   502   511  0.000000000E+00  0.000000000E+00  6.826906018E+02  6.826906018E+02  0.000000000E+00  0.00000E+00  9.000E+00
      21    -1     0     0   501   502  0.000000000E+00  0.000000000E+00 -1.150990951E+03  1.150990951E+03  0.000000000E+00  0.00000E+00  9.000E+00
      25     1     1     2     0     0  2.961232018E+02 -6.754460058E+00 -1.030177484E+02  3.375977338E+02  1.250000000E+02  0.00000E+00  9.000E+00
      25     1     1     2     0     0 -5.580632165E+02  5.244281945E+01 -8.010248628E+02  9.856219528E+02  1.250000000E+02  0.00000E+00  9.000E+00
      21     1     1     2   501   511  2.619400147E+02 -4.568835939E+01  4.357422623E+02  5.104618660E+02  5.394796609E-06  0.00000E+00  9.000E+00
#rwgt            2          11   4.5687054229534702E-003           5      130107           0
</event>
<event>
      5   9999  3.19816E-02  9.44330E+01 -1.00000E+00  1.24957E-01
      21    -1     0     0   502   501  0.000000000E+00  0.000000000E+00  4.313046759E+02  4.313046759E+02  0.000000000E+00  0.00000E+00  9.000E+00
      21    -1     0     0   501   512  0.000000000E+00  0.000000000E+00 -5.762183513E+02  5.762183513E+02  0.000000000E+00  0.00000E+00  9.000E+00
      25     1     1     2     0     0  3.623126376E+02 -1.650453970E+02 -1.364120274E+02  4.390258212E+02  1.250000000E+02  0.00000E+00  9.000E+00
      25     1     1     2     0     0 -3.420946937E+02  2.572886647E+02  6.258614116E+01  4.502979697E+02  1.250000000E+02  0.00000E+00  9.000E+00
      21     1     1     2   502   512 -2.021794392E+01 -9.224326768E+01 -7.108778920E+01  1.181992363E+02  1.348699152E-06  0.00000E+00  9.000E+00
#rwgt            1           1   2.7905433638664327E-002           5      130142           0
</event>
<event>
      5   9999  3.19816E-02  6.07663E+01 -1.00000E+00  1.34410E-01
      21    -1     0     0   502   511  0.000000000E+00  0.000000000E+00  6.403782941E+02  6.403782941E+02  0.000000000E+00  0.00000E+00  9.000E+00
      21    -1     0     0   501   502  0.000000000E+00  0.000000000E+00 -1.499667569E+03  1.499667569E+03  0.000000000E+00  0.00000E+00  9.000E+00
      25     1     1     2     0     0 -9.875330068E+01  8.915821992E+02 -7.153401280E+02  1.154126306E+03  1.250000000E+02  0.00000E+00  9.000E+00
      25     1     1     2     0     0  4.392557226E+01 -8.653818638E+02 -2.056758721E+02  8.993012791E+02  1.250000000E+02  0.00000E+00  9.000E+00
      21     1     1     2   501   511  5.482772842E+01 -2.620033535E+01  6.172672536E+01  8.661827752E+01  9.536743164E-07  0.00000E+00  9.000E+00
#rwgt            1           1   3.1121106736372559E-002           5      130222           0
</event>
<event>
      5   9999  3.19816E-02  6.04063E+01 -1.00000E+00  1.34547E-01
      21    -1     0     0   502   501  0.000000000E+00  0.000000000E+00  9.258808191E+01  9.258808191E+01  0.000000000E+00  0.00000E+00  9.000E+00
       2    -1     0     0   501     0  0.000000000E+00  0.000000000E+00 -1.232895697E+03  1.232895697E+03  0.000000000E+00  0.00000E+00  9.000E+00
      25     1     1     2     0     0 -9.392301141E+01 -2.105216897E+02 -2.798233648E+02  3.834931934E+02  1.250000000E+02  0.00000E+00  9.000E+00
      25     1     1     2     0     0  1.317066374E+02  2.576525608E+02 -6.404552193E+02  7.138202634E+02  1.250000000E+02  0.00000E+00  9.000E+00
       2     1     1     2   502     0 -3.778362602E+01 -4.713087110E+01 -2.200290307E+02  2.281703218E+02  2.697398305E-06  0.00000E+00  9.000E+00
#rwgt            1           1   2.6220297255490063E-002           5      130338           0
</event>
<event>
      5   9999  3.19816E-02  3.13524E+01 -1.00000E+00  1.51722E-01
      21    -1     0     0   511   501  0.000000000E+00  0.000000000E+00  3.221165093E+02  3.221165093E+02  0.000000000E+00  0.00000E+00  9.000E+00
      21    -1     0     0   501   502  0.000000000E+00  0.000000000E+00 -6.216716856E+02  6.216716856E+02  0.000000000E+00  0.00000E+00  9.000E+00
      25     1     1     2     0     0  2.881910656E+02  6.755519829E+01  3.757794317E+01  3.235040910E+02  1.250000000E+02  0.00000E+00  9.000E+00
      25     1     1     2     0     0 -2.710819580E+02 -4.128252007E+01 -4.284035463E+02  5.237788397E+02  1.250000000E+02  0.00000E+00  9.000E+00
      21     1     1     2   511   502 -1.710910762E+01 -2.627267822E+01  9.127042684E+01  9.650526411E+01  1.348699152E-06  0.00000E+00  9.000E+00
#rwgt            1           1   2.9474279492134717E-002           5      130413           0
</event>
<event>
      5   9999  3.19816E-02  9.88352E+00 -1.00000E+00  1.96347E-01
      21    -1     0     0   502   512  0.000000000E+00  0.000000000E+00  7.264137174E+02  7.264137174E+02  0.000000000E+00  0.00000E+00  9.000E+00
      21    -1     0     0   501   502  0.000000000E+00  0.000000000E+00 -8.522855517E+01  8.522855517E+01  0.000000000E+00  0.00000E+00  9.000E+00
      25     1     1     2     0     0  9.944151009E-01 -1.268582653E+02  4.663442090E+01  1.841026278E+02  1.250000000E+02  0.00000E+00  9.000E+00
      25     1     1     2     0     0 -7.920122530E+00  1.339094054E+02  5.015436646E+02  5.340088995E+02  1.250000000E+02  0.00000E+00  9.000E+00
      21     1     1     2   501   512  6.925707429E+00 -7.051140111E+00  9.300707672E+01  9.353074532E+01  1.348699152E-06  0.00000E+00  9.000E+00
#rwgt            1           1   2.7633077168624665E-002           5      130526           0
</event>
<event>
      5   9999  3.19816E-02  1.43070E+01 -1.00000E+00  1.79341E-01
       2    -1     0     0   502     0  0.000000000E+00  0.000000000E+00  2.454807937E+03  2.454807937E+03  0.000000000E+00  0.00000E+00  9.000E+00
      21    -1     0     0   501   502  0.000000000E+00  0.000000000E+00 -5.193753497E+02  5.193753497E+02  0.000000000E+00  0.00000E+00  9.000E+00
      25     1     1     2     0     0 -1.403471494E+02 -9.650303259E+01 -7.055844318E+01  2.227412210E+02  1.250000000E+02  0.00000E+00  9.000E+00
      25     1     1     2     0     0  1.520579164E+02  8.828433831E+01 -3.414854001E+02  4.039220380E+02  1.250000000E+02  0.00000E+00  9.000E+00
       2     1     1     2   501     0 -1.171076700E+01  8.218694281E+00  2.347476431E+03  2.347520028E+03  4.315837288E-05  0.00000E+00  9.000E+00
#rwgt            1           1   3.2200484321700168E-002           5      130773           0
</event>
<event>
      5   9999  3.19816E-02  6.84077E+01 -1.00000E+00  1.31729E-01
      21    -1     0     0   502   511  0.000000000E+00  0.000000000E+00  7.798639755E+02  7.798639755E+02  0.000000000E+00  0.00000E+00  9.000E+00
      21    -1     0     0   501   502  0.000000000E+00  0.000000000E+00 -3.319657843E+02  3.319657843E+02  0.000000000E+00  0.00000E+00  9.000E+00
      25     1     1     2     0     0 -1.806458188E+02  8.998659411E+01 -9.059318512E+01  2.540917633E+02  1.250000000E+02  0.00000E+00  9.000E+00
      25     1     1     2     0     0  2.476176728E+02 -7.604464341E+01 -2.630380760E+01  2.888151485E+02  1.250000000E+02  0.00000E+00  9.000E+00
      21     1     1     2   501   511 -6.697185401E+01 -1.394195070E+01  5.647951839E+02  5.689228480E+02  7.629394531E-06  0.00000E+00  9.000E+00
#rwgt            1           1   2.6786683351962756E-002           5      130936           0
</event>
<event>
      5   9999  3.19816E-02  5.54580E+01 -1.00000E+00  1.36556E-01
      21    -1     0     0   512   501  0.000000000E+00  0.000000000E+00  5.924306148E+02  5.924306148E+02  0.000000000E+00  0.00000E+00  9.000E+00
      21    -1     0     0   501   502  0.000000000E+00  0.000000000E+00 -2.776169046E+02  2.776169046E+02  0.000000000E+00  0.00000E+00  9.000E+00
      25     1     1     2     0     0 -2.126316910E+02 -1.559008229E+02  2.500064645E+02  3.842467110E+02  1.250000000E+02  0.00000E+00  9.000E+00
      25     1     1     2     0     0  1.972154233E+02  2.091729874E+02 -8.604419603E+01  3.250782452E+02  1.250000000E+02  0.00000E+00  9.000E+00
      21     1     1     2   512   502  1.541626771E+01 -5.327216446E+01  1.508514418E+02  1.607225631E+02  2.697398305E-06  0.00000E+00  9.000E+00
#rwgt            2          11   1.8705879972351395E-003           5      131034           0
</event>
<event>
      5   9999  3.19816E-02  8.59863E+01 -1.00000E+00  1.26851E-01
       2    -1     0     0   502     0  0.000000000E+00  0.000000000E+00  1.410430764E+03  1.410430764E+03  0.000000000E+00  0.00000E+00  9.000E+00
      21    -1     0     0   501   502  0.000000000E+00  0.000000000E+00 -1.608981391E+02  1.608981391E+02  0.000000000E+00  0.00000E+00  9.000E+00
      25     1     1     2     0     0 -1.064263218E+02  3.108845940E+02  6.464905268E+02  7.359013481E+02  1.250000000E+02  0.00000E+00  9.000E+00
      25     1     1     2     0     0  1.866233831E+02 -3.419019363E+02  2.668776741E+02  4.884402871E+02  1.250000000E+02  0.00000E+00  9.000E+00
       2     1     1     2   501     0 -8.019706132E+01  3.101734228E+01  3.361644236E+02  3.469872676E+02  6.607249480E-06  0.00000E+00  9.000E+00
#rwgt            1           1   2.9024973625558666E-002           5      131054           0
</event>
<event>
      5   9999  3.19816E-02  3.57868E+01 -1.00000E+00  1.47903E-01
      21    -1     0     0   511   501  0.000000000E+00  0.000000000E+00  3.005132780E+02  3.005132780E+02  0.000000000E+00  0.00000E+00  9.000E+00
      21    -1     0     0   501   502  0.000000000E+00  0.000000000E+00 -1.510805217E+03  1.510805217E+03  0.000000000E+00  0.00000E+00  9.000E+00
      25     1     1     2     0     0 -2.192676856E+02 -4.375716869E+02 -7.697250246E+02  9.206785067E+02  1.250000000E+02  0.00000E+00  9.000E+00
      25     1     1     2     0     0  1.898321993E+02  4.172186684E+02 -5.782384560E+02  7.483932076E+02  1.250000000E+02  0.00000E+00  9.000E+00
      21     1     1     2   511   502  2.943548627E+01  2.035301850E+01  1.376715417E+02  1.422467807E+02  4.264961200E-06  0.00000E+00  9.000E+00
#rwgt            1           1   1.6700960500911289E-002           5      131156           0
</event>
<event>
      5   9999  3.19816E-02  3.39658E+01 -1.00000E+00  1.49387E-01
      21    -1     0     0   502   512  0.000000000E+00  0.000000000E+00  4.613805857E+02  4.613805857E+02  0.000000000E+00  0.00000E+00  9.000E+00
      21    -1     0     0   501   502  0.000000000E+00  0.000000000E+00 -1.617394934E+02  1.617394934E+02  0.000000000E+00  0.00000E+00  9.000E+00
      25     1     1     2     0     0 -8.633092960E+00 -1.795296323E+02 -5.919432932E+00  2.190101798E+02  1.250000000E+02  0.00000E+00  9.000E+00
      25     1     1     2     0     0 -2.465506975E+01  1.727789634E+02  2.006822857E+02  2.938687163E+02  1.250000000E+02  0.00000E+00  9.000E+00
      21     1     1     2   501   512  3.328816271E+01  6.750668972E+00  1.048782395E+02  1.102411830E+02  1.907348633E-06  0.00000E+00  9.000E+00
#rwgt            1           1   2.7348229055647922E-002           5      131300           0
</event>
<event>
      5   9999  3.19816E-02  3.94969E+01 -1.00000E+00  1.45182E-01
      21    -1     0     0   502   511  0.000000000E+00  0.000000000E+00  5.960017318E+02  5.960017318E+02  0.000000000E+00  0.00000E+00  9.000E+00
      21    -1     0     0   501   502  0.000000000E+00  0.000000000E+00 -4.158351360E+02  4.158351360E+02  0.000000000E+00  0.00000E+00  9.000E+00
      25     1     1     2     0     0 -1.969504255E+02  3.511799215E+02  3.059316556E+02  5.208992084E+02  1.250000000E+02  0.00000E+00  9.000E+00
      25     1     1     2     0     0  1.757213231E+02 -3.178733257E+02 -1.797109621E+02  4.240783707E+02  1.250000000E+02  0.00000E+00  9.000E+00
      21     1     1     2   501   511  2.122910240E+01 -3.330659580E+01  5.394590233E+01  6.685928874E+01  1.168007728E-06  0.00000E+00  9.000E+00
#rwgt            1           1   3.0642314360261758E-002           5      131380           0
</event>
<event>
      5   9999  3.19816E-02  7.50971E+01 -1.00000E+00  1.29693E-01
      21    -1     0     0   512   501  0.000000000E+00  0.000000000E+00  7.604157652E+02  7.604157652E+02  0.000000000E+00  0.00000E+00  9.000E+00
      21    -1     0     0   501   502  0.000000000E+00  0.000000000E+00 -9.272001135E+02  9.272001135E+02  0.000000000E+00  0.00000E+00  9.000E+00
      25     1     1     2     0     0 -5.984763778E+01 -4.676515155E+02 -1.333103981E+02  5.056444817E+02  1.250000000E+02  0.00000E+00  9.000E+00
      25     1     1     2     0     0  7.259678535E+01  5.416585083E+02 -4.745808224E+02  7.345176580E+02  1.250000000E+02  0.00000E+00  9.000E+00
      21     1     1     2   512   502 -1.274914757E+01 -7.400699282E+01  4.411068723E+02  4.474537390E+02  7.629394531E-06  0.00000E+00  9.000E+00
#rwgt            1           1   2.9507327074321542E-002           5      131516           0
</event>
<event>
      5   9999  3.19816E-02  3.25990E+02 -1.00000E+00  1.04433E-01
      21    -1     0     0   502   501  0.000000000E+00  0.000000000E+00  3.445481284E+02  3.445481284E+02  0.000000000E+00  0.00000E+00  9.000E+00
      21    -1     0     0   511   502  0.000000000E+00  0.000000000E+00 -2.138976518E+03  2.138976518E+03  0.000000000E+00  0.00000E+00  9.000E+00
      25     1     1     2     0     0  2.230301599E+02  5.730022664E+02 -9.124538258E+02  1.107371227E+03  1.250000000E+02  0.00000E+00  9.000E+00
      25     1     1     2     0     0  9.327461095E+01 -4.941299289E+02 -9.832853587E+01  5.274069024E+02  1.250000000E+02  0.00000E+00  9.000E+00
      21     1     1     2   511   501 -3.163047709E+02 -7.887233749E+01 -7.836460283E+02  8.487465177E+02  1.078959322E-05  0.00000E+00  9.000E+00
#rwgt            2          11   1.8806759148898193E-003           5      131772           0
</event>
<event>
      5   9999  3.19816E-02  3.07960E+01 -1.00000E+00  1.52254E-01
       2    -1     0     0   502     0  0.000000000E+00  0.000000000E+00  1.489941600E+03  1.489941600E+03  0.000000000E+00  0.00000E+00  9.000E+00
      21    -1     0     0   501   502  0.000000000E+00  0.000000000E+00 -1.513994918E+02  1.513994918E+02  0.000000000E+00  0.00000E+00  9.000E+00
      25     1     1     2     0     0 -9.688555325E+01  2.895165699E+02  1.826405750E+02  3.770798779E+02  1.250000000E+02  0.00000E+00  9.000E+00
      25     1     1     2     0     0  8.657537082E+01 -2.604976774E+02  3.682681796E+02  4.760260359E+02  1.250000000E+02  0.00000E+00  9.000E+00
       2     1     1     2   501     0  1.031018243E+01 -2.901889258E+01  7.876333539E+02  7.882351782E+02  0.000000000E+00  0.00000E+00  9.000E+00
#rwgt            1           1   2.6512822280456573E-002           5      131822           0
</event>
<event>
      5   9999  3.19816E-02  2.15771E+02 -1.00000E+00  1.10461E-01
       2    -1     0     0   502     0  0.000000000E+00  0.000000000E+00  1.665260112E+03  1.665260112E+03  0.000000000E+00  0.00000E+00  9.000E+00
      21    -1     0     0   501   502  0.000000000E+00  0.000000000E+00 -8.042444891E+02  8.042444891E+02  0.000000000E+00  0.00000E+00  9.000E+00
      25     1     1     2     0     0  4.604839196E+02 -2.345570366E+00 -6.449978631E+02  8.023080364E+02  1.250000000E+02  0.00000E+00  9.000E+00
      25     1     1     2     0     0 -2.575013908E+02  7.552528676E+01  2.349215741E+02  3.779208663E+02  1.250000000E+02  0.00000E+00  9.000E+00
       2     1     1     2   501     0 -2.029825288E+02 -7.317971640E+01  1.271091912E+03  1.289275699E+03  1.525878906E-05  0.00000E+00  9.000E+00
#rwgt            2          18   3.3134192882069880E-003           5      132078           0
</event>
<event>
      5   9999  3.19816E-02  4.03851E+01 -1.00000E+00  1.44583E-01
      21    -1     0     0   502   501  0.000000000E+00  0.000000000E+00  1.117456431E+03  1.117456431E+03  0.000000000E+00  0.00000E+00  9.000E+00
      21    -1     0     0   501   511  0.000000000E+00  0.000000000E+00 -1.436461246E+02  1.436461246E+02  0.000000000E+00  0.00000E+00  9.000E+00
      25     1     1     2     0     0 -7.622990236E+01  5.511770397E+01  1.932052971E+02  2.486005755E+02  1.250000000E+02  0.00000E+00  9.000E+00
      25     1     1     2     0     0  7.401668104E+01 -9.544214079E+01  8.842996779E+02  9.012206121E+02  1.250000000E+02  0.00000E+00  9.000E+00
      21     1     1     2   502   511  2.213221314E+00  4.032443682E+01 -1.036946687E+02  1.112813680E+02  4.046097457E-06  0.00000E+00  9.000E+00
#rwgt            1           1   2.9374441791489885E-002           5      132097           0
</event>
<event>
      5   9999  3.19816E-02  4.96832E+01 -1.00000E+00  1.39233E-01
      21    -1     0     0   502   501  0.000000000E+00  0.000000000E+00  1.875687822E+02  1.875687822E+02  0.000000000E+00  0.00000E+00  9.000E+00
      21    -1     0     0   501   512  0.000000000E+00  0.000000000E+00 -5.467874686E+02  5.467874686E+02  0.000000000E+00  0.00000E+00  9.000E+00
      25     1     1     2     0     0  3.939838276E+01 -9.198208345E+01  1.086493118E+02  1.935009281E+02  1.250000000E+02  0.00000E+00  9.000E+00
      25     1     1     2     0     0 -7.519932002E+01  1.264307178E+02 -2.418690783E+02  3.094597149E+02  1.250000000E+02  0.00000E+00  9.000E+00
      21     1     1     2   502   512  3.580093725E+01 -3.444863432E+01 -2.259989199E+02  2.313956078E+02  2.697398305E-06  0.00000E+00  9.000E+00
#rwgt            1           1   2.8319881508208349E-002           5      132228           0
</event>
<event>
      5   9999  3.19816E-02  3.47397E+01 -1.00000E+00  1.48743E-01
       2    -1     0     0   502     0  0.000000000E+00  0.000000000E+00  7.082266559E+02  7.082266559E+02  0.000000000E+00  0.00000E+00  9.000E+00
      21    -1     0     0   501   502  0.000000000E+00  0.000000000E+00 -8.063768120E+02  8.063768120E+02  0.000000000E+00  0.00000E+00  9.000E+00
      25     1     1     2     0     0 -2.159504191E+02 -1.669617701E+02 -2.640516236E+02  3.998238064E+02  1.250000000E+02  0.00000E+00  9.000E+00
      25     1     1     2     0     0  2.287612519E+02  1.346704669E+02 -4.285178183E+02  5.193460943E+02  1.250000000E+02  0.00000E+00  9.000E+00
       2     1     1     2   501     0 -1.281083275E+01  3.229130318E+01  5.944192858E+02  5.954335673E+02  1.078959322E-05  0.00000E+00  9.000E+00
#rwgt            1           1   2.7710979341624118E-002           5      132372           0
</event>
<event>
      5   9999  3.19816E-02  7.33934E+01 -1.00000E+00  1.30188E-01
      21    -1     0     0   502   501  0.000000000E+00  0.000000000E+00  2.387880470E+02  2.387880470E+02  0.000000000E+00  0.00000E+00  9.000E+00
      21    -1     0     0   501   511  0.000000000E+00  0.000000000E+00 -1.044633647E+03  1.044633647E+03  0.000000000E+00  0.00000E+00  9.000E+00
      25     1     1     2     0     0 -1.136202160E+02 -1.320177751E+02 -2.217075959E+02  3.084112587E+02  1.250000000E+02  0.00000E+00  9.000E+00
      25     1     1     2     0     0  4.717179160E+01  1.008536180E+02  1.574443919E+02  2.298050624E+02  1.250000000E+02  0.00000E+00  9.000E+00
      21     1     1     2   502   511  6.644842435E+01  3.116415708E+01 -7.415823964E+02  7.452053733E+02  0.000000000E+00  0.00000E+00  9.000E+00
#rwgt            1           1   2.8433071905128459E-002           5      132499           0
</event>
<event>
      5   9999  3.19816E-02  2.49819E+01 -1.00000E+00  1.58774E-01
      21    -1     0     0   502   501  0.000000000E+00  0.000000000E+00  7.004941969E+02  7.004941969E+02  0.000000000E+00  0.00000E+00  9.000E+00
      21    -1     0     0   512   502  0.000000000E+00  0.000000000E+00 -1.080220233E+02  1.080220233E+02  0.000000000E+00  0.00000E+00  9.000E+00
      25     1     1     2     0     0 -1.116479410E+02  1.650267448E+02  2.185661543E+02  3.210844952E+02  1.250000000E+02  0.00000E+00  9.000E+00
      25     1     1     2     0     0  1.062640316E+02 -1.406319029E+02  3.979022322E+02  4.527919643E+02  1.250000000E+02  0.00000E+00  9.000E+00
      21     1     1     2   512   501  5.383909386E+00 -2.439484187E+01 -2.399621298E+01  3.463976079E+01  8.259061849E-07  0.00000E+00  9.000E+00
#rwgt            1           1   2.7724336430836202E-002           5      132541           0
</event>
<event>
      5   9999  3.19816E-02  2.94565E+02 -1.00000E+00  1.05851E-01
      21    -1     0     0   502   501  0.000000000E+00  0.000000000E+00  6.689182349E+02  6.689182349E+02  0.000000000E+00  0.00000E+00  9.000E+00
      21    -1     0     0   501   511  0.000000000E+00  0.000000000E+00 -1.009170085E+03  1.009170085E+03  0.000000000E+00  0.00000E+00  9.000E+00
      25     1     1     2     0     0  4.291344428E+02  4.511942364E+02  1.255211867E+02  6.473895097E+02  1.250000000E+02  0.00000E+00  9.000E+00
      25     1     1     2     0     0 -5.762592294E+02 -1.960022225E+02 -3.573749002E+02  7.168217282E+02  1.250000000E+02  0.00000E+00  9.000E+00
      21     1     1     2   502   511  1.471247866E+02 -2.551920139E+02 -1.083981369E+02  3.138770825E+02  3.814697266E-06  0.00000E+00  9.000E+00
#rwgt            2          11   4.5726396918166490E-003           5      132862           0
</event>
<event>
      5   9999  3.19816E-02  5.59574E+01 -1.00000E+00  1.36342E-01
      21    -1     0     0   502   501  0.000000000E+00  0.000000000E+00  4.277787943E+02  4.277787943E+02  0.000000000E+00  0.00000E+00  9.000E+00
      21    -1     0     0   501   512  0.000000000E+00  0.000000000E+00 -2.598340502E+02  2.598340502E+02  0.000000000E+00  0.00000E+00  9.000E+00
      25     1     1     2     0     0  8.952061460E+00  9.202962133E+01 -1.659245874E+02  2.273885646E+02  1.250000000E+02  0.00000E+00  9.000E+00
      25     1     1     2     0     0 -3.684200398E+01 -4.351800451E+01  3.692758527E+02  3.940060981E+02  1.250000000E+02  0.00000E+00  9.000E+00
      21     1     1     2   502   512  2.788994252E+01 -4.851161682E+01 -3.540652115E+01  6.621818179E+01  0.000000000E+00  0.00000E+00  9.000E+00
#rwgt            1           1   2.9672643081410037E-002           5      132897           0
</event>
<event>
      5   9999  3.19816E-02  1.16469E+02 -1.00000E+00  1.20921E-01
      21    -1     0     0   502   501  0.000000000E+00  0.000000000E+00  2.009563348E+02  2.009563348E+02  0.000000000E+00  0.00000E+00  9.000E+00
      21    -1     0     0   501   511  0.000000000E+00  0.000000000E+00 -1.330795876E+03  1.330795876E+03  0.000000000E+00  0.00000E+00  9.000E+00
      25     1     1     2     0     0 -7.858488487E+01  7.558967258E+01 -1.785241203E+02  2.436908785E+02  1.250000000E+02  0.00000E+00  9.000E+00
      25     1     1     2     0     0 -2.938827977E+01 -3.192353647E+01  1.387873823E+02  1.917543237E+02  1.250000000E+02  0.00000E+00  9.000E+00
      21     1     1     2   502   511  1.079731646E+02 -4.366613611E+01 -1.090102803E+03  1.096307009E+03  0.000000000E+00  0.00000E+00  9.000E+00
#rwgt            1           1   2.9789765463423695E-002           5      132969           0
</event>
<event>
      5   9999  3.19816E-02  3.11617E+02 -1.00000E+00  1.05059E-01
       2    -1     0     0   502     0  0.000000000E+00  0.000000000E+00  1.777757103E+03  1.777757103E+03  0.000000000E+00  0.00000E+00  9.000E+00
      21    -1     0     0   501   502  0.000000000E+00  0.000000000E+00 -1.385576936E+02  1.385576936E+02  0.000000000E+00  0.00000E+00  9.000E+00
      25     1     1     2     0     0  6.033127328E+01 -5.686033552E+01  1.971573104E+02  2.477276031E+02  1.250000000E+02  0.00000E+00  9.000E+00
      25     1     1     2     0     0  2.317340907E+02 -5.178028451E+01  9.296499891E+01  2.839883407E+02  1.250000000E+02  0.00000E+00  9.000E+00
       2     1     1     2   501     0 -2.920653639E+02  1.086406200E+02  1.349077100E+03  1.384598852E+03  0.000000000E+00  0.00000E+00  9.000E+00
#rwgt            2          18   6.4551087005670143E-003           5      133092           0
</event>
<event>
      5   9999  3.19816E-02  8.31670E+00 -1.00000E+00  2.05490E-01
      21    -1     0     0   511   501  0.000000000E+00  0.000000000E+00  8.120679854E+01  8.120679854E+01  0.000000000E+00  0.00000E+00  9.000E+00
      21    -1     0     0   501   502  0.000000000E+00  0.000000000E+00 -2.271100090E+03  2.271100090E+03  0.000000000E+00  0.00000E+00  9.000E+00
      25     1     1     2     0     0 -4.491712393E+01 -2.124173553E+02 -1.798143561E+02  3.083778259E+02  1.250000000E+02  0.00000E+00  9.000E+00
      25     1     1     2     0     0  4.366864598E+01  2.041948976E+02 -2.017894044E+03  2.032516637E+03  1.250000000E+02  0.00000E+00  9.000E+00
      21     1     1     2   511   502  1.248477950E+00  8.222457682E+00  7.815109386E+00  1.141242491E+01  2.665600750E-07  0.00000E+00  9.000E+00
#rwgt            1           1   9.1550324770347719E-002           5      133141           0
</event>
<event>
      5   9999  3.19816E-02  3.47008E+01 -1.00000E+00  1.48775E-01
      21    -1     0     0   512   501  0.000000000E+00  0.000000000E+00  2.121220883E+02  2.121220883E+02  0.000000000E+00  0.00000E+00  9.000E+00
      21    -1     0     0   501   502  0.000000000E+00  0.000000000E+00 -3.255223947E+02  3.255223947E+02  0.000000000E+00  0.00000E+00  9.000E+00
      25     1     1     2     0     0 -8.353125792E+01 -3.125438730E+01 -2.661943747E+02  3.073088884E+02  1.250000000E+02  0.00000E+00  9.000E+00
      25     1     1     2     0     0  5.033639729E+01  2.114265827E+01  1.099342666E+02  1.751893486E+02  1.250000000E+02  0.00000E+00  9.000E+00
      21     1     1     2   512   502  3.319486063E+01  1.011172903E+01  4.285980177E+01  5.514624596E+01  4.768371582E-07  0.00000E+00  9.000E+00
#rwgt            1           1   2.3626792973295098E-002           5      133397           0
</event>
<event>
      5   9999  3.44134E-02  1.51885E+02 -1.00000E+00  1.16179E-01
      21    -1     0     0   502   501  0.000000000E+00  0.000000000E+00  6.783006885E+02  6.783006885E+02  0.000000000E+00  0.00000E+00  9.000E+00
      21    -1     0     0   501   511  0.000000000E+00  0.000000000E+00 -2.738388931E+03  2.738388931E+03  0.000000000E+00  0.00000E+00  9.000E+00
      25     1     1     2     0     0  1.068727896E+03  1.955829919E+02 -5.495734453E+02  1.223964049E+03  1.250000000E+02  0.00000E+00  9.000E+00
      25     1     1     2     0     0 -1.160741563E+03 -3.164237944E+02 -7.634081388E+02  1.430336317E+03  1.250000000E+02  0.00000E+00  9.000E+00
      21     1     1     2   502   511  9.201366706E+01  1.208408025E+02 -7.471066587E+02  7.623892535E+02  1.525878906E-05  0.00000E+00  9.000E+00
#rwgt            1           1   7.9906044593464343E-002           5      133595           0
</event>
<event>
      5   9999  3.19816E-02  7.45982E+01 -1.00000E+00  1.29836E-01
       4    -1     0     0   502     0  0.000000000E+00  0.000000000E+00  3.919206465E+02  3.919206465E+02  0.000000000E+00  0.00000E+00  9.000E+00
      21    -1     0     0   501   502  0.000000000E+00  0.000000000E+00 -7.386798069E+02  7.386798069E+02  0.000000000E+00  0.00000E+00  9.000E+00
      25     1     1     2     0     0  1.702709345E+02 -3.180329782E+01 -2.265015002E+02  3.113383537E+02  1.250000000E+02  0.00000E+00  9.000E+00
      25     1     1     2     0     0 -2.447701444E+02  2.796182288E+01 -4.242403195E+02  5.062599488E+02  1.250000000E+02  0.00000E+00  9.000E+00
       4     1     1     2   501     0  7.449920989E+01  3.841474944E+00  3.039826593E+02  3.130021508E+02  3.814697266E-06  0.00000E+00  9.000E+00
#rwgt            1           1   2.8565418790669095E-002           5      133690           0
</event>
<event>
      5   9999  3.19816E-02  2.56586E+02 -1.00000E+00  1.07846E-01
       2    -1     0     0   502     0  0.000000000E+00  0.000000000E+00  2.496197387E+03  2.496197387E+03  0.000000000E+00  0.00000E+00  9.000E+00
      21    -1     0     0   501   502  0.000000000E+00  0.000000000E+00 -1.165624979E+03  1.165624979E+03  0.000000000E+00  0.00000E+00  9.000E+00
      25     1     1     2     0     0  6.334486900E+02 -5.964124142E+02 -7.911989525E+02  1.182618194E+03  1.250000000E+02  0.00000E+00  9.000E+00
      25     1     1     2     0     0 -5.980282490E+02  3.422826194E+02  5.604863642E+02  8.969755529E+02  1.250000000E+02  0.00000E+00  9.000E+00
       2     1     1     2   501     0 -3.542044105E+01  2.541297948E+02  1.561284997E+03  1.582228618E+03  2.157918644E-05  0.00000E+00  9.000E+00
#rwgt            2          18   3.1474697192954170E-003           5      133769           0
</event>
<event>
      5   9999  3.19816E-02  6.10059E+01 -1.00000E+00  1.34319E-01
      21    -1     0     0   502   511  0.000000000E+00  0.000000000E+00  7.700849689E+02  7.700849689E+02  0.000000000E+00  0.00000E+00  9.000E+00
      21    -1     0     0   501   502  0.000000000E+00  0.000000000E+00 -4.612157235E+02  4.612157235E+02  0.000000000E+00  0.00000E+00  9.000E+00
      25     1     1     2     0     0 -4.733896851E+02 -2.470034467E+02  3.521241476E+02  6.517092235E+02  1.250000000E+02  0.00000E+00  9.000E+00
      25     1     1     2     0     0  4.475324979E+02  1.917484005E+02 -7.906687500E+01  5.088510160E+02  1.250000000E+02  0.00000E+00  9.000E+00
      21     1     1     2   501   511  2.585718720E+01  5.525504626E+01  3.581197283E+01  7.074045282E+01  6.743495762E-07  0.00000E+00  9.000E+00
#rwgt            1           1   3.0378732827542429E-002           5      133803           0
</event>
<event>
      5   9999  3.19816E-02  1.59825E+02 -1.00000E+00  1.15312E-01
       1    -1     0     0   502     0  0.000000000E+00  0.000000000E+00  1.696825464E+03  1.696825464E+03  0.000000000E+00  0.00000E+00  9.000E+00
      21    -1     0     0   501   502  0.000000000E+00  0.000000000E+00 -2.097686731E+03  2.097686731E+03  0.000000000E+00  0.00000E+00  9.000E+00
      25     1     1     2     0     0 -9.910400692E+01  3.936850903E+02 -8.403707681E+02  9.416249690E+02  1.250000000E+02  0.00000E+00  9.000E+00
      25     1     1     2     0     0  7.910072077E+01 -2.351170695E+02 -1.186733097E+03  1.218809830E+03  1.250000000E+02  0.00000E+00  9.000E+00
       1     1     1     2   501     0  2.000328615E+01 -1.585680208E+02  1.626242598E+03  1.634077396E+03  3.051757812E-05  0.00000E+00  9.000E+00
#rwgt            1           1   3.1277943663604577E-002           5      133929           0
</event>
<event>
      5   9999  3.19816E-02  7.69829E+01 -1.00000E+00  1.29163E-01
      21    -1     0     0   502   511  0.000000000E+00  0.000000000E+00  2.331642849E+02  2.331642849E+02  0.000000000E+00  0.00000E+00  9.000E+00
      21    -1     0     0   501   502  0.000000000E+00  0.000000000E+00 -4.536521528E+02  4.536521528E+02  0.000000000E+00  0.00000E+00  9.000E+00
      25     1     1     2     0     0 -5.946596891E+01 -3.415642483E+01  1.232548316E+02  1.884664859E+02  1.250000000E+02  0.00000E+00  9.000E+00
      25     1     1     2     0     0  6.256363476E+01 -4.276416842E+01 -3.844245768E+02  4.112787835E+02  1.250000000E+02  0.00000E+00  9.000E+00
      21     1     1     2   501   511 -3.097665857E+00  7.692059325E+01  4.068187727E+01  8.707116824E+01  1.261592536E-06  0.00000E+00  9.000E+00
#rwgt            1           1   2.6944251885925911E-002           5      133976           0
</event>
<event>
      5   9999  3.19816E-02  1.53132E+02 -1.00000E+00  1.16039E-01
      21    -1     0     0   502   501  0.000000000E+00  0.000000000E+00  2.101665403E+03  2.101665403E+03  0.000000000E+00  0.00000E+00  9.000E+00
      -3    -1     0     0     0   502  0.000000000E+00  0.000000000E+00 -4.622668623E+02  4.622668623E+02  0.000000000E+00  0.00000E+00  9.000E+00
      25     1     1     2     0     0  4.277184220E+02 -3.787261582E+02  7.618642160E+02  9.604366897E+02  1.250000000E+02  0.00000E+00  9.000E+00
      25     1     1     2     0     0 -3.496014560E+02  5.104345891E+02  1.138017496E+03  1.301335264E+03  1.250000000E+02  0.00000E+00  9.000E+00
      -3     1     1     2     0   501 -7.811696601E+01 -1.317084309E+02 -2.604831715E+02  3.021603114E+02  5.394796609E-06  0.00000E+00  9.000E+00
#rwgt            1           1   3.0182758734175689E-002           5      134157           0
</event>
<event>
      5   9999  3.19816E-02  1.73653E+02 -1.00000E+00  1.13928E-01
      21    -1     0     0   502   511  0.000000000E+00  0.000000000E+00  8.837455751E+02  8.837455751E+02  0.000000000E+00  0.00000E+00  9.000E+00
      21    -1     0     0   501   502  0.000000000E+00  0.000000000E+00 -1.936994451E+02  1.936994451E+02  0.000000000E+00  0.00000E+00  9.000E+00
      25     1     1     2     0     0 -2.313355633E+02  1.902271294E+02  1.665022040E+02  3.647608635E+02  1.250000000E+02  0.00000E+00  9.000E+00
      25     1     1     2     0     0  2.752832182E+02 -2.222725537E+01  2.737453067E+02  4.084561103E+02  1.250000000E+02  0.00000E+00  9.000E+00
      21     1     1     2   501   511 -4.394765488E+01 -1.679998741E+02  2.497986192E+02  3.042280464E+02  4.672030912E-06  0.00000E+00  9.000E+00
#rwgt            2          11   3.0210846555864751E-003           5      134429           0
</event>
<event>
      5   9999  3.19816E-02  5.25460E+01 -1.00000E+00  1.37856E-01
      21    -1     0     0   502   501  0.000000000E+00  0.000000000E+00  2.910787822E+03  2.910787822E+03  0.000000000E+00  0.00000E+00  9.000E+00
      21    -1     0     0   512   502  0.000000000E+00  0.000000000E+00 -1.834242662E+02  1.834242662E+02  0.000000000E+00  0.00000E+00  9.000E+00
      25     1     1     2     0     0 -1.369828421E+02  3.691714448E+02  7.010415890E+02  8.137174966E+02  1.250000000E+02  0.00000E+00  9.000E+00
      25     1     1     2     0     0  1.873773271E+02 -3.542892009E+02  2.126406440E+03  2.167454832E+03  1.250000000E+02  0.00000E+00  9.000E+00
      21     1     1     2   512   501 -5.039448498E+01 -1.488224388E+01 -1.000844736E+02  1.130397592E+02  6.468133910E-06  0.00000E+00  9.000E+00
#rwgt            1           1   5.2849230079665938E-002           5      134494           0
</event>
<event>
      5   9999  3.19816E-02  4.56074E+01 -1.00000E+00  1.41393E-01
      21    -1     0     0   502   501  0.000000000E+00  0.000000000E+00  5.805686147E+02  5.805686147E+02  0.000000000E+00  0.00000E+00  9.000E+00
      21    -1     0     0   501   511  0.000000000E+00  0.000000000E+00 -1.144731780E+02  1.144731780E+02  0.000000000E+00  0.00000E+00  9.000E+00
      25     1     1     2     0     0 -3.088068528E+01 -6.576594676E+00 -3.350771444E+01  1.332089909E+02  1.250000000E+02  0.00000E+00  9.000E+00
      25     1     1     2     0     0  8.138198851E-01  4.086973812E+01  4.991900673E+02  5.162235186E+02  1.250000000E+02  0.00000E+00  9.000E+00
      21     1     1     2   502   511  3.006686539E+01 -3.429314345E+01  4.130838518E-01  4.560928327E+01  5.704926640E-07  0.00000E+00  9.000E+00
#rwgt            1           1   3.2096906857753460E-002           5      134644           0
</event>
<event>
      5   9999  3.19816E-02  5.67315E+01 -1.00000E+00  1.36016E-01
      -5    -1     0     0     0   501  0.000000000E+00  0.000000000E+00  8.939200346E+02  8.939200346E+02  0.000000000E+00  0.00000E+00  9.000E+00
      21    -1     0     0   501   502  0.000000000E+00  0.000000000E+00 -1.261410324E+03  1.261410324E+03  0.000000000E+00  0.00000E+00  9.000E+00
      25     1     1     2     0     0 -3.525797952E+02  4.696820783E+02 -8.440222989E+02  1.035814852E+03  1.250000000E+02  0.00000E+00  9.000E+00
      25     1     1     2     0     0  3.281255145E+02 -4.184917411E+02 -8.697075889E+01  5.531641741E+02  1.250000000E+02  0.00000E+00  9.000E+00
      -5     1     1     2     0   502  2.445428071E+01 -5.119033721E+01  5.635027681E+02  5.663513328E+02  7.629394531E-06  0.00000E+00  9.000E+00
#rwgt            1           1   3.0484208896963572E-002           5      134785           0
</event>
<event>
      5   9999  3.19816E-02  7.27761E+01 -1.00000E+00  1.30371E-01
      21    -1     0     0   502   501  0.000000000E+00  0.000000000E+00  4.440036550E+02  4.440036550E+02  0.000000000E+00  0.00000E+00  9.000E+00
      21    -1     0     0   511   502  0.000000000E+00  0.000000000E+00 -5.325880736E+02  5.325880736E+02  0.000000000E+00  0.00000E+00  9.000E+00
      25     1     1     2     0     0  1.072861706E+02 -1.546634109E+02  1.777935965E+02  2.875180969E+02  1.250000000E+02  0.00000E+00  9.000E+00
      25     1     1     2     0     0 -1.172184564E+02  2.267585920E+02  1.107102483E+02  3.050268589E+02  1.250000000E+02  0.00000E+00  9.000E+00
      21     1     1     2   511   501  9.932285813E+00 -7.209518112E+01 -3.770882634E+02  3.840467729E+02  5.394796609E-06  0.00000E+00  9.000E+00
#rwgt            1           1   2.8094170571910104E-002           5      134880           0
</event>
<event>
      5   9999  3.19816E-02  3.51995E+01 -1.00000E+00  1.48370E-01
      21    -1     0     0   502   512  0.000000000E+00  0.000000000E+00  3.132770856E+02  3.132770856E+02  0.000000000E+00  0.00000E+00  9.000E+00
      21    -1     0     0   501   502  0.000000000E+00  0.000000000E+00 -2.962792436E+02  2.962792436E+02  0.000000000E+00  0.00000E+00  9.000E+00
      25     1     1     2     0     0 -4.892810046E+00  2.266741197E+01 -2.313124616E+02  2.639473547E+02  1.250000000E+02  0.00000E+00  9.000E+00
      25     1     1     2     0     0 -2.982116973E+01 -1.684134251E+01  4.188897562E+01  1.362080000E+02  1.250000000E+02  0.00000E+00  9.000E+00
      21     1     1     2   501   512  3.471397977E+01 -5.826069458E+00  2.064213280E+02  2.094009745E+02  2.697398305E-06  0.00000E+00  9.000E+00
#rwgt            1           1   3.1928247452106616E-002           5      134943           0
</event>
<event>
      5   9999  3.19816E-02  2.66994E+01 -1.00000E+00  1.56641E-01
      21    -1     0     0   502   501  0.000000000E+00  0.000000000E+00  3.167580623E+02  3.167580623E+02  0.000000000E+00  0.00000E+00  9.000E+00
       2    -1     0     0   501     0  0.000000000E+00  0.000000000E+00 -1.401771152E+03  1.401771152E+03  0.000000000E+00  0.00000E+00  9.000E+00
      25     1     1     2     0     0 -2.692700929E+02 -7.561326807E+01  8.822936221E+01  3.187995759E+02  1.250000000E+02  0.00000E+00  9.000E+00
      25     1     1     2     0     0  2.465218493E+02  6.163559313E+01 -6.421389439E+01  2.903797389E+02  1.250000000E+02  0.00000E+00  9.000E+00
       2     1     1     2   502     0  2.274824359E+01  1.397767494E+01 -1.109028558E+03  1.109349899E+03  2.157918644E-05  0.00000E+00  9.000E+00
#rwgt            1           1   3.0950306294197164E-002           5      135023           0
</event>
<event>
      5   9999  3.19816E-02  1.22954E+01 -1.00000E+00  1.85924E-01
      21    -1     0     0   502   511  0.000000000E+00  0.000000000E+00  5.927196693E+01  5.927196693E+01  0.000000000E+00  0.00000E+00  9.000E+00
      21    -1     0     0   501   502  0.000000000E+00  0.000000000E+00 -6.829793571E+02  6.829793571E+02  0.000000000E+00  0.00000E+00  9.000E+00
      25     1     1     2     0     0  4.200751806E+01  7.056740602E+01 -1.020473368E+02  1.810608995E+02  1.250000000E+02  0.00000E+00  9.000E+00
      25     1     1     2     0     0 -3.119480457E+01 -7.642074527E+01 -5.269339648E+02  5.478116916E+02  1.250000000E+02  0.00000E+00  9.000E+00
      21     1     1     2   501   511 -1.081271349E+01  5.853339245E+00  5.273911482E+00  1.337873296E+01  3.722308873E-07  0.00000E+00  9.000E+00
#rwgt            1           1   3.4637908048433905E-002           5      135139           0
</event>
<event>
      5   9999  3.19816E-02  1.18895E+02 -1.00000E+00  1.20539E-01
       2    -1     0     0   502     0  0.000000000E+00  0.000000000E+00  1.310876155E+03  1.310876155E+03  0.000000000E+00  0.00000E+00  9.000E+00
      21    -1     0     0   501   502  0.000000000E+00  0.000000000E+00 -3.476196747E+02  3.476196747E+02  0.000000000E+00  0.00000E+00  9.000E+00
      25     1     1     2     0     0  4.189253524E+02  2.083152750E+02  4.875625440E+02  6.871942513E+02  1.250000000E+02  0.00000E+00  9.000E+00
      25     1     1     2     0     0 -3.410648406E+02 -2.981696258E+02 -1.121538230E+01  4.700863070E+02  1.250000000E+02  0.00000E+00  9.000E+00
       2     1     1     2   501     0 -7.786051183E+01  8.985435084E+01  4.869093182E+02  5.012152710E+02  5.394796609E-06  0.00000E+00  9.000E+00
#rwgt            1           1   2.8387507095923421E-002           5      135343           0
</event>
<event>
      5   9999  3.19816E-02  3.53082E+00 -1.00000E+00  2.76928E-01
      21    -1     0     0   502   501  0.000000000E+00  0.000000000E+00  2.518879663E+02  2.518879663E+02  0.000000000E+00  0.00000E+00  9.000E+00
      21    -1     0     0   501   511  0.000000000E+00  0.000000000E+00 -1.649374032E+02  1.649374032E+02  0.000000000E+00  0.00000E+00  9.000E+00
      25     1     1     2     0     0  9.210670693E+01  9.747366115E+01 -4.095417746E+01  1.878483557E+02  1.250000000E+02  0.00000E+00  9.000E+00
      25     1     1     2     0     0 -8.866715988E+01 -9.827129880E+01  1.309948025E+02  2.242849787E+02  1.250000000E+02  0.00000E+00  9.000E+00
      21     1     1     2   502   511 -3.439547051E+00  7.976376554E-01 -3.090062006E+00  4.692035054E+00  7.300048300E-08  0.00000E+00  9.000E+00
#rwgt            1           1   3.0384868796756115E-002           5      135509           0
</event>
<event>
      5   9999  3.19816E-02  2.51660E+01 -1.00000E+00  1.58536E-01
      21    -1     0     0   512   501  0.000000000E+00  0.000000000E+00  2.799779691E+02  2.799779691E+02  0.000000000E+00  0.00000E+00  9.000E+00
      21    -1     0     0   501   502  0.000000000E+00  0.000000000E+00 -3.391329779E+02  3.391329779E+02  0.000000000E+00  0.00000E+00  9.000E+00
      25     1     1     2     0     0  3.392987052E+00  2.276942768E+02  5.477745610E+01  2.654840216E+02  1.250000000E+02  0.00000E+00  9.000E+00
      25     1     1     2     0     0  2.124035857E+01 -2.225438469E+02 -1.593859528E+02  3.016716735E+02  1.250000000E+02  0.00000E+00  9.000E+00
      21     1     1     2   512   502 -2.463334562E+01 -5.150429884E+00  4.545348779E+01  5.195525187E+01  0.000000000E+00  0.00000E+00  9.000E+00
#rwgt            1           1   2.7759789765339819E-002           5      135922           0
</event>
<event>
      5   9999  3.19816E-02  7.68948E+01 -1.00000E+00  1.29187E-01
      21    -1     0     0   502   501  0.000000000E+00  0.000000000E+00  1.511597614E+03  1.511597614E+03  0.000000000E+00  0.00000E+00  9.000E+00
      21    -1     0     0   511   502  0.000000000E+00  0.000000000E+00 -2.785979159E+02  2.785979159E+02  0.000000000E+00  0.00000E+00  9.000E+00
      25     1     1     2     0     0  2.290657408E+02 -1.505418555E+02  1.088689963E+03  1.129603824E+03  1.250000000E+02  0.00000E+00  9.000E+00
      25     1     1     2     0     0 -2.690867351E+02  8.488261490E+01  3.346996667E+02  4.552599216E+02  1.250000000E+02  0.00000E+00  9.000E+00
      21     1     1     2   511   501  4.002099424E+01  6.565924057E+01 -1.903899312E+02  2.053317846E+02  3.814697266E-06  0.00000E+00  9.000E+00
#rwgt            1           1   2.6770402769530813E-002           5      136056           0
</event>
<event>
      5   9999  3.19816E-02  3.08671E+02 -1.00000E+00  1.05191E-01
      21    -1     0     0   512   501  0.000000000E+00  0.000000000E+00  9.503243811E+02  9.503243811E+02  0.000000000E+00  0.00000E+00  9.000E+00
      21    -1     0     0   501   502  0.000000000E+00  0.000000000E+00 -1.378723846E+03  1.378723846E+03  0.000000000E+00  0.00000E+00  9.000E+00
      25     1     1     2     0     0 -1.502829910E+02  3.437749414E+02  7.292116016E+01  4.021301821E+02  1.250000000E+02  0.00000E+00  9.000E+00
      25     1     1     2     0     0  4.428475635E+02 -4.421809579E+02 -1.089510977E+03  1.262654796E+03  1.250000000E+02  0.00000E+00  9.000E+00
      21     1     1     2   512   502 -2.925645725E+02  9.840601655E+01  5.881903524E+02  6.642632489E+02  1.321449896E-05  0.00000E+00  9.000E+00
#rwgt            1           1   3.1782659107313704E-002           5      136170           0
</event>
<event>
      5   9999  3.19816E-02  3.47495E+01 -1.00000E+00  1.48735E-01
      21    -1     0     0   502   511  0.000000000E+00  0.000000000E+00  3.343134079E+02  3.343134079E+02  0.000000000E+00  0.00000E+00  9.000E+00
      21    -1     0     0   501   502  0.000000000E+00  0.000000000E+00 -1.011832664E+03  1.011832664E+03  0.000000000E+00  0.00000E+00  9.000E+00
      25     1     1     2     0     0  6.774595825E+01 -3.008821389E+02 -1.395559968E+02  3.608607108E+02  1.250000000E+02  0.00000E+00  9.000E+00
      25     1     1     2     0     0 -5.758652502E+01  3.341133691E+02 -7.169995039E+02  8.029079897E+02  1.250000000E+02  0.00000E+00  9.000E+00
      21     1     1     2   501   511 -1.015943323E+01 -3.323123017E+01  1.790362445E+02  1.823773714E+02  2.697398305E-06  0.00000E+00  9.000E+00
#rwgt            1           1   2.5914038070094490E-002           5      136254           0
</event>
<event>
      5   9999  3.19816E-02  8.44979E+01 -1.00000E+00  1.27210E-01
      21    -1     0     0   502   501  0.000000000E+00  0.000000000E+00  3.914776041E+02  3.914776041E+02  0.000000000E+00  0.00000E+00  9.000E+00
      21    -1     0     0   512   502  0.000000000E+00  0.000000000E+00 -3.636904750E+02  3.636904750E+02  0.000000000E+00  0.00000E+00  9.000E+00
      25     1     1     2     0     0 -7.086606731E+00  1.364417859E+02  2.104305901E+02  2.803080702E+02  1.250000000E+02  0.00000E+00  9.000E+00
      25     1     1     2     0     0 -3.857080084E+01 -2.075423342E+02  2.893759355E+01  2.470301833E+02  1.250000000E+02  0.00000E+00  9.000E+00
      21     1     1     2   512   501  4.565740757E+01  7.110054823E+01 -2.115810545E+02  2.278298256E+02  3.814697266E-06  0.00000E+00  9.000E+00
#rwgt            1           1   2.8553829469079348E-002           5      136416           0
</event>
<event>
      5   9999  3.19816E-02  1.77972E+01 -1.00000E+00  1.70662E-01
      21    -1     0     0   502   501  0.000000000E+00  0.000000000E+00  2.346873196E+02  2.346873196E+02  0.000000000E+00  0.00000E+00  9.000E+00
      21    -1     0     0   511   502  0.000000000E+00  0.000000000E+00 -4.333607186E+02  4.333607186E+02  0.000000000E+00  0.00000E+00  9.000E+00
      25     1     1     2     0     0 -8.477404472E+01  3.471236070E+01  1.890599878E+02  2.444591288E+02  1.250000000E+02  0.00000E+00  9.000E+00
      25     1     1     2     0     0  6.862275867E+01 -2.723728518E+01 -3.737508523E+02  4.009559232E+02  1.250000000E+02  0.00000E+00  9.000E+00
      21     1     1     2   511   501  1.615128605E+01 -7.475075514E+00 -1.398253447E+01  2.263298622E+01  3.769728732E-07  0.00000E+00  9.000E+00
#rwgt            1           1   2.7661212888588329E-002           5      136497           0
</event>
<event>
      5   9999  3.19816E-02  5.43484E+01 -1.00000E+00  1.37040E-01
      21    -1     0     0   512   501  0.000000000E+00  0.000000000E+00  4.944257286E+02  4.944257286E+02  0.000000000E+00  0.00000E+00  9.000E+00
      21    -1     0     0   501   502  0.000000000E+00  0.000000000E+00 -1.302642685E+03  1.302642685E+03  0.000000000E+00  0.00000E+00  9.000E+00
      25     1     1     2     0     0 -3.844568725E+02  5.171645798E+02 -4.017119398E+02  7.695867540E+02  1.250000000E+02  0.00000E+00  9.000E+00
      25     1     1     2     0     0  3.335333653E+02 -5.361526219E+02 -5.671466987E+02  8.578954002E+02  1.250000000E+02  0.00000E+00  9.000E+00
      21     1     1     2   512   502  5.092350718E+01  1.898804215E+01  1.606416821E+02  1.695862594E+02  4.264961200E-06  0.00000E+00  9.000E+00
#rwgt            1           1   2.8824025154026715E-002           5      136615           0
</event>
<event>
      5   9999  3.19816E-02  1.02339E+01 -1.00000E+00  1.94603E-01
      21    -1     0     0   502   501  0.000000000E+00  0.000000000E+00  8.320038316E+01  8.320038316E+01  0.000000000E+00  0.00000E+00  9.000E+00
      21    -1     0     0   511   502  0.000000000E+00  0.000000000E+00 -3.818247349E+03  3.818247349E+03  0.000000000E+00  0.00000E+00  9.000E+00
      25     1     1     2     0     0 -1.249269084E+02 -2.928432261E+02 -1.654002652E+03  1.688997828E+03  1.250000000E+02  0.00000E+00  9.000E+00
      25     1     1     2     0     0  1.351506365E+02  2.923869913E+02 -3.886653539E+02  5.200400029E+02  1.250000000E+02  0.00000E+00  9.000E+00
      21     1     1     2   511   501 -1.022372811E+01  4.562347901E-01 -1.692378959E+03  1.692409902E+03  2.157918644E-05  0.00000E+00  9.000E+00
#rwgt            1           1   2.9601944162952237E-002           5      136739           0
</event>
<event>
      5   9999  3.19816E-02  7.41236E+01 -1.00000E+00  1.29974E-01
      21    -1     0     0   502   512  0.000000000E+00  0.000000000E+00  5.509200194E+01  5.509200194E+01  0.000000000E+00  0.00000E+00  9.000E+00
      21    -1     0     0   501   502  0.000000000E+00  0.000000000E+00 -1.921030628E+03  1.921030628E+03  0.000000000E+00  0.00000E+00  9.000E+00
      25     1     1     2     0     0  1.074402011E+02  5.662982712E+01 -2.130146151E+02  2.752281969E+02  1.250000000E+02  0.00000E+00  9.000E+00
      25     1     1     2     0     0 -8.091654418E+01  1.258580395E+01 -1.606495338E+03  1.613430557E+03  1.250000000E+02  0.00000E+00  9.000E+00
      21     1     1     2   501   512 -2.652365694E+01 -6.921563107E+01 -4.642867222E+01  8.746387578E+01  1.507891493E-06  0.00000E+00  9.000E+00
#rwgt            1           1   2.5133838054923571E-002           5      136975           0
</event>
<event>
      5   9999  3.19816E-02  6.74011E+01 -1.00000E+00  1.32058E-01
       2    -1     0     0   502     0  0.000000000E+00  0.000000000E+00  7.549085793E+02  7.549085793E+02  0.000000000E+00  0.00000E+00  9.000E+00
      21    -1     0     0   501   502  0.000000000E+00  0.000000000E+00 -3.930438474E+02  3.930438474E+02  0.000000000E+00  0.00000E+00  9.000E+00
      25     1     1     2     0     0 -1.534641046E+02 -3.326951442E+02 -1.615133556E+02  4.194625781E+02  1.250000000E+02  0.00000E+00  9.000E+00
      25     1     1     2     0     0  1.033301383E+02  2.876452807E+02  1.751340191E+02  3.737831586E+02  1.250000000E+02  0.00000E+00  9.000E+00
       2     1     1     2   501     0  5.013396625E+01  4.504986356E+01  3.482440684E+02  3.547066901E+02  6.607249480E-06  0.00000E+00  9.000E+00
#rwgt            1           1   2.7000651959770364E-002           5      137057           0
</event>
<event>
      5   9999  3.19816E-02  9.02257E+01 -1.00000E+00  1.25871E-01
       2    -1     0     0   502     0  0.000000000E+00  0.000000000E+00  1.799782854E+03  1.799782854E+03  0.000000000E+00  0.00000E+00  9.000E+00
      21    -1     0     0   501   502  0.000000000E+00  0.000000000E+00 -7.282307595E+01  7.282307595E+01  0.000000000E+00  0.00000E+00  9.000E+00
      25     1     1     2     0     0 -4.207396715E+01  1.081306488E+02  8.183486978E+02  8.359318436E+02  1.250000000E+02  0.00000E+00  9.000E+00
      25     1     1     2     0     0  8.439949966E+00 -2.440833118E+01  4.133074338E+00  1.277070150E+02  1.250000000E+02  0.00000E+00  9.000E+00
       2     1     1     2   501     0  3.363401719E+01 -8.372231765E+01  9.044780063E+02  9.089670717E+02  1.078959322E-05  0.00000E+00  9.000E+00
#rwgt            1           1   2.8053016597093097E-002           5      137136           0
</event>
<event>
      5   9999  3.19816E-02  1.48189E+02 -1.00000E+00  1.16603E-01
      21    -1     0     0   502   501  0.000000000E+00  0.000000000E+00  6.483340434E+02  6.483340434E+02  0.000000000E+00  0.00000E+00  9.000E+00
      21    -1     0     0   501   511  0.000000000E+00  0.000000000E+00 -2.376620044E+03  2.376620044E+03  0.000000000E+00  0.00000E+00  9.000E+00
      25     1     1     2     0     0 -3.757862014E+02  2.133352492E+02 -1.659768990E+02  4.794794352E+02  1.250000000E+02  0.00000E+00  9.000E+00
      25     1     1     2     0     0  2.306551344E+02 -1.833883921E+02  4.364412433E+02  5.412384431E+02  1.250000000E+02  0.00000E+00  9.000E+00
      21     1     1     2   502   511  1.451310671E+02 -2.994685710E+01 -1.998750345E+03  2.004236210E+03  2.157918644E-05  0.00000E+00  9.000E+00
#rwgt            1           1   2.9700930937450035E-002           5      137183           0
</event>
<event>
      5   9999  3.19816E-02  6.07976E+01 -1.00000E+00  1.34398E-01
      21    -1     0     0   512   501  0.000000000E+00  0.000000000E+00  7.395786675E+02  7.395786675E+02  0.000000000E+00  0.00000E+00  9.000E+00
      21    -1     0     0   501   502  0.000000000E+00  0.000000000E+00 -3.558119650E+02  3.558119650E+02  0.000000000E+00  0.00000E+00  9.000E+00
      25     1     1     2     0     0  5.644222414E+01 -2.799999217E+02 -1.255561729E+02  3.361175886E+02  1.250000000E+02  0.00000E+00  9.000E+00
      25     1     1     2     0     0 -4.981063460E+01  2.195651232E+02  1.152334321E+01  2.577745722E+02  1.250000000E+02  0.00000E+00  9.000E+00
      21     1     1     2   512   502 -6.631589537E+00  6.043479848E+01  4.977995321E+02  5.014984716E+02  5.394796609E-06  0.00000E+00  9.000E+00
#rwgt            1           1   2.7326326422017762E-002           5      137250           0
</event>
<event>
      5   9999  3.19816E-02  3.66488E+01 -1.00000E+00  1.47237E-01
      21    -1     0     0   511   501  0.000000000E+00  0.000000000E+00  3.728954052E+02  3.728954052E+02  0.000000000E+00  0.00000E+00  9.000E+00
      21    -1     0     0   501   502  0.000000000E+00  0.000000000E+00 -2.705052554E+02  2.705052554E+02  0.000000000E+00  0.00000E+00  9.000E+00
      25     1     1     2     0     0  2.134159757E+02  1.965629205E+00  1.909508152E+02  3.124699284E+02  1.250000000E+02  0.00000E+00  9.000E+00
      25     1     1     2     0     0 -2.427432277E+02 -2.394388799E+01 -1.011887772E+02  2.921673373E+02  1.250000000E+02  0.00000E+00  9.000E+00
      21     1     1     2   511   502  2.932725206E+01  2.197825878E+01  1.262811181E+01  3.876339485E+01  4.460403188E-07  0.00000E+00  9.000E+00
#rwgt            1           1   2.6870862164145037E-002           5      137384           0
</event>
<event>
      5   9999  3.19816E-02  1.40873E+02 -1.00000E+00  1.17484E-01
      21    -1     0     0   502   501  0.000000000E+00  0.000000000E+00  3.712377866E+02  3.712377866E+02  0.000000000E+00  0.00000E+00  9.000E+00
      -1    -1     0     0     0   502  0.000000000E+00  0.000000000E+00 -1.049540296E+03  1.049540296E+03  0.000000000E+00  0.00000E+00  9.000E+00
      25     1     1     2     0     0 -4.316281764E+02  1.165183293E+02 -5.384935446E+02  7.109709567E+02  1.250000000E+02  0.00000E+00  9.000E+00
      25     1     1     2     0     0  3.456419498E+02 -4.932046280E+00  1.425506116E+02  3.942567176E+02  1.250000000E+02  0.00000E+00  9.000E+00
      -1     1     1     2     0   501  8.598622659E+01 -1.115862830E+02 -2.823595764E+02  3.155504082E+02  6.607249480E-06  0.00000E+00  9.000E+00
#rwgt            1           1   2.8161575868919788E-002           5      137486           0
</event>
<event>
      5   9999  3.19816E-02  8.15133E+01 -1.00000E+00  1.27957E-01
      21    -1     0     0   511   501  0.000000000E+00  0.000000000E+00  1.656706979E+03  1.656706979E+03  0.000000000E+00  0.00000E+00  9.000E+00
      21    -1     0     0   501   502  0.000000000E+00  0.000000000E+00 -3.593312531E+02  3.593312531E+02  0.000000000E+00  0.00000E+00  9.000E+00
      25     1     1     2     0     0 -1.907757070E+02 -4.405203628E+02  7.904143536E+02  9.331845534E+02  1.250000000E+02  0.00000E+00  9.000E+00
      25     1     1     2     0     0  1.092631366E+02  4.401673828E+02 -9.117328864E+01  4.791902821E+02  1.250000000E+02  0.00000E+00  9.000E+00
      21     1     1     2   511   502  8.151257047E+01  3.529799829E-01  5.981346612E+02  6.036633968E+02  1.078959322E-05  0.00000E+00  9.000E+00
#rwgt            1           1   2.9738534267934671E-002           5      137547           0
</event>
<event>
      5   9999  3.19816E-02  3.32237E+02 -1.00000E+00  1.04171E-01
      21    -1     0     0   512   501  0.000000000E+00  0.000000000E+00  2.917535828E+02  2.917535828E+02  0.000000000E+00  0.00000E+00  9.000E+00
      21    -1     0     0   501   502  0.000000000E+00  0.000000000E+00 -1.587324381E+03  1.587324381E+03  0.000000000E+00  0.00000E+00  9.000E+00
      25     1     1     2     0     0  1.695036459E+02  2.908761017E+02 -1.155307070E+03  1.209834624E+03  1.250000000E+02  0.00000E+00  9.000E+00
      25     1     1     2     0     0 -1.102772400E+02  3.603974869E+01  1.507167155E+02  2.275971473E+02  1.250000000E+02  0.00000E+00  9.000E+00
      21     1     1     2   512   502 -5.922640592E+01 -3.269158504E+02 -2.909804444E+02  4.416461926E+02  8.529922400E-06  0.00000E+00  9.000E+00
#rwgt            2          11   3.3106921664272171E-003           5      137858           0
</event>
<event>
      5   9999  3.19816E-02  6.30662E+00 -1.00000E+00  2.22162E-01
      21    -1     0     0   511   501  0.000000000E+00  0.000000000E+00  3.758895937E+02  3.758895937E+02  0.000000000E+00  0.00000E+00  9.000E+00
      21    -1     0     0   501   502  0.000000000E+00  0.000000000E+00 -1.379364078E+02  1.379364078E+02  0.000000000E+00  0.00000E+00  9.000E+00
      25     1     1     2     0     0 -1.054415435E+02  9.139950442E+01 -2.440156003E+01  1.889238594E+02  1.250000000E+02  0.00000E+00  9.000E+00
      25     1     1     2     0     0  1.067590512E+02 -8.523203611E+01  2.560135362E+02  3.159587405E+02  1.250000000E+02  0.00000E+00  9.000E+00
      21     1     1     2   511   502 -1.317507699E+00 -6.167468302E+00  6.341209758E+00  8.943401646E+00  8.429369702E-08  0.00000E+00  9.000E+00
#rwgt            1           1   2.6724669539026462E-002           5      137893           0
</event>
<event>
      5   9999  3.19816E-02  3.47320E+01 -1.00000E+00  1.48749E-01
      21    -1     0     0   512   501  0.000000000E+00  0.000000000E+00  7.880427443E+02  7.880427443E+02  0.000000000E+00  0.00000E+00  9.000E+00
      21    -1     0     0   501   502  0.000000000E+00  0.000000000E+00 -3.475339481E+02  3.475339481E+02  0.000000000E+00  0.00000E+00  9.000E+00
      25     1     1     2     0     0 -4.129278162E+01  4.121042369E+02  5.126967184E+02  6.708337506E+02  1.250000000E+02  0.00000E+00  9.000E+00
      25     1     1     2     0     0  5.086456053E+01 -3.787172095E+02 -1.065108826E+02  4.159128471E+02  1.250000000E+02  0.00000E+00  9.000E+00
      21     1     1     2   512   502 -9.571778909E+00 -3.338702737E+01  3.432296026E+01  4.883009471E+01  9.536743164E-07  0.00000E+00  9.000E+00
#rwgt            1           1   2.9486732832870139E-002           5      138188           0
</event>
<event>
      5   9999  3.19816E-02  1.19787E+02 -1.00000E+00  1.20401E-01
      21    -1     0     0   502   501  0.000000000E+00  0.000000000E+00  3.434635097E+03  3.434635097E+03  0.000000000E+00  0.00000E+00  9.000E+00
      21    -1     0     0   511   502  0.000000000E+00  0.000000000E+00 -1.784112142E+03  1.784112142E+03  0.000000000E+00  0.00000E+00  9.000E+00
      25     1     1     2     0     0 -5.292649922E+02  3.690171962E+02  1.816506632E+03  1.931739234E+03  1.250000000E+02  0.00000E+00  9.000E+00
      25     1     1     2     0     0  5.512663152E+02 -4.867660462E+02  1.469048655E+03  1.647593604E+03  1.250000000E+02  0.00000E+00  9.000E+00
      21     1     1     2   511   501 -2.200132304E+01  1.177488500E+02 -1.635032333E+03  1.639414401E+03  0.000000000E+00  0.00000E+00  9.000E+00
#rwgt            1           1   3.8401679114844198E-002           5      138388           0
</event>
<event>
      5   9999  3.19816E-02  1.38816E+02 -1.00000E+00  1.17743E-01
      21    -1     0     0   502   501  0.000000000E+00  0.000000000E+00  6.531145364E+01  6.531145364E+01  0.000000000E+00  0.00000E+00  9.000E+00
       1    -1     0     0   501     0  0.000000000E+00  0.000000000E+00 -2.384518087E+03  2.384518087E+03  0.000000000E+00  0.00000E+00  9.000E+00
      25     1     1     2     0     0  2.232755530E+02  4.007004647E+01 -9.175059646E+02  9.533623531E+02  1.250000000E+02  0.00000E+00  9.000E+00
      25     1     1     2     0     0 -1.163923015E+02  4.850630331E+01 -1.372411170E+02  2.244106805E+02  1.250000000E+02  0.00000E+00  9.000E+00
       1     1     1     2   502     0 -1.068832515E+02 -8.857634978E+01 -1.264459551E+03  1.272056507E+03  1.525878906E-05  0.00000E+00  9.000E+00
#rwgt            1           1   3.0784256232840489E-002           5      138506           0
</event>
<event>
      5   9999  3.19816E-02  1.42602E+01 -1.00000E+00  1.79478E-01
      21    -1     0     0   502   501  0.000000000E+00  0.000000000E+00  7.422404141E+02  7.422404141E+02  0.000000000E+00  0.00000E+00  9.000E+00
      21    -1     0     0   501   511  0.000000000E+00  0.000000000E+00 -2.018748135E+02  2.018748135E+02  0.000000000E+00  0.00000E+00  9.000E+00
      25     1     1     2     0     0  1.413552275E+02  5.126230300E+01  1.385158277E+02  2.396262894E+02  1.250000000E+02  0.00000E+00  9.000E+00
      25     1     1     2     0     0 -1.491394203E+02 -3.931406046E+01  5.349638264E+02  5.706132294E+02  1.250000000E+02  0.00000E+00  9.000E+00
      21     1     1     2   502   511  7.784192805E+00 -1.194824255E+01 -1.331140535E+02  1.338757088E+02  0.000000000E+00  0.00000E+00  9.000E+00
#rwgt            1           1   3.1900067696607255E-002           5      138587           0
</event>
<event>
      5   9999  3.19816E-02  2.64135E+02 -1.00000E+00  1.07420E-01
      21    -1     0     0   502   501  0.000000000E+00  0.000000000E+00  4.826066330E+02  4.826066330E+02  0.000000000E+00  0.00000E+00  9.000E+00
       1    -1     0     0   501     0  0.000000000E+00  0.000000000E+00 -5.125312587E+02  5.125312587E+02  0.000000000E+00  0.00000E+00  9.000E+00
      25     1     1     2     0     0  2.853394781E+02 -1.988439476E+02 -6.949755019E+01  3.760484580E+02  1.250000000E+02  0.00000E+00  9.000E+00
      25     1     1     2     0     0 -3.151305021E+02 -6.360549560E+01  7.382334124E+01  3.527432184E+02  1.250000000E+02  0.00000E+00  9.000E+00
       1     1     1     2   502     0  2.979102401E+01  2.624494432E+02 -3.425041674E+01  2.663462153E+02  2.939421655E-06  0.00000E+00  9.000E+00
#rwgt            2          12   1.4225965752340925E-004           5      138719           0
</event>
<event>
      5   9999  3.19816E-02  1.39150E+01 -1.00000E+00  1.80512E-01
      21    -1     0     0   502   511  0.000000000E+00  0.000000000E+00  5.960597803E+02  5.960597803E+02  0.000000000E+00  0.00000E+00  9.000E+00
      21    -1     0     0   501   502  0.000000000E+00  0.000000000E+00 -4.017293667E+02  4.017293667E+02  0.000000000E+00  0.00000E+00  9.000E+00
      25     1     1     2     0     0 -1.970938926E+02 -1.215250030E+02 -9.019807098E+00  2.632882180E+02  1.250000000E+02  0.00000E+00  9.000E+00
      25     1     1     2     0     0  1.958443792E+02  1.076662204E+02 -2.037024303E+02  3.272105071E+02  1.250000000E+02  0.00000E+00  9.000E+00
      21     1     1     2   501   511  1.249513372E+00  1.385878251E+01  4.070526509E+02  4.072904219E+02  9.344061824E-06  0.00000E+00  9.000E+00
#rwgt            1           1   2.9327885200860888E-002           5      138738           0
</event>
<event>
      5   9999  3.19816E-02  4.21379E+01 -1.00000E+00  1.43452E-01
      21    -1     0     0   502   501  0.000000000E+00  0.000000000E+00  4.552213854E+02  4.552213854E+02  0.000000000E+00  0.00000E+00  9.000E+00
       1    -1     0     0   501     0  0.000000000E+00  0.000000000E+00 -5.158793961E+02  5.158793961E+02  0.000000000E+00  0.00000E+00  9.000E+00
      25     1     1     2     0     0 -1.725547076E+02 -2.821011680E+02  9.378115965E+01  3.657541551E+02  1.250000000E+02  0.00000E+00  9.000E+00
      25     1     1     2     0     0  1.642996554E+02  2.407798324E+02  1.114208430E+02  3.361679769E+02  1.250000000E+02  0.00000E+00  9.000E+00
       1     1     1     2   502     0  8.255052185E+00  4.132133564E+01 -2.658600133E+02  2.691786495E+02  3.814697266E-06  0.00000E+00  9.000E+00
#rwgt            1           1   2.7712358361844793E-002           5      138967           0
</event>
<event>
      5   9999  3.19816E-02  2.58011E+01 -1.00000E+00  1.57732E-01
      21    -1     0     0   502   501  0.000000000E+00  0.000000000E+00  3.647620994E+02  3.647620994E+02  0.000000000E+00  0.00000E+00  9.000E+00
      21    -1     0     0   501   511  0.000000000E+00  0.000000000E+00 -1.275865287E+02  1.275865287E+02  0.000000000E+00  0.00000E+00  9.000E+00
      25     1     1     2     0     0  1.228285440E+02 -1.116676600E+02  1.477058977E+02  2.549481315E+02  1.250000000E+02  0.00000E+00  9.000E+00
      25     1     1     2     0     0 -1.209865479E+02  8.593242379E+01  7.707434138E+01  2.087763884E+02  1.250000000E+02  0.00000E+00  9.000E+00
      21     1     1     2   502   511 -1.841996049E+00  2.573523621E+01  1.239533159E+01  2.862410832E+01  4.129530925E-07  0.00000E+00  9.000E+00
#rwgt            1           1   2.9393145518343159E-002           5      139060           0
</event>
<event>
      5   9999  3.19816E-02  3.90275E+01 -1.00000E+00  1.45506E-01
      21    -1     0     0   502   512  0.000000000E+00  0.000000000E+00  1.220661522E+03  1.220661522E+03  0.000000000E+00  0.00000E+00  9.000E+00
      21    -1     0     0   501   502  0.000000000E+00  0.000000000E+00 -7.581635842E+01  7.581635842E+01  0.000000000E+00  0.00000E+00  9.000E+00
      25     1     1     2     0     0 -1.318498395E+02 -2.262739054E+02  6.550694672E+02  7.164672130E+02  1.250000000E+02  0.00000E+00  9.000E+00
      25     1     1     2     0     0  1.155982200E+02  1.907910550E+02  3.411594870E+02  4.263554511E+02  1.250000000E+02  0.00000E+00  9.000E+00
      21     1     1     2   501   512  1.625161953E+01  3.548285044E+01  1.486162094E+02  1.536552164E+02  4.264961200E-06  0.00000E+00  9.000E+00
#rwgt            1           1   2.9865264115190440E-002           5      139208           0
</event>
<event>
      5   9999  3.19816E-02  9.42277E+01 -1.00000E+00  1.25001E-01
      21    -1     0     0   502   501  0.000000000E+00  0.000000000E+00  1.461193439E+02  1.461193439E+02  0.000000000E+00  0.00000E+00  9.000E+00
      21    -1     0     0   511   502  0.000000000E+00  0.000000000E+00 -1.838264217E+03  1.838264217E+03  0.000000000E+00  0.00000E+00  9.000E+00
      25     1     1     2     0     0  3.367078366E+02 -3.915759309E+01 -1.082871287E+03  1.141551886E+03  1.250000000E+02  0.00000E+00  9.000E+00
      25     1     1     2     0     0 -4.286670171E+02  1.860611214E+01 -3.521253614E+02  5.689629769E+02  1.250000000E+02  0.00000E+00  9.000E+00
      21     1     1     2   511   501  9.195918049E+01  2.055148095E+01 -2.571482243E+02  2.738686976E+02  3.814697266E-06  0.00000E+00  9.000E+00
#rwgt            1           1   3.0049468720736241E-002           5      139324           0
</event>
<event>
      5   9999  3.19816E-02  2.56380E+02 -1.00000E+00  1.07858E-01
      21    -1     0     0   512   501  0.000000000E+00  0.000000000E+00  1.429703069E+02  1.429703069E+02  0.000000000E+00  0.00000E+00  9.000E+00
      21    -1     0     0   501   502  0.000000000E+00  0.000000000E+00 -2.143905715E+03  2.143905715E+03  0.000000000E+00  0.00000E+00  9.000E+00
      25     1     1     2     0     0  4.415043006E+01  3.806989642E+01 -4.779960499E+01  1.459739008E+02  1.250000000E+02  0.00000E+00  9.000E+00
      25     1     1     2     0     0  2.122174174E+02 -4.054824262E+01 -1.846393141E+03  1.863188939E+03  1.250000000E+02  0.00000E+00  9.000E+00
      21     1     1     2   512   502 -2.563678475E+02  2.478346200E+00 -1.067426621E+02  2.777131818E+02  3.568322551E-06  0.00000E+00  9.000E+00
#rwgt            2          11   1.8609536278342470E-002           5      139514           0
</event>
<event>
      5   9999  3.19816E-02  2.66467E+02 -1.00000E+00  1.07292E-01
      21    -1     0     0   502   501  0.000000000E+00  0.000000000E+00  2.718493649E+02  2.718493649E+02  0.000000000E+00  0.00000E+00  9.000E+00
      21    -1     0     0   511   502  0.000000000E+00  0.000000000E+00 -1.340012616E+03  1.340012616E+03  0.000000000E+00  0.00000E+00  9.000E+00
      25     1     1     2     0     0  1.235940638E+02 -1.418469945E+02 -7.964469007E+02  8.278579154E+02  1.250000000E+02  0.00000E+00  9.000E+00
      25     1     1     2     0     0  1.422019805E+02  1.229431205E+02  1.599836010E+02  2.766878507E+02  1.250000000E+02  0.00000E+00  9.000E+00
      21     1     1     2   511   501 -2.657960443E+02  1.890387399E+01 -4.316999515E+02  5.073162148E+02  1.078959322E-05  0.00000E+00  9.000E+00
#rwgt            1           1   2.8841343255055794E-002           5      139534           0
</event>
<event>
      5   9999  3.19816E-02  6.68783E+01 -1.00000E+00  1.32232E-01
      21    -1     0     0   502   501  0.000000000E+00  0.000000000E+00  7.791203272E+02  7.791203272E+02  0.000000000E+00  0.00000E+00  9.000E+00
      21    -1     0     0   501   512  0.000000000E+00  0.000000000E+00 -1.326839268E+03  1.326839268E+03  0.000000000E+00  0.00000E+00  9.000E+00
      25     1     1     2     0     0  7.403335863E+02  1.817183922E+02  3.367524381E+02  8.426995892E+02  1.250000000E+02  0.00000E+00  9.000E+00
      25     1     1     2     0     0 -7.944631687E+02 -2.209954957E+02 -8.338682914E+02  1.179394787E+03  1.250000000E+02  0.00000E+00  9.000E+00
      21     1     1     2   502   512  5.412958240E+01  3.927710349E+01 -5.060308763E+01  8.386521941E+01  9.536743164E-07  0.00000E+00  9.000E+00
#rwgt            1           1   3.4622841650837087E-002           5      139599           0
</event>
<event>
      5   9999  3.19816E-02  2.27189E+02 -1.00000E+00  1.09669E-01
      21    -1     0     0   511   501  0.000000000E+00  0.000000000E+00  4.943365710E+02  4.943365710E+02  0.000000000E+00  0.00000E+00  9.000E+00
      21    -1     0     0   501   502  0.000000000E+00  0.000000000E+00 -4.433693367E+02  4.433693367E+02  0.000000000E+00  0.00000E+00  9.000E+00
      25     1     1     2     0     0 -2.365223557E+02 -7.090925957E+01 -2.225886061E+02  3.551642372E+02  1.250000000E+02  0.00000E+00  9.000E+00
      25     1     1     2     0     0  1.969355439E+02 -1.528045351E+02  9.851462420E+01  2.957413829E+02  1.250000000E+02  0.00000E+00  9.000E+00
      21     1     1     2   511   502  3.958681179E+01  2.237137946E+02  1.750412162E+02  2.868002876E+02  4.672030912E-06  0.00000E+00  9.000E+00
#rwgt            1           1   2.6639603180346486E-002           5      139769           0
</event>
<event>
      5   9999  3.19816E-02  2.40677E+01 -1.00000E+00  1.59997E-01
      21    -1     0     0   502   512  0.000000000E+00  0.000000000E+00  6.538092338E+02  6.538092338E+02  0.000000000E+00  0.00000E+00  9.000E+00
      21    -1     0     0   501   502  0.000000000E+00  0.000000000E+00 -1.694653223E+03  1.694653223E+03  0.000000000E+00  0.00000E+00  9.000E+00
      25     1     1     2     0     0 -7.405970783E+02  4.004177177E+02 -1.071118941E+03  1.368115188E+03  1.250000000E+02  0.00000E+00  9.000E+00
      25     1     1     2     0     0  7.621623715E+02 -3.897317097E+02 -7.876420011E+01  8.686835357E+02  1.250000000E+02  0.00000E+00  9.000E+00
      21     1     1     2   501   512 -2.156529314E+01 -1.068600799E+01  1.090391520E+02  1.116637332E+02  1.907348633E-06  0.00000E+00  9.000E+00
#rwgt            1           1   3.8813122147016745E-002           5      139805           0
</event>
<event>
      5   9999  3.19816E-02  3.26927E+01 -1.00000E+00  1.50492E-01
      21    -1     0     0   502   501  0.000000000E+00  0.000000000E+00  5.469162162E+02  5.469162162E+02  0.000000000E+00  0.00000E+00  9.000E+00
      21    -1     0     0   501   511  0.000000000E+00  0.000000000E+00 -2.212567930E+02  2.212567930E+02  0.000000000E+00  0.00000E+00  9.000E+00
      25     1     1     2     0     0  2.197228572E+01 -9.836611342E+01 -8.915394098E+01  1.836630034E+02  1.250000000E+02  0.00000E+00  9.000E+00
      25     1     1     2     0     0 -5.068658002E+01  8.273598615E+01  4.833405684E+02  5.085837963E+02  1.250000000E+02  0.00000E+00  9.000E+00
      21     1     1     2   502   511  2.871429430E+01  1.563012728E+01 -6.852720420E+01  7.592620951E+01  1.348699152E-06  0.00000E+00  9.000E+00
#rwgt            1           1   2.7458698746828509E-002           5      140016           0
</event>
<event>
      5   9999  3.19816E-02  1.13741E+02 -1.00000E+00  1.21364E-01
      21    -1     0     0   502   501  0.000000000E+00  0.000000000E+00  9.373381814E+02  9.373381814E+02  0.000000000E+00  0.00000E+00  9.000E+00
      21    -1     0     0   501   512  0.000000000E+00  0.000000000E+00 -1.823057531E+02  1.823057531E+02  0.000000000E+00  0.00000E+00  9.000E+00
      25     1     1     2     0     0 -1.032053689E+02  1.718339533E+02  2.644236404E+02  3.545745582E+02  1.250000000E+02  0.00000E+00  9.000E+00
      25     1     1     2     0     0  1.059598081E+02 -2.855411437E+02  5.467579145E+02  6.382244454E+02  1.250000000E+02  0.00000E+00  9.000E+00
      21     1     1     2   502   512 -2.754439148E+00  1.137071903E+02 -5.614912670E+01  1.268449309E+02  3.234066955E-06  0.00000E+00  9.000E+00
#rwgt            1           1   2.7067280707596751E-002           5      140244           0
</event>
<event>
      5   9999  3.19816E-02  3.68631E+01 -1.00000E+00  1.47075E-01
      21    -1     0     0   502   511  0.000000000E+00  0.000000000E+00  4.802745182E+02  4.802745182E+02  0.000000000E+00  0.00000E+00  9.000E+00
      21    -1     0     0   501   502  0.000000000E+00  0.000000000E+00 -1.338947809E+03  1.338947809E+03  0.000000000E+00  0.00000E+00  9.000E+00
      25     1     1     2     0     0 -6.132213578E+01 -1.653910988E+02 -1.791059498E+02  2.807464357E+02  1.250000000E+02  0.00000E+00  9.000E+00
      25     1     1     2     0     0  3.395724636E+01  1.900903696E+02 -1.096271456E+03  1.120144432E+03  1.250000000E+02  0.00000E+00  9.000E+00
      21     1     1     2   501   511  2.736488942E+01 -2.469927082E+01  4.167041147E+02  4.183314599E+02  9.344061824E-06  0.00000E+00  9.000E+00
#rwgt            1           1   3.0601614489696692E-002           5      140304           0
</event>
<event>
      5   9999  3.19816E-02  1.75739E+01 -1.00000E+00  1.71140E-01
       1    -1     0     0   502     0  0.000000000E+00  0.000000000E+00  4.105790348E+02  4.105790348E+02  0.000000000E+00  0.00000E+00  9.000E+00
      21    -1     0     0   501   502  0.000000000E+00  0.000000000E+00 -3.399699016E+02  3.399699016E+02  0.000000000E+00  0.00000E+00  9.000E+00
      25     1     1     2     0     0 -4.157163181E+00 -2.327922159E+02 -6.562486232E+01  2.722886710E+02  1.250000000E+02  0.00000E+00  9.000E+00
      25     1     1     2     0     0 -8.591366827E+00  2.206960919E+02 -7.629740141E+01  2.650035284E+02  1.250000000E+02  0.00000E+00  9.000E+00
       1     1     1     2   501     0  1.274853001E+01  1.209612395E+01  2.125313970E+02  2.132567371E+02  3.814697266E-06  0.00000E+00  9.000E+00
#rwgt            1           1   2.8443862233971481E-002           5      140472           0
</event>
<event>
      5   9999  3.19816E-02  1.39068E+02 -1.00000E+00  1.17711E-01
      21    -1     0     0   511   501  0.000000000E+00  0.000000000E+00  7.533577972E+02  7.533577972E+02  0.000000000E+00  0.00000E+00  9.000E+00
      21    -1     0     0   501   502  0.000000000E+00  0.000000000E+00 -1.494246276E+02  1.494246276E+02  0.000000000E+00  0.00000E+00  9.000E+00
      25     1     1     2     0     0  1.083636967E+02 -2.616560155E+01 -6.492731310E+01  1.796326403E+02  1.250000000E+02  0.00000E+00  9.000E+00
      25     1     1     2     0     0  2.958155716E+01  4.380241544E+01  3.409702397E+02  3.669869541E+02  1.250000000E+02  0.00000E+00  9.000E+00
      21     1     1     2   511   502 -1.379452538E+02 -1.763681389E+01  3.278902430E+02  3.561628304E+02  7.629394531E-06  0.00000E+00  9.000E+00
#rwgt            1           1   2.3121558535122003E-002           5      140630           0
</event>
<event>
      5   9999  3.19816E-02  9.48652E+01 -1.00000E+00  1.24866E-01
      21    -1     0     0   502   501  0.000000000E+00  0.000000000E+00  1.108246332E+03  1.108246332E+03  0.000000000E+00  0.00000E+00  9.000E+00
      21    -1     0     0   512   502  0.000000000E+00  0.000000000E+00 -1.560209640E+02  1.560209640E+02  0.000000000E+00  0.00000E+00  9.000E+00
      25     1     1     2     0     0  1.207151154E+02 -1.887696210E+01  2.373137418E+02  2.947393609E+02  1.250000000E+02  0.00000E+00  9.000E+00
      25     1     1     2     0     0 -2.126042062E+02 -4.698487277E+00  8.030230971E+02  8.400557831E+02  1.250000000E+02  0.00000E+00  9.000E+00
      21     1     1     2   512   501  9.188909087E+01  2.357544938E+01 -8.811147100E+01  1.294721520E+02  1.907348633E-06  0.00000E+00  9.000E+00
#rwgt            1           1   3.0493668228287519E-002           5      140683           0
</event>
<event>
      5   9999  3.19816E-02  4.04426E+01 -1.00000E+00  1.44544E-01
      21    -1     0     0   502   501  0.000000000E+00  0.000000000E+00  2.181379986E+02  2.181379986E+02  0.000000000E+00  0.00000E+00  9.000E+00
      21    -1     0     0   501   511  0.000000000E+00  0.000000000E+00 -5.846765809E+02  5.846765809E+02  0.000000000E+00  0.00000E+00  9.000E+00
      25     1     1     2     0     0  2.853084814E+02  1.284447543E+02 -1.445120808E+02  3.666165926E+02  1.250000000E+02  0.00000E+00  9.000E+00
      25     1     1     2     0     0 -2.546339697E+02 -1.548015757E+02 -1.561573092E+02  3.589040145E+02  1.250000000E+02  0.00000E+00  9.000E+00
      21     1     1     2   502   511 -3.067451161E+01  2.635682141E+01 -6.586919227E+01  7.729397252E+01  9.536743164E-07  0.00000E+00  9.000E+00
#rwgt            1           1   2.8670920862465435E-002           5      140780           0
</event>
<event>
      5   9999  3.19816E-02  6.21549E+00 -1.00000E+00  2.23118E-01
      21    -1     0     0   502   512  0.000000000E+00  0.000000000E+00  6.024027334E+02  6.024027334E+02  0.000000000E+00  0.00000E+00  9.000E+00
      21    -1     0     0   501   502  0.000000000E+00  0.000000000E+00 -8.598258385E+02  8.598258385E+02  0.000000000E+00  0.00000E+00  9.000E+00
      25     1     1     2     0     0 -4.230960742E+02 -3.255600110E+02  3.365486489E+02  6.433425230E+02  1.250000000E+02  0.00000E+00  9.000E+00
      25     1     1     2     0     0  4.262797275E+02  3.308982360E+02 -5.945998209E+02  8.126389086E+02  1.250000000E+02  0.00000E+00  9.000E+00
      21     1     1     2   501   512 -3.183653252E+00 -5.338225036E+00  6.280669553E-01  6.247140359E+00  1.463806831E-07  0.00000E+00  9.000E+00
#rwgt            1           1   3.5010601724433786E-002           5      140899           0
</event>
<event>
      5   9999  3.19816E-02  5.05842E+01 -1.00000E+00  1.38788E-01
      21    -1     0     0   502   501  0.000000000E+00  0.000000000E+00  1.845387735E+03  1.845387735E+03  0.000000000E+00  0.00000E+00  9.000E+00
      21    -1     0     0   501   511  0.000000000E+00  0.000000000E+00 -3.997963589E+02  3.997963589E+02  0.000000000E+00  0.00000E+00  9.000E+00
      25     1     1     2     0     0 -3.365826646E-01 -2.449368650E+02  1.713119832E+03  1.735050069E+03  1.250000000E+02  0.00000E+00  9.000E+00
      25     1     1     2     0     0 -4.700134903E+01  2.271077579E+02 -2.756821446E+01  2.649001075E+02  1.250000000E+02  0.00000E+00  9.000E+00
      21     1     1     2   502   511  4.733793169E+01  1.782910715E+01 -2.399602417E+02  2.452339177E+02  8.946258087E-06  0.00000E+00  9.000E+00
#rwgt            1           1   3.1928801056781482E-002           5      141265           0
</event>
<event>
      5   9999  3.19816E-02  3.52426E+01 -1.00000E+00  1.48335E-01
      21    -1     0     0   502   501  0.000000000E+00  0.000000000E+00  2.202575074E+02  2.202575074E+02  0.000000000E+00  0.00000E+00  9.000E+00
      21    -1     0     0   501   512  0.000000000E+00  0.000000000E+00 -2.951721528E+02  2.951721528E+02  0.000000000E+00  0.00000E+00  9.000E+00
      25     1     1     2     0     0 -1.041330112E+02  1.538948111E+02 -5.632382393E-01  2.239477933E+02  1.250000000E+02  0.00000E+00  9.000E+00
      25     1     1     2     0     0  8.866391761E+01 -1.855609938E+02 -4.333493613E+01  2.445344340E+02  1.250000000E+02  0.00000E+00  9.000E+00
      21     1     1     2   502   512  1.546909363E+01  3.166618272E+01 -3.101647095E+01  4.694743290E+01  1.011524364E-06  0.00000E+00  9.000E+00
#rwgt            1           1   2.8398247574905406E-002           5      141371           0
</event>
<event>
      5   9999  3.19816E-02  3.45836E+02 -1.00000E+00  1.03624E-01
       5    -1     0     0   502     0  0.000000000E+00  0.000000000E+00  1.968523072E+03  1.968523072E+03  0.000000000E+00  0.00000E+00  9.000E+00
      21    -1     0     0   501   502  0.000000000E+00  0.000000000E+00 -2.334258316E+02  2.334258316E+02  0.000000000E+00  0.00000E+00  9.000E+00
      25     1     1     2     0     0  1.485434898E+02  1.041964180E+01  5.315495094E+02  5.659890620E+02  1.250000000E+02  0.00000E+00  9.000E+00
      25     1     1     2     0     0 -1.351138150E+02  3.351552719E+02 -1.387547135E+00  3.823764174E+02  1.250000000E+02  0.00000E+00  9.000E+00
       5     1     1     2   501     0 -1.342967482E+01 -3.455749137E+02  1.204935278E+03  1.253583425E+03  0.000000000E+00  0.00000E+00  9.000E+00
#rwgt            2          21   8.7141280480357128E-006           5      141519           0
</event>
<event>
      5   9999  3.19816E-02  1.99701E+02 -1.00000E+00  1.11672E-01
      21    -1     0     0   502   501  0.000000000E+00  0.000000000E+00  3.130493057E+02  3.130493057E+02  0.000000000E+00  0.00000E+00  9.000E+00
       1    -1     0     0   501     0  0.000000000E+00  0.000000000E+00 -1.143631263E+03  1.143631263E+03  0.000000000E+00  0.00000E+00  9.000E+00
      25     1     1     2     0     0  2.717051946E+02  1.682510022E+02 -1.192490817E+02  3.632870160E+02  1.250000000E+02  0.00000E+00  9.000E+00
      25     1     1     2     0     0 -3.149453948E+02  2.671240656E+01  1.488182880E+01  3.402214326E+02  1.250000000E+02  0.00000E+00  9.000E+00
       1     1     1     2   502     0  4.324020019E+01 -1.949634087E+02 -7.262147046E+02  7.531721204E+02  0.000000000E+00  0.00000E+00  9.000E+00
#rwgt            1           1   2.6565477594914549E-002           5      141538           0
</event>
<event>
      5   9999  3.19816E-02  3.91614E+01 -1.00000E+00  1.45413E-01
      21    -1     0     0   511   501  0.000000000E+00  0.000000000E+00  5.750962266E+02  5.750962266E+02  0.000000000E+00  0.00000E+00  9.000E+00
      21    -1     0     0   501   502  0.000000000E+00  0.000000000E+00 -4.035739234E+02  4.035739234E+02  0.000000000E+00  0.00000E+00  9.000E+00
      25     1     1     2     0     0  2.474193364E+02  7.029471900E+01  4.421092720E+02  5.265389671E+02  1.250000000E+02  0.00000E+00  9.000E+00
      25     1     1     2     0     0 -2.147694971E+02 -4.867053157E+01 -3.074817226E+02  3.983274624E+02  1.250000000E+02  0.00000E+00  9.000E+00
      21     1     1     2   511   502 -3.264983924E+01 -2.162418743E+01  3.689475384E+01  5.380372055E+01  4.768371582E-07  0.00000E+00  9.000E+00
#rwgt            1           1   3.3973280244890526E-002           5      141611           0
</event>
<event>
      5   9999  3.19816E-02  4.97006E+01 -1.00000E+00  1.39224E-01
      21    -1     0     0   512   501  0.000000000E+00  0.000000000E+00  3.518286761E+01  3.518286761E+01  0.000000000E+00  0.00000E+00  9.000E+00
      21    -1     0     0   501   502  0.000000000E+00  0.000000000E+00 -2.115180641E+03  2.115180641E+03  0.000000000E+00  0.00000E+00  9.000E+00
      25     1     1     2     0     0  5.183409486E+01 -1.545655970E+02 -1.267873654E+03  1.284408775E+03  1.250000000E+02  0.00000E+00  9.000E+00
      25     1     1     2     0     0 -2.247581082E+00  1.579315816E+02 -7.826878836E+02  8.081910413E+02  1.250000000E+02  0.00000E+00  9.000E+00
      21     1     1     2   512   502 -4.958651378E+01 -3.365984640E+00 -2.943623500E+01  5.776369216E+01  1.581489940E-06  0.00000E+00  9.000E+00
#rwgt            1           1   7.1180156676207681E-002           5      141733           0
</event>
<event>
      5   9999  3.19816E-02  6.08231E+01 -1.00000E+00  1.34388E-01
      21    -1     0     0   502   511  0.000000000E+00  0.000000000E+00  2.864193686E+02  2.864193686E+02  0.000000000E+00  0.00000E+00  9.000E+00
      21    -1     0     0   501   502  0.000000000E+00  0.000000000E+00 -1.812954452E+02  1.812954452E+02  0.000000000E+00  0.00000E+00  9.000E+00
      25     1     1     2     0     0  1.851990047E+01 -8.135159496E+01 -1.021237339E+02  1.817011991E+02  1.250000000E+02  0.00000E+00  9.000E+00
      25     1     1     2     0     0 -2.612760346E+01  2.100616973E+01  1.033440307E+02  1.656167247E+02  1.250000000E+02  0.00000E+00  9.000E+00
      21     1     1     2   501   511  7.607702989E+00  6.034542523E+01  1.039036267E+02  1.203968900E+02  0.000000000E+00  0.00000E+00  9.000E+00
#rwgt            1           1   2.5330872659265345E-002           5      141803           0
</event>
<event>
      5   9999  3.19816E-02  6.87412E+01 -1.00000E+00  1.31621E-01
      21    -1     0     0   502   512  0.000000000E+00  0.000000000E+00  4.055351173E+02  4.055351173E+02  0.000000000E+00  0.00000E+00  9.000E+00
      21    -1     0     0   501   502  0.000000000E+00  0.000000000E+00 -6.146435402E+02  6.146435402E+02  0.000000000E+00  0.00000E+00  9.000E+00
      25     1     1     2     0     0  3.024674762E+02  2.192494188E+02  1.482140147E+02  4.208910500E+02  1.250000000E+02  0.00000E+00  9.000E+00
      25     1     1     2     0     0 -2.352942868E+02 -2.046509655E+02 -3.968739463E+02  5.199801422E+02  1.250000000E+02  0.00000E+00  9.000E+00
      21     1     1     2   501   512 -6.717318936E+01 -1.459845335E+01  3.955150872E+01  7.930746529E+01  8.259061849E-07  0.00000E+00  9.000E+00
#rwgt            1           1   2.6992186835165240E-002           5      141853           0
</event>
<event>
      5   9999  3.19816E-02  3.26540E+02 -1.00000E+00  1.04409E-01
      21    -1     0     0   502   511  0.000000000E+00  0.000000000E+00  5.790840020E+02  5.790840020E+02  0.000000000E+00  0.00000E+00  9.000E+00
      21    -1     0     0   501   502  0.000000000E+00  0.000000000E+00 -3.711494574E+02  3.711494574E+02  0.000000000E+00  0.00000E+00  9.000E+00
      25     1     1     2     0     0  2.905293230E+02 -2.624480990E+02  1.022270163E+02  4.235111038E+02  1.250000000E+02  0.00000E+00  9.000E+00
      25     1     1     2     0     0 -7.545111035E+01  1.674597405E+01 -6.215058056E+01  1.595650098E+02  1.250000000E+02  0.00000E+00  9.000E+00
      21     1     1     2   501   511 -2.150782127E+02  2.457021250E+02  1.678581089E+02  3.671573457E+02  0.000000000E+00  0.00000E+00  9.000E+00
#rwgt            1           1   2.5838979350973248E-002           5      141982           0
</event>
<event>
      5   9999  3.19816E-02  6.14124E+01 -1.00000E+00  1.34166E-01
      21    -1     0     0   502   512  0.000000000E+00  0.000000000E+00  1.450464330E+03  1.450464330E+03  0.000000000E+00  0.00000E+00  9.000E+00
      21    -1     0     0   501   502  0.000000000E+00  0.000000000E+00 -1.082232303E+02  1.082232303E+02  0.000000000E+00  0.00000E+00  9.000E+00
      25     1     1     2     0     0 -2.023825969E+02  4.900578887E+01  9.068023996E+01  2.592454219E+02  1.250000000E+02  0.00000E+00  9.000E+00
      25     1     1     2     0     0  1.440828830E+02 -2.970222796E+01  3.848075303E+02  4.305158939E+02  1.250000000E+02  0.00000E+00  9.000E+00
      21     1     1     2   501   512  5.829971386E+01 -1.930356091E+01  8.667533298E+02  8.689262448E+02  0.000000000E+00  0.00000E+00  9.000E+00
#rwgt            1           1   2.8624559799228139E-002           5      142010           0
</event>
<event>
      5   9999  3.19816E-02  8.25672E+01 -1.00000E+00  1.27689E-01
      21    -1     0     0   511   501  0.000000000E+00  0.000000000E+00  7.160753146E+02  7.160753146E+02  0.000000000E+00  0.00000E+00  9.000E+00
      21    -1     0     0   501   502  0.000000000E+00  0.000000000E+00 -1.134574327E+03  1.134574327E+03  0.000000000E+00  0.00000E+00  9.000E+00
      25     1     1     2     0     0 -5.679968537E+02  2.918869682E+02 -5.055677247E+02  8.240401400E+02  1.250000000E+02  0.00000E+00  9.000E+00
      25     1     1     2     0     0  5.050596380E+02 -3.453307870E+02 -2.551396581E+02  6.745812297E+02  1.250000000E+02  0.00000E+00  9.000E+00
      21     1     1     2   511   502  6.293721574E+01  5.344381879E+01  3.422083708E+02  3.520282715E+02  5.394796609E-06  0.00000E+00  9.000E+00
#rwgt            1           1   2.9412935218736305E-002           5      142094           0
</event>
<event>
      5   9999  3.19816E-02  1.49258E+01 -1.00000E+00  1.77587E-01
      21    -1     0     0   502   501  0.000000000E+00  0.000000000E+00  3.978807590E+02  3.978807590E+02  0.000000000E+00  0.00000E+00  9.000E+00
      21    -1     0     0   501   512  0.000000000E+00  0.000000000E+00 -5.184702385E+02  5.184702385E+02  0.000000000E+00  0.00000E+00  9.000E+00
      25     1     1     2     0     0 -1.525306686E+02 -3.783351976E+02  5.226181654E+01  4.298365085E+02  1.250000000E+02  0.00000E+00  9.000E+00
      25     1     1     2     0     0  1.578417677E+02  3.643863243E+02 -1.224469009E+02  4.339466102E+02  1.250000000E+02  0.00000E+00  9.000E+00
      21     1     1     2   502   512 -5.311099088E+00  1.394887327E+01 -5.040439510E+01  5.256787883E+01  0.000000000E+00  0.00000E+00  9.000E+00
#rwgt            1           1   2.8070256025059481E-002           5      142247           0
</event>
<event>
      5   9999  3.19816E-02  2.19399E+02 -1.00000E+00  1.10204E-01
      21    -1     0     0   511   501  0.000000000E+00  0.000000000E+00  1.961498791E+02  1.961498791E+02  0.000000000E+00  0.00000E+00  9.000E+00
      21    -1     0     0   501   502  0.000000000E+00  0.000000000E+00 -1.282251055E+03  1.282251055E+03  0.000000000E+00  0.00000E+00  9.000E+00
      25     1     1     2     0     0  7.216313224E+01 -3.614277421E+02 -9.571969266E+02  1.033290127E+03  1.250000000E+02  0.00000E+00  9.000E+00
      25     1     1     2     0     0  2.144110920E+01  1.629985635E+02 -6.758726948E+01  2.173046062E+02  1.250000000E+02  0.00000E+00  9.000E+00
      21     1     1     2   511   502 -9.360424143E+01  1.984291786E+02 -6.131697934E+01  2.278062003E+02  2.697398305E-06  0.00000E+00  9.000E+00
#rwgt            1           1   3.0771098291238686E-002           5      142450           0
</event>
<event>
      5   9999  3.19816E-02  7.55052E+01 -1.00000E+00  1.29577E-01
      -4    -1     0     0     0   501  0.000000000E+00  0.000000000E+00  1.166854249E+03  1.166854249E+03  0.000000000E+00  0.00000E+00  9.000E+00
      21    -1     0     0   501   502  0.000000000E+00  0.000000000E+00 -2.403494008E+02  2.403494008E+02  0.000000000E+00  0.00000E+00  9.000E+00
      25     1     1     2     0     0 -1.244351696E+02 -7.306307051E+01 -1.243876676E+02  2.278587623E+02  1.250000000E+02  0.00000E+00  9.000E+00
      25     1     1     2     0     0  5.016615762E+01  8.667025544E+01  3.927276207E+01  1.649112682E+02  1.250000000E+02  0.00000E+00  9.000E+00
      -4     1     1     2     0   502  7.426901194E+01 -1.360718493E+01  1.011619753E+03  1.014433619E+03  1.078959322E-05  0.00000E+00  9.000E+00
#rwgt            2           2   6.0095443627808696E-005           5      142503           0
</event>
<event>
      5   9999  3.19816E-02  7.93049E+01 -1.00000E+00  1.28533E-01
      21    -1     0     0   511   501  0.000000000E+00  0.000000000E+00  2.253639726E+02  2.253639726E+02  0.000000000E+00  0.00000E+00  9.000E+00
      21    -1     0     0   501   502  0.000000000E+00  0.000000000E+00 -7.052639453E+02  7.052639453E+02  0.000000000E+00  0.00000E+00  9.000E+00
      25     1     1     2     0     0  2.272845226E+02 -2.532474010E+02 -3.954291612E+02  5.364529074E+02  1.250000000E+02  0.00000E+00  9.000E+00
      25     1     1     2     0     0 -1.570359662E+02  2.164450723E+02 -1.031716742E+02  3.126949925E+02  1.250000000E+02  0.00000E+00  9.000E+00
      21     1     1     2   511   502 -7.024855632E+01  3.680232872E+01  1.870086274E+01  8.148001799E+01  4.768371582E-07  0.00000E+00  9.000E+00
#rwgt            1           1   2.7881610866051249E-002           5      142567           0
</event>
<event>
      5   9999  3.19816E-02  1.88426E+02 -1.00000E+00  1.12599E-01
      21    -1     0     0   502   501  0.000000000E+00  0.000000000E+00  6.427329352E+02  6.427329352E+02  0.000000000E+00  0.00000E+00  9.000E+00
      21    -1     0     0   501   512  0.000000000E+00  0.000000000E+00 -2.674702174E+02  2.674702174E+02  0.000000000E+00  0.00000E+00  9.000E+00
      25     1     1     2     0     0  1.837433448E+02 -9.560469760E+01  7.072025902E+01  2.520480708E+02  1.250000000E+02  0.00000E+00  9.000E+00
      25     1     1     2     0     0 -2.417606665E+02 -8.366657770E+01  3.625576681E+02  4.610004108E+02  1.250000000E+02  0.00000E+00  9.000E+00
      21     1     1     2   502   512  5.801732168E+01  1.792712753E+02 -5.801520926E+01  1.971546709E+02  2.023048729E-06  0.00000E+00  9.000E+00
#rwgt            2          11   3.6824349329823533E-003           5      142634           0
</event>
<event>
      5   9999  3.19816E-02  2.34484E+02 -1.00000E+00  1.09190E-01
       3    -1     0     0   502     0  0.000000000E+00  0.000000000E+00  2.745131124E+03  2.745131124E+03  0.000000000E+00  0.00000E+00  9.000E+00
      21    -1     0     0   501   502  0.000000000E+00  0.000000000E+00 -4.277723046E+02  4.277723046E+02  0.000000000E+00  0.00000E+00  9.000E+00
      25     1     1     2     0     0 -1.951162821E+02  6.183080632E+02 -6.881835166E+01  6.638796503E+02  1.250000000E+02  0.00000E+00  9.000E+00
      25     1     1     2     0     0  1.936992030E+02 -3.838283218E+02  9.082814347E+02  1.012641954E+03  1.250000000E+02  0.00000E+00  9.000E+00
       3     1     1     2   501     0  1.417079160E+00 -2.344797414E+02  1.477895736E+03  1.496381825E+03  0.000000000E+00  0.00000E+00  9.000E+00
#rwgt            1           1   2.8313484272336608E-002           5      142654           0
</event>
<event>
      5   9999  3.19816E-02  2.31481E+02 -1.00000E+00  1.09385E-01
      -1    -1     0     0     0   501  0.000000000E+00  0.000000000E+00  1.344809763E+03  1.344809763E+03  0.000000000E+00  0.00000E+00  9.000E+00
      21    -1     0     0   501   502  0.000000000E+00  0.000000000E+00 -2.846591636E+02  2.846591636E+02  0.000000000E+00  0.00000E+00  9.000E+00
      25     1     1     2     0     0 -2.578079932E+02  1.401209080E+02  1.192627045E+03  1.234537605E+03  1.250000000E+02  0.00000E+00  9.000E+00
      25     1     1     2     0     0  4.928247414E+01 -3.962046641E+01 -4.021901164E+01  1.457433104E+02  1.250000000E+02  0.00000E+00  9.000E+00
      -1     1     1     2     0   502  2.085255191E+02 -1.005004416E+02 -9.225743375E+01  2.491880112E+02  2.336015456E-06  0.00000E+00  9.000E+00
#rwgt            2           5   1.7379869205388550E-005           5      142965           0
</event>
<event>
      5   9999  3.19816E-02  1.03949E+01 -1.00000E+00  1.93833E-01
      21    -1     0     0   502   501  0.000000000E+00  0.000000000E+00  1.250987837E+02  1.250987837E+02  0.000000000E+00  0.00000E+00  9.000E+00
      21    -1     0     0   501   511  0.000000000E+00  0.000000000E+00 -4.527760978E+02  4.527760978E+02  0.000000000E+00  0.00000E+00  9.000E+00
      25     1     1     2     0     0  1.091454873E+02 -7.267996919E+01  1.162365337E+01  1.815357393E+02  1.250000000E+02  0.00000E+00  9.000E+00
      25     1     1     2     0     0 -1.180059932E+02  6.724441553E+01 -2.750149215E+02  3.312181047E+02  1.250000000E+02  0.00000E+00  9.000E+00
      21     1     1     2   502   511  8.860505906E+00  5.435553659E+00 -6.428604601E+01  6.512103747E+01  1.651812370E-06  0.00000E+00  9.000E+00
#rwgt            1           1   2.4168947971614708E-002           5      142984           0
</event>
<event>
      5   9999  3.19816E-02  5.02383E+01 -1.00000E+00  1.38958E-01
      21    -1     0     0   502   512  0.000000000E+00  0.000000000E+00  6.551799888E+02  6.551799888E+02  0.000000000E+00  0.00000E+00  9.000E+00
      21    -1     0     0   501   502  0.000000000E+00  0.000000000E+00 -2.690010523E+02  2.690010523E+02  0.000000000E+00  0.00000E+00  9.000E+00
      25     1     1     2     0     0 -3.400516245E+02  1.934051019E+01  7.515219235E+01  3.705158764E+02  1.250000000E+02  0.00000E+00  9.000E+00
      25     1     1     2     0     0  3.855306032E+02 -4.068401075E+01  2.686551793E+02  4.879443002E+02  1.250000000E+02  0.00000E+00  9.000E+00
      21     1     1     2   501   512 -4.547897867E+01  2.134350057E+01  4.237156480E+01  6.572086443E+01  1.066240300E-06  0.00000E+00  9.000E+00
#rwgt            1           1   2.5368424700459465E-002           5      143153           0
</event>
<event>
      5   9999  3.19816E-02  3.86900E+02 -1.00000E+00  1.02122E-01
      21    -1     0     0   502   501  0.000000000E+00  0.000000000E+00  1.884421737E+03  1.884421737E+03  0.000000000E+00  0.00000E+00  9.000E+00
      21    -1     0     0   511   502  0.000000000E+00  0.000000000E+00 -1.193845661E+03  1.193845661E+03  0.000000000E+00  0.00000E+00  9.000E+00
      25     1     1     2     0     0  3.311875895E+02 -2.351773424E+02 -1.160329835E+02  4.405476763E+02  1.250000000E+02  0.00000E+00  9.000E+00
      25     1     1     2     0     0 -5.995180509E+02 -4.355232787E+01  1.622480950E+03  1.734758811E+03  1.250000000E+02  0.00000E+00  9.000E+00
      21     1     1     2   511   501  2.683304614E+02  2.787296703E+02 -8.158718900E+02  9.029609108E+02  1.525878906E-05  0.00000E+00  9.000E+00
#rwgt            2          11   3.5155641537282841E-003           5      143350           0
</event>
<event>
      5   9999  3.19816E-02  5.39435E+01 -1.00000E+00  1.37220E-01
      21    -1     0     0   502   512  0.000000000E+00  0.000000000E+00  1.635901204E+03  1.635901204E+03  0.000000000E+00  0.00000E+00  9.000E+00
      21    -1     0     0   501   502  0.000000000E+00  0.000000000E+00 -2.636043149E+02  2.636043149E+02  0.000000000E+00  0.00000E+00  9.000E+00
      25     1     1     2     0     0 -3.312419917E+01 -2.809244930E+02  6.730084856E+02  7.406626797E+02  1.250000000E+02  0.00000E+00  9.000E+00
      25     1     1     2     0     0 -2.827771877E-01  2.385703587E+02 -1.497008348E+02  3.081415843E+02  1.250000000E+02  0.00000E+00  9.000E+00
      21     1     1     2   501   512  3.340697636E+01  4.235413428E+01  8.489892380E+02  8.507012548E+02  0.000000000E+00  0.00000E+00  9.000E+00
#rwgt            1           1   3.0326161431755063E-002           5      143385           0
</event>
<event>
      5   9999  3.19816E-02  6.93646E+00 -1.00000E+00  2.16115E-01
      21    -1     0     0   511   501  0.000000000E+00  0.000000000E+00  7.259746248E+02  7.259746248E+02  0.000000000E+00  0.00000E+00  9.000E+00
      21    -1     0     0   501   502  0.000000000E+00  0.000000000E+00 -8.581162088E+02  8.581162088E+02  0.000000000E+00  0.00000E+00  9.000E+00
      25     1     1     2     0     0 -3.523414274E+02  6.079128345E+02 -3.859804064E+02  8.113620461E+02  1.250000000E+02  0.00000E+00  9.000E+00
      25     1     1     2     0     0  3.498293680E+02 -6.143784340E+02  2.395906083E+02  7.568818313E+02  1.250000000E+02  0.00000E+00  9.000E+00
      21     1     1     2   511   502  2.512059430E+00  6.465599580E+00  1.424821405E+01  1.584695630E+01  1.685873940E-07  0.00000E+00  9.000E+00
#rwgt            1           1   3.3052086818728524E-002           5      143524           0
</event>
<event>
      5   9999  3.19816E-02  1.34491E+02 -1.00000E+00  1.18304E-01
      21    -1     0     0   502   512  0.000000000E+00  0.000000000E+00  2.280769073E+03  2.280769073E+03  0.000000000E+00  0.00000E+00  9.000E+00
      21    -1     0     0   501   502  0.000000000E+00  0.000000000E+00 -6.811207477E+02  6.811207477E+02  0.000000000E+00  0.00000E+00  9.000E+00
      25     1     1     2     0     0  3.295510885E+02 -4.906327549E+02  1.134826252E+03  1.285604933E+03  1.250000000E+02  0.00000E+00  9.000E+00
      25     1     1     2     0     0 -2.992415491E+02  6.216641482E+02 -3.958339531E+02  8.051840388E+02  1.250000000E+02  0.00000E+00  9.000E+00
      21     1     1     2   501   512 -3.030953941E+01 -1.310313933E+02  8.606560261E+02  8.711008492E+02  1.078959322E-05  0.00000E+00  9.000E+00
#rwgt            1           1   3.9144084280715585E-002           5      143823           0
</event>
<event>
      5   9999  3.19816E-02  2.39534E+01 -1.00000E+00  1.60155E-01
      21    -1     0     0   511   501  0.000000000E+00  0.000000000E+00  1.228508712E+02  1.228508712E+02  0.000000000E+00  0.00000E+00  9.000E+00
      21    -1     0     0   501   502  0.000000000E+00  0.000000000E+00 -6.781513504E+02  6.781513504E+02  0.000000000E+00  0.00000E+00  9.000E+00
      25     1     1     2     0     0 -1.358062585E+02 -3.313352761E+01 -5.366490479E+02  5.684702025E+02  1.250000000E+02  0.00000E+00  9.000E+00
      25     1     1     2     0     0  1.597424717E+02  3.222542390E+01 -2.703863140E+01  2.071526558E+02  1.250000000E+02  0.00000E+00  9.000E+00
      21     1     1     2   511   502 -2.393621324E+01  9.081037085E-01  8.387200107E+00  2.537936332E+01  3.576278687E-07  0.00000E+00  9.000E+00
#rwgt            1           1   2.9698015647384661E-002           5      143891           0
</event>
<event>
      5   9999  3.19816E-02  6.96810E+01 -1.00000E+00  1.31321E-01
      21    -1     0     0   502   501  0.000000000E+00  0.000000000E+00  4.089916148E+02  4.089916148E+02  0.000000000E+00  0.00000E+00  9.000E+00
      21    -1     0     0   512   502  0.000000000E+00  0.000000000E+00 -1.866476439E+02  1.866476439E+02  0.000000000E+00  0.00000E+00  9.000E+00
      25     1     1     2     0     0  1.949365342E+02  5.435144371E+01  2.785795834E+01  2.394898696E+02  1.250000000E+02  0.00000E+00  9.000E+00
      25     1     1     2     0     0 -1.483609886E+02 -1.061795933E+02  1.795980681E+02  2.848956915E+02  1.250000000E+02  0.00000E+00  9.000E+00
      21     1     1     2   512   501 -4.657554561E+01  5.182814957E+01  1.488794438E+01  7.125369762E+01  9.386548846E-07  0.00000E+00  9.000E+00
#rwgt            1           1   2.7412772608379359E-002           5      144044           0
</event>
<event>
      5   9999  3.19816E-02  1.94527E+02 -1.00000E+00  1.12088E-01
      21    -1     0     0   502   511  0.000000000E+00  0.000000000E+00  7.317763349E+02  7.317763349E+02  0.000000000E+00  0.00000E+00  9.000E+00
      21    -1     0     0   501   502  0.000000000E+00  0.000000000E+00 -6.757026621E+02  6.757026621E+02  0.000000000E+00  0.00000E+00  9.000E+00
      25     1     1     2     0     0  3.981591622E+02 -3.116318685E+02 -4.188371585E+01  5.225173543E+02  1.250000000E+02  0.00000E+00  9.000E+00
      25     1     1     2     0     0 -5.611192502E+02  2.054021297E+02 -8.688584992E+01  6.166190062E+02  1.250000000E+02  0.00000E+00  9.000E+00
      21     1     1     2   501   511  1.629600880E+02  1.062297388E+02  1.848432385E+02  2.683426364E+02  2.697398305E-06  0.00000E+00  9.000E+00
#rwgt            1           1   3.2575829160723796E-002           5      144156           0
</event>
<event>
      5   9999  3.19816E-02  4.10648E+01 -1.00000E+00  1.44136E-01
      21    -1     0     0   502   512  0.000000000E+00  0.000000000E+00  3.404996591E+02  3.404996591E+02  0.000000000E+00  0.00000E+00  9.000E+00
      21    -1     0     0   501   502  0.000000000E+00  0.000000000E+00 -3.456488296E+02  3.456488296E+02  0.000000000E+00  0.00000E+00  9.000E+00
      25     1     1     2     0     0  1.755511880E+02  2.083668030E+02 -1.263776034E+02  3.253171420E+02  1.250000000E+02  0.00000E+00  9.000E+00
      25     1     1     2     0     0 -2.022313622E+02 -1.771500727E+02  1.196986682E+02  3.197380854E+02  1.250000000E+02  0.00000E+00  9.000E+00
      21     1     1     2   501   512  2.668017417E+01 -3.121673031E+01  1.529764652E+00  4.109326131E+01  7.027283980E-07  0.00000E+00  9.000E+00
#rwgt            1           1   2.8087507889187940E-002           5      144220           0
</event>
<event>
      5   9999  3.19816E-02  1.39141E+02 -1.00000E+00  1.17702E-01
      21    -1     0     0   511   501  0.000000000E+00  0.000000000E+00  1.431430046E+03  1.431430046E+03  0.000000000E+00  0.00000E+00  9.000E+00
      21    -1     0     0   501   502  0.000000000E+00  0.000000000E+00 -3.252521761E+02  3.252521761E+02  0.000000000E+00  0.00000E+00  9.000E+00
      25     1     1     2     0     0 -3.689407748E+02 -1.375336448E+02  8.008697979E+01  4.207989105E+02  1.250000000E+02  0.00000E+00  9.000E+00
      25     1     1     2     0     0  2.298461049E+02  1.411108088E+02 -3.148247823E+00  2.972816909E+02  1.250000000E+02  0.00000E+00  9.000E+00
      21     1     1     2   511   502  1.390946699E+02 -3.577163991E+00  1.029239138E+03  1.038601621E+03  2.157918644E-05  0.00000E+00  9.000E+00
#rwgt            1           1   2.7287367350081047E-002           5      144312           0
</event>
<event>
      5   9999  3.19816E-02  1.19304E+02 -1.00000E+00  1.20476E-01
      21    -1     0     0   502   512  0.000000000E+00  0.000000000E+00  3.042437347E+02  3.042437347E+02  0.000000000E+00  0.00000E+00  9.000E+00
      21    -1     0     0   501   502  0.000000000E+00  0.000000000E+00 -1.133513167E+03  1.133513167E+03  0.000000000E+00  0.00000E+00  9.000E+00
      25     1     1     2     0     0  2.380478857E+02  2.921982755E+02 -1.633778702E+02  4.293762413E+02  1.250000000E+02  0.00000E+00  9.000E+00
      25     1     1     2     0     0 -1.507936354E+02 -3.735623873E+02 -7.513348749E+02  8.616360438E+02  1.250000000E+02  0.00000E+00  9.000E+00
      21     1     1     2   501   512 -8.725425029E+01  8.136411181E+01  8.544331258E+01  1.467446168E+02  2.132480600E-06  0.00000E+00  9.000E+00
#rwgt            1           1   2.6541583001465911E-002           5      144387           0
</event>
<event>
      5   9999  3.19816E-02  7.80325E+01 -1.00000E+00  1.28875E-01
       1    -1     0     0   502     0  0.000000000E+00  0.000000000E+00  3.892456274E+02  3.892456274E+02  0.000000000E+00  0.00000E+00  9.000E+00
      21    -1     0     0   501   502  0.000000000E+00  0.000000000E+00 -6.144097147E+02  6.144097147E+02  0.000000000E+00  0.00000E+00  9.000E+00
      25     1     1     2     0     0 -9.117106558E+01 -1.046175074E+02 -5.529365230E+02  5.836272650E+02  1.250000000E+02  0.00000E+00  9.000E+00
      25     1     1     2     0     0  1.365633576E+01  9.564335649E+01  2.964981151E+02  3.359617231E+02  1.250000000E+02  0.00000E+00  9.000E+00
       1     1     1     2   501     0  7.751472983E+01  8.974150863E+00  3.127432058E+01  8.406635386E+01  5.840038640E-07  0.00000E+00  9.000E+00
#rwgt            1           1   2.9039025527446641E-002           5      144463           0
</event>
<event>
      5   9999  3.19816E-02  1.39469E+02 -1.00000E+00  1.17660E-01
      21    -1     0     0   502   501  0.000000000E+00  0.000000000E+00  1.048322397E+03  1.048322397E+03  0.000000000E+00  0.00000E+00  9.000E+00
      21    -1     0     0   511   502  0.000000000E+00  0.000000000E+00 -1.645574344E+02  1.645574344E+02  0.000000000E+00  0.00000E+00  9.000E+00
      25     1     1     2     0     0 -2.515444275E+01 -8.074024082E+01  8.258018761E+02  8.394792857E+02  1.250000000E+02  0.00000E+00  9.000E+00
      25     1     1     2     0     0  6.535914048E+00 -5.748011930E+01  1.520518374E+02  2.051619935E+02  1.250000000E+02  0.00000E+00  9.000E+00
      21     1     1     2   511   501  1.861852870E+01  1.382203601E+02 -9.408875069E+01  1.682385526E+02  2.697398305E-06  0.00000E+00  9.000E+00
#rwgt            2          11   7.6316742402128251E-003           5      144609           0
</event>
<event>
      5   9999  3.19816E-02  8.38219E+01 -1.00000E+00  1.27376E-01
       2    -1     0     0   502     0  0.000000000E+00  0.000000000E+00  1.814066540E+03  1.814066540E+03  0.000000000E+00  0.00000E+00  9.000E+00
      21    -1     0     0   501   502  0.000000000E+00  0.000000000E+00 -5.615602400E+02  5.615602400E+02  0.000000000E+00  0.00000E+00  9.000E+00
      25     1     1     2     0     0  2.682174940E+02 -3.314508714E+02  1.542842156E+02  4.703497883E+02  1.250000000E+02  0.00000E+00  9.000E+00
      25     1     1     2     0     0 -2.777068054E+02  2.481678171E+02 -3.063658851E+02  4.981901151E+02  1.250000000E+02  0.00000E+00  9.000E+00
       2     1     1     2   501     0  9.489311393E+00  8.328305431E+01  1.404587970E+03  1.407086877E+03  2.157918644E-05  0.00000E+00  9.000E+00
#rwgt            1           1   2.9629353329267964E-002           5      144629           0
</event>
<event>
      5   9999  3.19816E-02  9.33985E+01 -1.00000E+00  1.25177E-01
      21    -1     0     0   502   501  0.000000000E+00  0.000000000E+00  2.687185899E+02  2.687185899E+02  0.000000000E+00  0.00000E+00  9.000E+00
      21    -1     0     0   511   502  0.000000000E+00  0.000000000E+00 -7.374885049E+02  7.374885049E+02  0.000000000E+00  0.00000E+00  9.000E+00
      25     1     1     2     0     0  9.727602141E+01 -4.445699315E+01 -1.457848409E+02  2.198118933E+02  1.250000000E+02  0.00000E+00  9.000E+00
      25     1     1     2     0     0 -3.940805229E+01  1.177685414E+02  1.934001265E+02  2.616314830E+02  1.250000000E+02  0.00000E+00  9.000E+00
      21     1     1     2   511   501 -5.786796912E+01 -7.331154829E+01 -5.163852005E+02  5.247637185E+02  7.629394531E-06  0.00000E+00  9.000E+00
#rwgt            1           1   2.5590777653077268E-002           5      144710           0
</event>
<event>
      5   9999  3.19816E-02  6.59129E+01 -1.00000E+00  1.32558E-01
      21    -1     0     0   502   501  0.000000000E+00  0.000000000E+00  9.758179697E+01  9.758179697E+01  0.000000000E+00  0.00000E+00  9.000E+00
      21    -1     0     0   512   502  0.000000000E+00  0.000000000E+00 -5.569215442E+02  5.569215442E+02  0.000000000E+00  0.00000E+00  9.000E+00
      25     1     1     2     0     0 -3.880278211E+01 -1.084084117E+02 -3.263183413E+02  3.679221379E+02  1.250000000E+02  0.00000E+00  9.000E+00
      25     1     1     2     0     0  6.891123198E+01  4.977401069E+01 -1.565720379E+01  1.519748600E+02  1.250000000E+02  0.00000E+00  9.000E+00
      21     1     1     2   512   501 -3.010844987E+01  5.863440100E+01 -1.173642021E+02  1.346063433E+02  1.907348633E-06  0.00000E+00  9.000E+00
#rwgt            1           1   2.8764049307194069E-002           5      144773           0
</event>
<event>
      5   9999  3.19816E-02  8.16807E+01 -1.00000E+00  1.27914E-01
      21    -1     0     0   502   501  0.000000000E+00  0.000000000E+00  1.288323845E+03  1.288323845E+03  0.000000000E+00  0.00000E+00  9.000E+00
      21    -1     0     0   501   511  0.000000000E+00  0.000000000E+00 -1.945987606E+02  1.945987606E+02  0.000000000E+00  0.00000E+00  9.000E+00
      25     1     1     2     0     0 -4.646017121E+02  1.446713598E+01  4.625050396E+02  6.675327412E+02  1.250000000E+02  0.00000E+00  9.000E+00
      25     1     1     2     0     0  3.830448773E+02 -1.896309341E+01  6.094688463E+02  7.308626763E+02  1.250000000E+02  0.00000E+00  9.000E+00
      21     1     1     2   502   511  8.155683481E+01  4.495957432E+00  2.175119882E+01  8.452718845E+01  1.390207266E-06  0.00000E+00  9.000E+00
#rwgt            1           1   2.6885796432715266E-002           5      144870           0
</event>
<event>
      5   9999  3.19816E-02  2.79940E+02 -1.00000E+00  1.06578E-01
      21    -1     0     0   502   501  0.000000000E+00  0.000000000E+00  2.907150276E+02  2.907150276E+02  0.000000000E+00  0.00000E+00  9.000E+00
       4    -1     0     0   501     0  0.000000000E+00  0.000000000E+00 -1.936346130E+03  1.936346130E+03  0.000000000E+00  0.00000E+00  9.000E+00
      25     1     1     2     0     0 -7.937575993E+01 -6.021013037E+02 -4.958522502E+02  7.939275441E+02  1.250000000E+02  0.00000E+00  9.000E+00
      25     1     1     2     0     0 -1.858631508E+02  5.125750898E+02 -8.902214790E+02  1.051378911E+03  1.250000000E+02  0.00000E+00  9.000E+00
       4     1     1     2   502     0  2.652389108E+02  8.952621393E+01 -2.595573737E+02  3.817547027E+02  6.607249480E-06  0.00000E+00  9.000E+00
#rwgt            2          15   1.0157788784343551E-005           5      144948           0
</event>
<event>
      5   9999  3.19816E-02  9.13915E+02 -1.00000E+00  9.19396E-02
       2    -1     0     0   502     0  0.000000000E+00  0.000000000E+00  2.554593070E+03  2.554593070E+03  0.000000000E+00  0.00000E+00  9.000E+00
      21    -1     0     0   501   502  0.000000000E+00  0.000000000E+00 -7.889015073E+02  7.889015073E+02  0.000000000E+00  0.00000E+00  9.000E+00
      25     1     1     2     0     0 -3.817114664E+02 -1.101078203E+03  8.412461818E+02  1.442704749E+03  1.250000000E+02  0.00000E+00  9.000E+00
      25     1     1     2     0     0  1.540942623E+02  2.159614944E+02  9.421119666E+02  9.867037886E+02  1.250000000E+02  0.00000E+00  9.000E+00
       2     1     1     2   501     0  2.276172040E+02  8.851167091E+02 -1.766658560E+01  9.140860400E+02  1.420342542E-05  0.00000E+00  9.000E+00
#rwgt            2          18   4.5836946611218452E-004           5      145192           0
</event>
<event>
      5   9999  3.19816E-02  9.31491E+01 -1.00000E+00  1.25230E-01
      21    -1     0     0   511   501  0.000000000E+00  0.000000000E+00  8.379385567E+02  8.379385567E+02  0.000000000E+00  0.00000E+00  9.000E+00
      21    -1     0     0   501   502  0.000000000E+00  0.000000000E+00 -9.463790984E+01  9.463790984E+01  0.000000000E+00  0.00000E+00  9.000E+00
      25     1     1     2     0     0  4.330683290E+01 -9.595144385E+01  5.848195157E+01  1.735721752E+02  1.250000000E+02  0.00000E+00  9.000E+00
      25     1     1     2     0     0 -6.942885707E+01  1.853628384E+02  4.856610912E+02  5.391395399E+02  1.250000000E+02  0.00000E+00  9.000E+00
      21     1     1     2   511   502  2.612202417E+01 -8.941139452E+01  1.991576041E+02  2.198647514E+02  2.697398305E-06  0.00000E+00  9.000E+00
#rwgt            2          11   2.5413440913435352E-003           5      145286           0
</event>
<event>
      5   9999  3.19816E-02  4.67510E+01 -1.00000E+00  1.40761E-01
      21    -1     0     0   502   501  0.000000000E+00  0.000000000E+00  5.550651125E+02  5.550651125E+02  0.000000000E+00  0.00000E+00  9.000E+00
       2    -1     0     0   501     0  0.000000000E+00  0.000000000E+00 -6.809208718E+02  6.809208718E+02  0.000000000E+00  0.00000E+00  9.000E+00
      25     1     1     2     0     0 -1.569904600E+02 -1.200817725E+02  2.795382242E+02  3.644615966E+02  1.250000000E+02  0.00000E+00  9.000E+00
      25     1     1     2     0     0  1.737428266E+02  1.637282660E+02  1.538674667E+02  3.103122818E+02  1.250000000E+02  0.00000E+00  9.000E+00
       2     1     1     2   502     0 -1.675236661E+01 -4.364649350E+01 -5.592614502E+02  5.612121059E+02  0.000000000E+00  0.00000E+00  9.000E+00
#rwgt            1           1   2.8659550448871078E-002           5      145306           0
</event>
<event>
      5   9999  3.19816E-02  1.33990E+01 -1.00000E+00  1.82130E-01
      21    -1     0     0   511   501  0.000000000E+00  0.000000000E+00  6.895338619E+01  6.895338619E+01  0.000000000E+00  0.00000E+00  9.000E+00
      21    -1     0     0   501   502  0.000000000E+00  0.000000000E+00 -4.685489937E+02  4.685489937E+02  0.000000000E+00  0.00000E+00  9.000E+00
      25     1     1     2     0     0 -9.931674483E+01 -4.966805124E+01 -2.051704737E+02  2.646708416E+02  1.250000000E+02  0.00000E+00  9.000E+00
      25     1     1     2     0     0  1.101596229E+02  4.179627414E+01 -1.944175300E+02  2.594325481E+02  1.250000000E+02  0.00000E+00  9.000E+00
      21     1     1     2   511   502 -1.084287804E+01  7.871777098E+00 -7.603768508E-03  1.339899014E+01  1.317751253E-07  0.00000E+00  9.000E+00
#rwgt            1           1   3.0440987055697529E-002           5      145369           0
</event>
<event>
      5   9999  3.19816E-02  3.38967E+01 -1.00000E+00  1.49445E-01
      21    -1     0     0   502   501  0.000000000E+00  0.000000000E+00  7.346395394E+02  7.346395394E+02  0.000000000E+00  0.00000E+00  9.000E+00
      21    -1     0     0   512   502  0.000000000E+00  0.000000000E+00 -2.857384728E+03  2.857384728E+03  0.000000000E+00  0.00000E+00  9.000E+00
      25     1     1     2     0     0 -9.450288928E+02  2.511582544E+02 -8.266581520E+02  1.286525856E+03  1.250000000E+02  0.00000E+00  9.000E+00
      25     1     1     2     0     0  9.776057566E+02 -2.417916855E+02 -5.841848173E+00  1.014808042E+03  1.250000000E+02  0.00000E+00  9.000E+00
      21     1     1     2   512   501 -3.257686381E+01 -9.366568833E+00 -1.290245188E+03  1.290690370E+03  0.000000000E+00  0.00000E+00  9.000E+00
#rwgt            1           1   3.0427532883390545E-002           5      145514           0
</event>
<event>
      5   9999  3.19816E-02  1.08979E+01 -1.00000E+00  1.91537E-01
      21    -1     0     0   502   511  0.000000000E+00  0.000000000E+00  1.200916179E+02  1.200916179E+02  0.000000000E+00  0.00000E+00  9.000E+00
      21    -1     0     0   501   502  0.000000000E+00  0.000000000E+00 -3.585018203E+02  3.585018203E+02  0.000000000E+00  0.00000E+00  9.000E+00
      25     1     1     2     0     0 -9.386553689E+00 -4.127371850E+01  4.212937067E+01  1.385334295E+02  1.250000000E+02  0.00000E+00  9.000E+00
      25     1     1     2     0     0  9.846170718E+00  3.038553817E+01 -2.949849988E+02  3.219648700E+02  1.250000000E+02  0.00000E+00  9.000E+00
      21     1     1     2   501   511 -4.596170285E-01  1.088818033E+01  1.444542577E+01  1.809513869E+01  2.384185791E-07  0.00000E+00  9.000E+00
#rwgt            1           1   3.0779275936356616E-002           5      145767           0
</event>
<event>
      5   9999  3.19816E-02  9.99017E+01 -1.00000E+00  1.23847E-01
      21    -1     0     0   502   501  0.000000000E+00  0.000000000E+00  1.644994280E+03  1.644994280E+03  0.000000000E+00  0.00000E+00  9.000E+00
      21    -1     0     0   512   502  0.000000000E+00  0.000000000E+00 -2.556338612E+02  2.556338612E+02  0.000000000E+00  0.00000E+00  9.000E+00
      25     1     1     2     0     0  2.020256559E+02 -4.218498306E+02  2.215320153E+02  5.324218994E+02  1.250000000E+02  0.00000E+00  9.000E+00
      25     1     1     2     0     0 -2.984182020E+02  3.956044923E+02  1.160487872E+03  1.268035267E+03  1.250000000E+02  0.00000E+00  9.000E+00
      21     1     1     2   512   501  9.639254616E+01  2.624533832E+01  7.340531445E+00  1.001709745E+02  1.745917620E-06  0.00000E+00  9.000E+00
#rwgt            1           1   3.0067673396524556E-002           5      145932           0
</event>
<event>
      5   9999  3.19816E-02  4.69617E+01 -1.00000E+00  1.40647E-01
      21    -1     0     0   502   501  0.000000000E+00  0.000000000E+00  9.756578377E+02  9.756578377E+02  0.000000000E+00  0.00000E+00  9.000E+00
      21    -1     0     0   501   511  0.000000000E+00  0.000000000E+00 -6.894530190E+02  6.894530190E+02  0.000000000E+00  0.00000E+00  9.000E+00
      25     1     1     2     0     0 -7.539913569E+01 -2.990232676E+02  8.931554725E+02  9.531272959E+02  1.250000000E+02  0.00000E+00  9.000E+00
      25     1     1     2     0     0  5.623011069E+01  2.561519038E+02 -3.700102572E+02  4.704340693E+02  1.250000000E+02  0.00000E+00  9.000E+00
      21     1     1     2   502   511  1.916902500E+01  4.287136381E+01 -2.369403965E+02  2.415494915E+02  0.000000000E+00  0.00000E+00  9.000E+00
#rwgt            1           1   2.8226429338698782E-002           5      146012           0
</event>
<event>
      5   9999  3.19816E-02  5.19883E+01 -1.00000E+00  1.38116E-01
      21    -1     0     0   502   512  0.000000000E+00  0.000000000E+00  4.733919183E+02  4.733919183E+02  0.000000000E+00  0.00000E+00  9.000E+00
      21    -1     0     0   501   502  0.000000000E+00  0.000000000E+00 -5.944431928E+02  5.944431928E+02  0.000000000E+00  0.00000E+00  9.000E+00
      25     1     1     2     0     0 -1.140956621E+02  3.500036387E+02  2.190453206E+02  4.462356101E+02  1.250000000E+02  0.00000E+00  9.000E+00
      25     1     1     2     0     0  1.574070361E+02 -3.212475605E+02 -3.940345286E+02  5.466856317E+02  1.250000000E+02  0.00000E+00  9.000E+00
      21     1     1     2   501   512 -4.331137405E+01 -2.875607817E+01  5.393793350E+01  7.491386938E+01  9.536743164E-07  0.00000E+00  9.000E+00
#rwgt            1           1   2.7690668745731846E-002           5      146197           0
</event>
<event>
      5   9999  3.19816E-02  7.06901E+02 -1.00000E+00  9.47595E-02
       2    -1     0     0   502     0  0.000000000E+00  0.000000000E+00  2.011126939E+03  2.011126939E+03  0.000000000E+00  0.00000E+00  9.000E+00
      21    -1     0     0   501   502  0.000000000E+00  0.000000000E+00 -3.012954350E+02  3.012954350E+02  0.000000000E+00  0.00000E+00  9.000E+00
      25     1     1     2     0     0  3.788854764E+02 -4.352220081E+00  2.984175880E+02  4.982481338E+02  1.250000000E+02  0.00000E+00  9.000E+00
      25     1     1     2     0     0  2.467736536E+02 -3.246770233E+02  4.403735836E+02  6.130793576E+02  1.250000000E+02  0.00000E+00  9.000E+00
       2     1     1     2   501     0 -6.256591300E+02  3.290292433E+02  9.710403323E+02  1.201094883E+03  2.157918644E-05  0.00000E+00  9.000E+00
#rwgt            2          18   1.9735978713413308E-003           5      146386           0
</event>
<event>
      5   9999  3.19816E-02  8.65680E+01 -1.00000E+00  1.26713E-01
       2    -1     0     0   502     0  0.000000000E+00  0.000000000E+00  9.179401677E+02  9.179401677E+02  0.000000000E+00  0.00000E+00  9.000E+00
      21    -1     0     0   501   502  0.000000000E+00  0.000000000E+00 -3.478412439E+02  3.478412439E+02  0.000000000E+00  0.00000E+00  9.000E+00
      25     1     1     2     0     0 -1.373028689E+02 -4.423904582E+02  3.554223776E+02  5.970858078E+02  1.250000000E+02  0.00000E+00  9.000E+00
      25     1     1     2     0     0  7.665186675E+01  3.806208916E+02 -3.016371519E+01  4.090019823E+02  1.250000000E+02  0.00000E+00  9.000E+00
       2     1     1     2   501     0  6.065100215E+01  6.176956660E+01  2.448402614E+02  2.596936214E+02  2.697398305E-06  0.00000E+00  9.000E+00
#rwgt            1           1   2.9237466112851853E-002           5      146450           0
</event>
<event>
      5   9999  3.19816E-02  3.46190E+01 -1.00000E+00  1.48842E-01
      21    -1     0     0   502   511  0.000000000E+00  0.000000000E+00  1.004884337E+02  1.004884337E+02  0.000000000E+00  0.00000E+00  9.000E+00
      21    -1     0     0   501   502  0.000000000E+00  0.000000000E+00 -1.029331999E+03  1.029331999E+03  0.000000000E+00  0.00000E+00  9.000E+00
      25     1     1     2     0     0  2.625529135E+02  4.280286944E+01 -2.897947912E+02  4.127616007E+02  1.250000000E+02  0.00000E+00  9.000E+00
      25     1     1     2     0     0 -2.329818561E+02 -2.480218382E+01 -6.261137308E+02  6.801022699E+02  1.250000000E+02  0.00000E+00  9.000E+00
      21     1     1     2   501   511 -2.957105741E+01 -1.800068562E+01 -1.293504290E+01  3.695656172E+01  3.769728732E-07  0.00000E+00  9.000E+00
#rwgt            1           1   2.8711528314151160E-002           5      146557           0
</event>
<event>
      5   9999  3.19816E-02  5.11964E+01 -1.00000E+00  1.38492E-01
      21    -1     0     0   502   501  0.000000000E+00  0.000000000E+00  1.116794327E+03  1.116794327E+03  0.000000000E+00  0.00000E+00  9.000E+00
       2    -1     0     0   501     0  0.000000000E+00  0.000000000E+00 -4.217276060E+02  4.217276060E+02  0.000000000E+00  0.00000E+00  9.000E+00
      25     1     1     2     0     0 -3.163056208E+02 -4.193042077E+02  6.099067773E+02  8.145406934E+02  1.250000000E+02  0.00000E+00  9.000E+00
      25     1     1     2     0     0  3.143695118E+02  3.681444152E+02  2.445389135E+02  5.565813333E+02  1.250000000E+02  0.00000E+00  9.000E+00
       2     1     1     2   502     0  1.936108993E+00  5.115979250E+01 -1.593789694E+02  1.673999067E+02  0.000000000E+00  0.00000E+00  9.000E+00
#rwgt            1           1   2.9939615079454269E-002           5      146627           0
</event>
<event>
      5   9999  3.19816E-02  2.54338E+01 -1.00000E+00  1.58193E-01
      21    -1     0     0   502   501  0.000000000E+00  0.000000000E+00  5.057864184E+02  5.057864184E+02  0.000000000E+00  0.00000E+00  9.000E+00
      21    -1     0     0   501   511  0.000000000E+00  0.000000000E+00 -4.959485213E+02  4.959485213E+02  0.000000000E+00  0.00000E+00  9.000E+00
      25     1     1     2     0     0  2.260701902E+02  2.680579783E+02 -2.072134309E+02  4.260577620E+02  1.250000000E+02  0.00000E+00  9.000E+00
      25     1     1     2     0     0 -2.039672175E+02 -2.554747650E+02  3.172020058E+02  4.723474292E+02  1.250000000E+02  0.00000E+00  9.000E+00
      21     1     1     2   502   511 -2.210297269E+01 -1.258321330E+01 -1.001506778E+02  1.033297485E+02  0.000000000E+00  0.00000E+00  9.000E+00
#rwgt            1           1   2.7245234607068999E-002           5      146753           0
</event>
<event>
      5   9999  3.19816E-02  1.62886E+01 -1.00000E+00  1.74077E-01
      21    -1     0     0   502   501  0.000000000E+00  0.000000000E+00  1.810445662E+03  1.810445662E+03  0.000000000E+00  0.00000E+00  9.000E+00
      21    -1     0     0   512   502  0.000000000E+00  0.000000000E+00 -3.584430325E+01  3.584430325E+01  0.000000000E+00  0.00000E+00  9.000E+00
      25     1     1     2     0     0  4.616295496E+01 -1.922385846E+02  7.325848948E+02  7.690203638E+02  1.250000000E+02  0.00000E+00  9.000E+00
      25     1     1     2     0     0 -6.126207117E+01  1.983487792E+02  1.026706283E+03  1.054915197E+03  1.250000000E+02  0.00000E+00  9.000E+00
      21     1     1     2   512   501  1.509911622E+01 -6.110194555E+00  1.531018041E+01  2.235440476E+01  1.685873940E-07  0.00000E+00  9.000E+00
#rwgt            1           1   2.4509338023748460E-002           5      146943           0
</event>
<event>
      5   9999  3.19816E-02  6.76029E+01 -1.00000E+00  1.31992E-01
      21    -1     0     0   511   501  0.000000000E+00  0.000000000E+00  9.539348935E+01  9.539348935E+01  0.000000000E+00  0.00000E+00  9.000E+00
      21    -1     0     0   501   502  0.000000000E+00  0.000000000E+00 -8.701890692E+02  8.701890692E+02  0.000000000E+00  0.00000E+00  9.000E+00
      25     1     1     2     0     0 -1.488162481E+02  6.124922848E+01 -1.549285651E+02  2.559796944E+02  1.250000000E+02  0.00000E+00  9.000E+00
      25     1     1     2     0     0  2.115247287E+02 -8.650398059E+01 -5.663521620E+02  6.233822430E+02  1.250000000E+02  0.00000E+00  9.000E+00
      21     1     1     2   511   502 -6.270848052E+01  2.525475211E+01 -5.351485277E+01  8.622062109E+01  1.168007728E-06  0.00000E+00  9.000E+00
#rwgt            1           1   2.8170116162356651E-002           5      147096           0
</event>
<event>
      5   9999  3.19816E-02  2.17063E+01 -1.00000E+00  1.63488E-01
      21    -1     0     0   502   501  0.000000000E+00  0.000000000E+00  2.028951707E+03  2.028951707E+03  0.000000000E+00  0.00000E+00  9.000E+00
      21    -1     0     0   512   502  0.000000000E+00  0.000000000E+00 -3.992997132E+02  3.992997132E+02  0.000000000E+00  0.00000E+00  9.000E+00
      25     1     1     2     0     0 -3.821730894E+02 -1.099499638E+02  1.365323764E+03  1.427543080E+03  1.250000000E+02  0.00000E+00  9.000E+00
      25     1     1     2     0     0  4.010507741E+02  1.206642100E+02  5.565653041E+02  7.076662439E+02  1.250000000E+02  0.00000E+00  9.000E+00
      21     1     1     2   512   501 -1.887768473E+01 -1.071424618E+01 -2.922370748E+02  2.930420959E+02  0.000000000E+00  0.00000E+00  9.000E+00
#rwgt            1           1   3.3769930673731921E-002           5      147161           0
</event>
<event>
      5   9999  3.19816E-02  1.14180E+02 -1.00000E+00  1.21292E-01
       2    -1     0     0   502     0  0.000000000E+00  0.000000000E+00  1.420599899E+03  1.420599899E+03  0.000000000E+00  0.00000E+00  9.000E+00
      21    -1     0     0   501   502  0.000000000E+00  0.000000000E+00 -1.062811350E+03  1.062811350E+03  0.000000000E+00  0.00000E+00  9.000E+00
      25     1     1     2     0     0 -2.410200464E+02 -1.761167462E+02 -2.271330042E+02  3.953759890E+02  1.250000000E+02  0.00000E+00  9.000E+00
      25     1     1     2     0     0  1.579163681E+02  2.544164102E+02 -7.139111356E+02  7.841934701E+02  1.250000000E+02  0.00000E+00  9.000E+00
       2     1     1     2   501     0  8.310367838E+01 -7.829966400E+01  1.298832689E+03  1.303841789E+03  1.525878906E-05  0.00000E+00  9.000E+00
#rwgt            1           1   2.7387246838190431E-002           5      147375           0
</event>
<event>
      5   9999  3.19816E-02  2.63477E+02 -1.00000E+00  1.07457E-01
       1    -1     0     0   502     0  0.000000000E+00  0.000000000E+00  1.106527370E+03  1.106527370E+03  0.000000000E+00  0.00000E+00  9.000E+00
      21    -1     0     0   501   502  0.000000000E+00  0.000000000E+00 -4.882303079E+02  4.882303079E+02  0.000000000E+00  0.00000E+00  9.000E+00
      25     1     1     2     0     0  2.821205992E+02  3.380233695E+02 -3.044937794E+02  5.497211043E+02  1.250000000E+02  0.00000E+00  9.000E+00
      25     1     1     2     0     0 -8.704165427E+01 -1.609239703E+02  3.453004974E+02  4.102806446E+02  1.250000000E+02  0.00000E+00  9.000E+00
       1     1     1     2   501     0 -1.950789449E+02 -1.770993992E+02  5.774903439E+02  6.347559288E+02  7.629394531E-06  0.00000E+00  9.000E+00
#rwgt            1           1   2.4095528431806016E-002           5      147467           0
</event>
<event>
      5   9999  3.19816E-02  2.03246E+02 -1.00000E+00  1.11394E-01
       1    -1     0     0   502     0  0.000000000E+00  0.000000000E+00  6.126339002E+02  6.126339002E+02  0.000000000E+00  0.00000E+00  9.000E+00
      21    -1     0     0   501   502  0.000000000E+00  0.000000000E+00 -2.457182385E+02  2.457182385E+02  0.000000000E+00  0.00000E+00  9.000E+00
      25     1     1     2     0     0 -3.471434502E+01 -4.213694826E+00  7.144008158E+00  1.299956839E+02  1.250000000E+02  0.00000E+00  9.000E+00
      25     1     1     2     0     0  1.895459646E+02 -1.274523357E+02 -5.530831212E+01  2.661874902E+02  1.250000000E+02  0.00000E+00  9.000E+00
       1     1     1     2   501     0 -1.548316196E+02  1.316660305E+02  4.150799657E+02  4.621689647E+02  0.000000000E+00  0.00000E+00  9.000E+00
#rwgt            1           1   3.1083191118114150E-002           5      147504           0
</event>
<event>
      5   9999  3.19816E-02  3.30329E+02 -1.00000E+00  1.04251E-01
       2    -1     0     0   502     0  0.000000000E+00  0.000000000E+00  1.603833251E+03  1.603833251E+03  0.000000000E+00  0.00000E+00  9.000E+00
      21    -1     0     0   501   502  0.000000000E+00  0.000000000E+00 -1.293561607E+02  1.293561607E+02  0.000000000E+00  0.00000E+00  9.000E+00
      25     1     1     2     0     0 -5.290841256E+01 -3.596839815E+01  2.778952742E+02  3.113580081E+02  1.250000000E+02  0.00000E+00  9.000E+00
      25     1     1     2     0     0  3.381512778E+02  2.025635218E+02  4.853115403E+02  6.375974891E+02  1.250000000E+02  0.00000E+00  9.000E+00
       2     1     1     2   501     0 -2.852428652E+02 -1.665951236E+02  7.112702761E+02  7.842339148E+02  1.078959322E-05  0.00000E+00  9.000E+00
#rwgt            2          18   1.2635979784661056E-003           5      147670           0
</event>
<event>
      5   9999  3.19816E-02  2.50178E+01 -1.00000E+00  1.58728E-01
      21    -1     0     0   502   501  0.000000000E+00  0.000000000E+00  2.755640154E+02  2.755640154E+02  0.000000000E+00  0.00000E+00  9.000E+00
      21    -1     0     0   511   502  0.000000000E+00  0.000000000E+00 -8.253828242E+02  8.253828242E+02  0.000000000E+00  0.00000E+00  9.000E+00
      25     1     1     2     0     0  1.424144982E+02  6.959155337E+01 -7.474113313E+02  7.741922060E+02  1.250000000E+02  0.00000E+00  9.000E+00
      25     1     1     2     0     0 -1.448394716E+02 -4.469151125E+01  2.187226593E+02  2.940074921E+02  1.250000000E+02  0.00000E+00  9.000E+00
      21     1     1     2   511   501  2.424973366E+00 -2.490004212E+01 -2.113013689E+01  3.274714153E+01  3.371747881E-07  0.00000E+00  9.000E+00
#rwgt            1           1   2.7417849183852410E-002           5      147689           0
</event>
<event>
      5   9999  3.19816E-02  2.50422E+02 -1.00000E+00  1.08205E-01
      -5    -1     0     0     0   501  0.000000000E+00  0.000000000E+00  6.281564771E+02  6.281564771E+02  0.000000000E+00  0.00000E+00  9.000E+00
      21    -1     0     0   501   502  0.000000000E+00  0.000000000E+00 -1.467014685E+03  1.467014685E+03  0.000000000E+00  0.00000E+00  9.000E+00
      25     1     1     2     0     0 -3.824212732E+02  5.941323689E+01  9.054366837E+01  4.166522756E+02  1.250000000E+02  0.00000E+00  9.000E+00
      25     1     1     2     0     0  2.835249903E+02 -2.894799680E+02 -1.221945949E+03  1.293430312E+03  1.250000000E+02  0.00000E+00  9.000E+00
      -5     1     1     2     0   502  9.889628287E+01  2.300667311E+02  2.925440724E+02  3.850885740E+02  3.814697266E-06  0.00000E+00  9.000E+00
#rwgt            2           1   3.5507492522599789E-005           5      147920           0
</event>
<event>
      5   9999  3.19816E-02  4.61466E+01 -1.00000E+00  1.41092E-01
      21    -1     0     0   502   501  0.000000000E+00  0.000000000E+00  2.081479855E+02  2.081479855E+02  0.000000000E+00  0.00000E+00  9.000E+00
       2    -1     0     0   501     0  0.000000000E+00  0.000000000E+00 -1.154962612E+03  1.154962612E+03  0.000000000E+00  0.00000E+00  9.000E+00
      25     1     1     2     0     0  2.225274759E+02 -2.519714229E+01  1.019225248E+02  2.759829245E+02  1.250000000E+02  0.00000E+00  9.000E+00
      25     1     1     2     0     0 -1.774151863E+02  3.491239799E+01 -6.596050678E+02  6.952689187E+02  1.250000000E+02  0.00000E+00  9.000E+00
       2     1     1     2   502     0 -4.511228960E+01 -9.715255699E+00 -3.891320839E+02  3.918587547E+02  7.629394531E-06  0.00000E+00  9.000E+00
#rwgt            1           1   2.9222661542943566E-002           5      147939           0
</event>
<event>
      5   9999  3.19816E-02  1.09541E+02 -1.00000E+00  1.22074E-01
      21    -1     0     0   511   501  0.000000000E+00  0.000000000E+00  7.151466656E+01  7.151466656E+01  0.000000000E+00  0.00000E+00  9.000E+00
      21    -1     0     0   501   502  0.000000000E+00  0.000000000E+00 -9.382662672E+02  9.382662672E+02  0.000000000E+00  0.00000E+00  9.000E+00
      25     1     1     2     0     0  1.345664315E+02 -7.051400724E+00 -6.398712356E+02  6.657462316E+02  1.250000000E+02  0.00000E+00  9.000E+00
      25     1     1     2     0     0 -4.369171043E+01  6.821587259E+01 -1.254117478E+02  1.947189701E+02  1.250000000E+02  0.00000E+00  9.000E+00
      21     1     1     2   511   502 -9.087472109E+01 -6.116447186E+01 -1.014686173E+02  1.493157321E+02  1.348699152E-06  0.00000E+00  9.000E+00
#rwgt            1           1   2.7675388938900054E-002           5      148076           0
</event>
<event>
      5   9999  3.19816E-02  9.99005E+01 -1.00000E+00  1.23847E-01
      21    -1     0     0   502   501  0.000000000E+00  0.000000000E+00  4.209313441E+02  4.209313441E+02  0.000000000E+00  0.00000E+00  9.000E+00
      21    -1     0     0   512   502  0.000000000E+00  0.000000000E+00 -9.275611138E+02  9.275611138E+02  0.000000000E+00  0.00000E+00  9.000E+00
      25     1     1     2     0     0 -6.280949719E+01 -1.727909634E+02  2.548351477E+02  3.381829423E+02  1.250000000E+02  0.00000E+00  9.000E+00
      25     1     1     2     0     0 -1.395283899E+01  1.088562148E+02  6.443834381E+01  1.783862589E+02  1.250000000E+02  0.00000E+00  9.000E+00
      21     1     1     2   512   501  7.676233618E+01  6.393474856E+01 -8.259032611E+02  8.319232567E+02  1.525878906E-05  0.00000E+00  9.000E+00
#rwgt            1           1   3.1369323015992899E-002           5      148116           0
</event>
<event>
      5   9999  3.19816E-02  2.53199E+01 -1.00000E+00  1.58338E-01
      21    -1     0     0   502   501  0.000000000E+00  0.000000000E+00  5.026498375E+02  5.026498375E+02  0.000000000E+00  0.00000E+00  9.000E+00
       2    -1     0     0   501     0  0.000000000E+00  0.000000000E+00 -2.009281861E+03  2.009281861E+03  0.000000000E+00  0.00000E+00  9.000E+00
      25     1     1     2     0     0  1.016339334E+02 -2.545924762E+02 -6.269426419E+02  6.955780773E+02  1.250000000E+02  0.00000E+00  9.000E+00
      25     1     1     2     0     0 -1.257813872E+02  2.622081852E+02  4.147069687E+02  5.217096507E+02  1.250000000E+02  0.00000E+00  9.000E+00
       2     1     1     2   502     0  2.414745374E+01 -7.615708990E+00 -1.294396351E+03  1.294643971E+03  1.525878906E-05  0.00000E+00  9.000E+00
#rwgt            1           1   2.3706368668311367E-002           5      148182           0
</event>
<event>
      5   9999  3.19816E-02  1.08721E+02 -1.00000E+00  1.22216E-01
      21    -1     0     0   502   501  0.000000000E+00  0.000000000E+00  2.020717890E+02  2.020717890E+02  0.000000000E+00  0.00000E+00  9.000E+00
       2    -1     0     0   501     0  0.000000000E+00  0.000000000E+00 -1.147844242E+03  1.147844242E+03  0.000000000E+00  0.00000E+00  9.000E+00
      25     1     1     2     0     0 -2.507048742E+02 -9.414851310E+01 -6.935095477E+01  3.035645424E+02  1.250000000E+02  0.00000E+00  9.000E+00
      25     1     1     2     0     0  2.909270314E+02  1.951554764E+02 -3.565899857E+02  5.152723702E+02  1.250000000E+02  0.00000E+00  9.000E+00
       2     1     1     2   502     0 -4.022215722E+01 -1.010069633E+02 -5.198315124E+02  5.310791183E+02  7.629394531E-06  0.00000E+00  9.000E+00
#rwgt            2          13   6.0238071475195772E-004           5      148388           0
</event>
<event>
      5   9999  3.19816E-02  1.11534E+01 -1.00000E+00  1.90432E-01
      -3    -1     0     0     0   501  0.000000000E+00  0.000000000E+00  3.086909951E+02  3.086909951E+02  0.000000000E+00  0.00000E+00  9.000E+00
      21    -1     0     0   501   502  0.000000000E+00  0.000000000E+00 -5.492581358E+02  5.492581358E+02  0.000000000E+00  0.00000E+00  9.000E+00
      25     1     1     2     0     0 -3.129065119E+01  1.351919715E+02 -1.962044296E+02  2.708821740E+02  1.250000000E+02  0.00000E+00  9.000E+00
      25     1     1     2     0     0  3.495329025E+01 -1.246571436E+02 -2.899328862E+02  3.412436292E+02  1.250000000E+02  0.00000E+00  9.000E+00
      -3     1     1     2     0   502 -3.662639062E+00 -1.053482789E+01  2.455701751E+02  2.458233277E+02  2.697398305E-06  0.00000E+00  9.000E+00
#rwgt            1           1   2.9660477516733324E-002           5      148407           0
</event>
<event>
      5   9999  3.19816E-02  4.23853E+01 -1.00000E+00  1.43297E-01
      21    -1     0     0   502   501  0.000000000E+00  0.000000000E+00  9.334755236E+02  9.334755236E+02  0.000000000E+00  0.00000E+00  9.000E+00
      21    -1     0     0   501   511  0.000000000E+00  0.000000000E+00 -4.830073368E+02  4.830073368E+02  0.000000000E+00  0.00000E+00  9.000E+00
      25     1     1     2     0     0 -4.434680022E+02  2.979063684E+01  1.702757607E+02  4.921079005E+02  1.250000000E+02  0.00000E+00  9.000E+00
      25     1     1     2     0     0  4.712832180E+02  2.191026859E+00  5.012576279E+02  6.992831198E+02  1.250000000E+02  0.00000E+00  9.000E+00
      21     1     1     2   502   511 -2.781521579E+01 -3.198166370E+01 -2.210652018E+02  2.250918401E+02  3.814697266E-06  0.00000E+00  9.000E+00
#rwgt            1           1   3.1978494014867645E-002           5      148588           0
</event>
<event>
      5   9999  3.19816E-02  7.85035E+01 -1.00000E+00  1.28748E-01
      -1    -1     0     0     0   501  0.000000000E+00  0.000000000E+00  3.995549024E+02  3.995549024E+02  0.000000000E+00  0.00000E+00  9.000E+00
      21    -1     0     0   501   502  0.000000000E+00  0.000000000E+00 -5.549447753E+02  5.549447753E+02  0.000000000E+00  0.00000E+00  9.000E+00
      25     1     1     2     0     0  6.734261004E+01  1.518965875E+02 -2.823191153E+02  3.506232783E+02  1.250000000E+02  0.00000E+00  9.000E+00
      25     1     1     2     0     0 -1.457351606E+02 -1.560686111E+02 -1.677409245E+02  2.989283629E+02  1.250000000E+02  0.00000E+00  9.000E+00
      -1     1     1     2     0   502  7.839255057E+01  4.172023657E+00  2.946701668E+02  3.049480365E+02  0.000000000E+00  0.00000E+00  9.000E+00
#rwgt            1           1   3.0978896677942958E-002           5      148717           0
</event>
<event>
      5   9999  3.19816E-02  6.51185E+01 -1.00000E+00  1.32831E-01
      21    -1     0     0   502   501  0.000000000E+00  0.000000000E+00  8.922240165E+02  8.922240165E+02  0.000000000E+00  0.00000E+00  9.000E+00
      21    -1     0     0   501   511  0.000000000E+00  0.000000000E+00 -8.333892389E+02  8.333892389E+02  0.000000000E+00  0.00000E+00  9.000E+00
      25     1     1     2     0     0  1.165100514E+02  2.193443295E+02 -6.654359688E+02  7.211910673E+02  1.250000000E+02  0.00000E+00  9.000E+00
      25     1     1     2     0     0 -1.469627411E+02 -1.617851493E+02  8.371013098E+02  8.741487772E+02  1.250000000E+02  0.00000E+00  9.000E+00
      21     1     1     2   502   511  3.045268976E+01 -5.755918023E+01 -1.128305634E+02  1.302734109E+02  1.907348633E-06  0.00000E+00  9.000E+00
#rwgt            1           1   2.9793255742304261E-002           5      148808           0
</event>
<event>
      5   9999  3.19816E-02  5.92613E+01 -1.00000E+00  1.34992E-01
      21    -1     0     0   502   512  0.000000000E+00  0.000000000E+00  2.462470063E+02  2.462470063E+02  0.000000000E+00  0.00000E+00  9.000E+00
      21    -1     0     0   501   502  0.000000000E+00  0.000000000E+00 -8.293764771E+02  8.293764771E+02  0.000000000E+00  0.00000E+00  9.000E+00
      25     1     1     2     0     0 -4.054143276E+02 -6.060260303E+01 -3.827907297E+02  5.746191741E+02  1.250000000E+02  0.00000E+00  9.000E+00
      25     1     1     2     0     0  3.546592053E+02  9.119370301E+01 -2.110896054E+02  4.407757535E+02  1.250000000E+02  0.00000E+00  9.000E+00
      21     1     1     2   501   512  5.075512229E+01 -3.059109998E+01  1.075086427E+01  6.022855568E+01  6.529361695E-07  0.00000E+00  9.000E+00
#rwgt            1           1   2.2228599274907588E-002           5      148939           0
</event>
<event>
      5   9999  3.19816E-02  2.20572E+01 -1.00000E+00  1.62935E-01
      21    -1     0     0   502   501  0.000000000E+00  0.000000000E+00  1.815558992E+02  1.815558992E+02  0.000000000E+00  0.00000E+00  9.000E+00
      21    -1     0     0   501   511  0.000000000E+00  0.000000000E+00 -2.661652669E+03  2.661652669E+03  0.000000000E+00  0.00000E+00  9.000E+00
      25     1     1     2     0     0  4.478582280E+02  5.419129980E+01 -2.873088209E+02  5.492586348E+02  1.250000000E+02  0.00000E+00  9.000E+00
      25     1     1     2     0     0 -4.564757577E+02 -7.449549007E+01 -1.086540534E+03  1.187482643E+03  1.250000000E+02  0.00000E+00  9.000E+00
      21     1     1     2   502   511  8.617529705E+00  2.030419027E+01 -1.106247415E+03  1.106467290E+03  1.525878906E-05  0.00000E+00  9.000E+00
#rwgt            1           1   1.8797501827430858E-002           5      149031           0
</event>
<event>
      5   9999  3.19816E-02  1.69258E+02 -1.00000E+00  1.14352E-01
      21    -1     0     0   502   501  0.000000000E+00  0.000000000E+00  3.195206470E+02  3.195206470E+02  0.000000000E+00  0.00000E+00  9.000E+00
      21    -1     0     0   501   512  0.000000000E+00  0.000000000E+00 -4.616724537E+02  4.616724537E+02  0.000000000E+00  0.00000E+00  9.000E+00
      25     1     1     2     0     0 -1.628664686E+02 -9.839518779E+00 -1.244117678E+02  2.402615048E+02  1.250000000E+02  0.00000E+00  9.000E+00
      25     1     1     2     0     0  3.321133236E+02  1.179592659E+01  5.012497727E+01  3.585748415E+02  1.250000000E+02  0.00000E+00  9.000E+00
      21     1     1     2   502   512 -1.692468550E+02 -1.956407808E+00 -6.786501620E+01  1.823567544E+02  1.907348633E-06  0.00000E+00  9.000E+00
#rwgt            1           1   2.5565888489260065E-002           5      149144           0
</event>
<event>
      5   9999  3.19816E-02  2.57988E+01 -1.00000E+00  1.57734E-01
      21    -1     0     0   502   501  0.000000000E+00  0.000000000E+00  8.147022475E+02  8.147022475E+02  0.000000000E+00  0.00000E+00  9.000E+00
      21    -1     0     0   501   511  0.000000000E+00  0.000000000E+00 -8.136009906E+01  8.136009906E+01  0.000000000E+00  0.00000E+00  9.000E+00
      25     1     1     2     0     0 -5.165509893E+01 -1.568087800E+02  5.786687284E+02  6.146053530E+02  1.250000000E+02  0.00000E+00  9.000E+00
      25     1     1     2     0     0  2.732325436E+01  1.653843925E+02  1.335242064E+02  2.480973019E+02  1.250000000E+02  0.00000E+00  9.000E+00
      21     1     1     2   502   511  2.433184457E+01 -8.575612434E+00  2.114921367E+01  3.335969166E+01  5.331201500E-07  0.00000E+00  9.000E+00
#rwgt            1           1   2.7118934343412275E-002           5      149172           0
</event>
<event>
      5   9999  3.19816E-02  3.68244E+01 -1.00000E+00  1.47104E-01
      -1    -1     0     0     0   501  0.000000000E+00  0.000000000E+00  1.682598764E+03  1.682598764E+03  0.000000000E+00  0.00000E+00  9.000E+00
      21    -1     0     0   501   502  0.000000000E+00  0.000000000E+00 -9.591785588E+01  9.591785588E+01  0.000000000E+00  0.00000E+00  9.000E+00
      25     1     1     2     0     0 -6.993344863E+01 -8.321902669E+01 -7.885513149E+00  1.658411136E+02  1.250000000E+02  0.00000E+00  9.000E+00
      25     1     1     2     0     0  4.153344972E+01  5.977803419E+01  5.913780339E+02  6.088114813E+02  1.250000000E+02  0.00000E+00  9.000E+00
      -1     1     1     2     0   502  2.839999891E+01  2.344099250E+01  1.003188388E+03  1.003864025E+03  1.525878906E-05  0.00000E+00  9.000E+00
#rwgt            1           1   2.7238832983309685E-002           5      149291           0
</event>
<event>
      5   9999  3.19816E-02  1.21949E+02 -1.00000E+00  1.20072E-01
      21    -1     0     0   502   501  0.000000000E+00  0.000000000E+00  1.018746590E+03  1.018746590E+03  0.000000000E+00  0.00000E+00  9.000E+00
      21    -1     0     0   511   502  0.000000000E+00  0.000000000E+00 -3.722804971E+02  3.722804971E+02  0.000000000E+00  0.00000E+00  9.000E+00
      25     1     1     2     0     0 -3.559933870E+02 -6.347137703E+01  6.546056214E+02  7.582172689E+02  1.250000000E+02  0.00000E+00  9.000E+00
      25     1     1     2     0     0  4.534385289E+02  1.367920476E+02  5.936452929E+01  4.934244735E+02  1.250000000E+02  0.00000E+00  9.000E+00
      21     1     1     2   511   501 -9.744514183E+01 -7.332067052E+01 -6.750405797E+01  1.393853444E+02  0.000000000E+00  0.00000E+00  9.000E+00
#rwgt            1           1   2.6065841274848602E-002           5      149370           0
</event>
<event>
      5   9999  3.19816E-02  3.07239E+01 -1.00000E+00  1.52324E-01
      21    -1     0     0   512   501  0.000000000E+00  0.000000000E+00  1.313547618E+02  1.313547618E+02  0.000000000E+00  0.00000E+00  9.000E+00
      21    -1     0     0   501   502  0.000000000E+00  0.000000000E+00 -3.119886244E+02  3.119886244E+02  0.000000000E+00  0.00000E+00  9.000E+00
      25     1     1     2     0     0 -2.036958447E+00 -5.246579087E+00  6.127828354E+01  1.393258907E+02  1.250000000E+02  0.00000E+00  9.000E+00
      25     1     1     2     0     0 -8.095328271E+00  3.425162804E+01 -2.404290877E+02  2.732578537E+02  1.250000000E+02  0.00000E+00  9.000E+00
      21     1     1     2   512   502  1.013228672E+01 -2.900504895E+01 -1.483058376E+00  3.075964176E+01  6.877172446E-07  0.00000E+00  9.000E+00
#rwgt            1           1   2.6585442521011811E-002           5      149473           0
</event>
<event>
      5   9999  3.19816E-02  1.30598E+02 -1.00000E+00  1.18829E-01
      21    -1     0     0   502   501  0.000000000E+00  0.000000000E+00  4.196060240E+02  4.196060240E+02  0.000000000E+00  0.00000E+00  9.000E+00
      21    -1     0     0   501   511  0.000000000E+00  0.000000000E+00 -1.110056628E+03  1.110056628E+03  0.000000000E+00  0.00000E+00  9.000E+00
      25     1     1     2     0     0 -1.517606600E+02 -3.503195318E+02 -6.666424927E+01  4.072151696E+02  1.250000000E+02  0.00000E+00  9.000E+00
      25     1     1     2     0     0  2.168347357E+02  2.370884696E+02  1.217053604E+02  3.656028443E+02  1.250000000E+02  0.00000E+00  9.000E+00
      21     1     1     2   502   511 -6.507407571E+01  1.132310621E+02 -7.454917149E+02  7.568446377E+02  0.000000000E+00  0.00000E+00  9.000E+00
#rwgt            1           1   2.7219421789583052E-002           5      149590           0
</event>
<event>
      5   9999  3.19816E-02  7.73909E+01 -1.00000E+00  1.29050E-01
      21    -1     0     0   512   501  0.000000000E+00  0.000000000E+00  1.130131174E+02  1.130131174E+02  0.000000000E+00  0.00000E+00  9.000E+00
      21    -1     0     0   501   502  0.000000000E+00  0.000000000E+00 -6.896853073E+02  6.896853073E+02  0.000000000E+00  0.00000E+00  9.000E+00
      25     1     1     2     0     0 -7.517583678E+01  7.393121046E+01 -4.463085247E+02  4.753246570E+02  1.250000000E+02  0.00000E+00  9.000E+00
      25     1     1     2     0     0  1.382616935E+02 -1.187589235E+02 -8.002074900E+01  2.350495652E+02  1.250000000E+02  0.00000E+00  9.000E+00
      21     1     1     2   512   502 -6.308585672E+01  4.482771308E+01 -5.034291613E+01  9.232420259E+01  2.336015456E-06  0.00000E+00  9.000E+00
#rwgt            1           1   2.4210240188401903E-002           5      149739           0
</event>
<event>
      5   9999  4.55671E-02  1.15501E+02 -1.00000E+00  1.21077E-01
      21    -1     0     0   502   501  0.000000000E+00  0.000000000E+00  2.054782399E+03  2.054782399E+03  0.000000000E+00  0.00000E+00  9.000E+00
      21    -1     0     0   511   502  0.000000000E+00  0.000000000E+00 -8.208884300E+01  8.208884300E+01  0.000000000E+00  0.00000E+00  9.000E+00
      25     1     1     2     0     0  2.794916922E+01 -1.716330731E+02  6.096877489E+02  6.462067928E+02  1.250000000E+02  0.00000E+00  9.000E+00
      25     1     1     2     0     0 -1.432823791E+02  1.778591420E+02  1.349487986E+03  1.374374963E+03  1.250000000E+02  0.00000E+00  9.000E+00
      21     1     1     2   511   501  1.153332098E+02 -6.226068902E+00  1.351782157E+01  1.162894867E+02  1.892388805E-06  0.00000E+00  9.000E+00
#rwgt            1           1  0.13236853396714726                5      149857           0
</event>
<event>
      5   9999  3.19816E-02  1.98065E+02 -1.00000E+00  1.11802E-01
       2    -1     0     0   502     0  0.000000000E+00  0.000000000E+00  2.632308578E+02  2.632308578E+02  0.000000000E+00  0.00000E+00  9.000E+00
      21    -1     0     0   501   502  0.000000000E+00  0.000000000E+00 -4.007296307E+02  4.007296307E+02  0.000000000E+00  0.00000E+00  9.000E+00
      25     1     1     2     0     0  1.747958330E+02 -1.317279712E+02  6.969694913E+01  2.615119622E+02  1.250000000E+02  0.00000E+00  9.000E+00
      25     1     1     2     0     0 -3.772982475E+01 -1.125002212E+01 -2.517916937E+01  1.334507147E+02  1.250000000E+02  0.00000E+00  9.000E+00
       2     1     1     2   501     0 -1.370660083E+02  1.429779934E+02 -1.820165526E+02  2.689978116E+02  0.000000000E+00  0.00000E+00  9.000E+00
#rwgt            2          18   4.2605749522529670E-005           5      149983           0
</event>
<event>
      5   9999  3.19816E-02  1.11682E+02 -1.00000E+00  1.21708E-01
       2    -1     0     0   502     0  0.000000000E+00  0.000000000E+00  1.242091544E+03  1.242091544E+03  0.000000000E+00  0.00000E+00  9.000E+00
      21    -1     0     0   501   502  0.000000000E+00  0.000000000E+00 -3.733313824E+02  3.733313824E+02  0.000000000E+00  0.00000E+00  9.000E+00
      25     1     1     2     0     0 -1.855679800E+02  2.021451655E+02  6.333260350E+02  7.014449442E+02  1.250000000E+02  0.00000E+00  9.000E+00
      25     1     1     2     0     0  2.512423857E+02 -1.118142258E+02 -2.646291368E+02  4.015952409E+02  1.250000000E+02  0.00000E+00  9.000E+00
       2     1     1     2   501     0 -6.567440570E+01 -9.033093963E+01  5.000632631E+02  5.123827411E+02  7.629394531E-06  0.00000E+00  9.000E+00
#rwgt            1           1   2.6806690259086278E-002           5      150002           0
</event>
<event>
      5   9999  3.19816E-02  4.32041E+01 -1.00000E+00  1.42795E-01
      21    -1     0     0   502   511  0.000000000E+00  0.000000000E+00  6.142801073E+02  6.142801073E+02  0.000000000E+00  0.00000E+00  9.000E+00
      21    -1     0     0   501   502  0.000000000E+00  0.000000000E+00 -1.614676034E+02  1.614676034E+02  0.000000000E+00  0.00000E+00  9.000E+00
      25     1     1     2     0     0  1.620940281E+02 -1.411756265E+02  1.744525914E+00  2.486625722E+02  1.250000000E+02  0.00000E+00  9.000E+00
      25     1     1     2     0     0 -1.653155163E+02  9.809179915E+01  3.722570070E+02  4.372087605E+02  1.250000000E+02  0.00000E+00  9.000E+00
      21     1     1     2   501   511  3.221488165E+00  4.308382733E+01  7.881097097E+01  8.987637793E+01  1.348699152E-06  0.00000E+00  9.000E+00
#rwgt            2          11   2.1772438198557368E-003           5      150137           0
</event>
<event>
      5   9999  3.19816E-02  2.25017E+01 -1.00000E+00  1.62254E-01
      21    -1     0     0   502   501  0.000000000E+00  0.000000000E+00  1.180841948E+03  1.180841948E+03  0.000000000E+00  0.00000E+00  9.000E+00
      21    -1     0     0   501   512  0.000000000E+00  0.000000000E+00 -2.549713826E+02  2.549713826E+02  0.000000000E+00  0.00000E+00  9.000E+00
      25     1     1     2     0     0 -3.016019610E+02  1.564589054E+02  9.739422996E+02  1.039053288E+03  1.250000000E+02  0.00000E+00  9.000E+00
      25     1     1     2     0     0  2.966061352E+02 -1.783989837E+02 -5.730386150E+01  3.724380880E+02  1.250000000E+02  0.00000E+00  9.000E+00
      21     1     1     2   502   512  4.995825776E+00  2.194007828E+01  9.232127301E+00  2.432195478E+01  4.460403188E-07  0.00000E+00  9.000E+00
#rwgt            1           1   2.9590680346461416E-002           5      150157           0
</event>
<event>
      5   9999  3.19816E-02  2.28387E+01 -1.00000E+00  1.61749E-01
      21    -1     0     0   502   501  0.000000000E+00  0.000000000E+00  1.233442058E+03  1.233442058E+03  0.000000000E+00  0.00000E+00  9.000E+00
      21    -1     0     0   511   502  0.000000000E+00  0.000000000E+00 -1.211983087E+03  1.211983087E+03  0.000000000E+00  0.00000E+00  9.000E+00
      25     1     1     2     0     0  6.002584739E+02  1.723478905E+01  8.293612238E+02  1.031538808E+03  1.250000000E+02  0.00000E+00  9.000E+00
      25     1     1     2     0     0 -5.800939004E+02 -6.511163909E+00  1.209832325E+01  5.935677703E+02  1.250000000E+02  0.00000E+00  9.000E+00
      21     1     1     2   511   501 -2.016457347E+01 -1.072362514E+01 -8.200005760E+02  8.203185667E+02  1.078959322E-05  0.00000E+00  9.000E+00
#rwgt            1           1   2.0672178425469725E-002           5      150304           0
</event>
<event>
      5   9999  3.19816E-02  6.07334E+01 -1.00000E+00  1.34422E-01
      21    -1     0     0   502   501  0.000000000E+00  0.000000000E+00  1.671540083E+02  1.671540083E+02  0.000000000E+00  0.00000E+00  9.000E+00
      21    -1     0     0   501   512  0.000000000E+00  0.000000000E+00 -1.021215353E+03  1.021215353E+03  0.000000000E+00  0.00000E+00  9.000E+00
      25     1     1     2     0     0  1.288341224E+01 -2.318397017E+02 -3.512222412E+01  2.660342087E+02  1.250000000E+02  0.00000E+00  9.000E+00
      25     1     1     2     0     0 -5.115728449E+01  1.846839777E+02 -2.105953567E+02  3.109672710E+02  1.250000000E+02  0.00000E+00  9.000E+00
      21     1     1     2   502   512  3.827387225E+01  4.715572401E+01 -6.083437640E+02  6.113678817E+02  1.321449896E-05  0.00000E+00  9.000E+00
#rwgt            1           1   2.5151311983828171E-002           5      150527           0
</event>
<event>
      5   9999  3.19816E-02  7.98571E+01 -1.00000E+00  1.28387E-01
      21    -1     0     0   502   501  0.000000000E+00  0.000000000E+00  1.650983579E+02  1.650983579E+02  0.000000000E+00  0.00000E+00  9.000E+00
      21    -1     0     0   501   511  0.000000000E+00  0.000000000E+00 -3.754970338E+02  3.754970338E+02  0.000000000E+00  0.00000E+00  9.000E+00
      25     1     1     2     0     0  5.906473846E+01  1.027621121E+02  6.193874528E+01  1.830576499E+02  1.250000000E+02  0.00000E+00  9.000E+00
      25     1     1     2     0     0 -6.112886613E+01 -2.293170197E+01 -1.184685099E+02  1.841803168E+02  1.250000000E+02  0.00000E+00  9.000E+00
      21     1     1     2   502   511  2.064127670E+00 -7.983041009E+01 -1.538689113E+02  1.733574251E+02  2.697398305E-06  0.00000E+00  9.000E+00
#rwgt            1           1   3.1066936734940848E-002           5      150593           0
</event>
<event>
      5   9999  3.19816E-02  1.18706E+02 -1.00000E+00  1.20568E-01
      21    -1     0     0   502   501  0.000000000E+00  0.000000000E+00  2.222246922E+03  2.222246922E+03  0.000000000E+00  0.00000E+00  9.000E+00
      21    -1     0     0   501   512  0.000000000E+00  0.000000000E+00 -4.462643959E+02  4.462643959E+02  0.000000000E+00  0.00000E+00  9.000E+00
      25     1     1     2     0     0  6.600291357E+02 -5.300634466E+02  9.172781700E+02  1.254444083E+03  1.250000000E+02  0.00000E+00  9.000E+00
      25     1     1     2     0     0 -7.239789989E+02  6.300714429E+02  8.608988359E+02  1.295340658E+03  1.250000000E+02  0.00000E+00  9.000E+00
      21     1     1     2   502   512  6.394986321E+01 -1.000079963E+02 -2.194479604E+00  1.187265769E+02  2.228807282E-06  0.00000E+00  9.000E+00
#rwgt            1           1   3.1403347407998564E-002           5      150650           0
</event>
<event>
      5   9999  3.19816E-02  5.12675E+01 -1.00000E+00  1.38458E-01
      21    -1     0     0   511   501  0.000000000E+00  0.000000000E+00  2.746275739E+02  2.746275739E+02  0.000000000E+00  0.00000E+00  9.000E+00
      21    -1     0     0   501   502  0.000000000E+00  0.000000000E+00 -2.525682774E+02  2.525682774E+02  0.000000000E+00  0.00000E+00  9.000E+00
      25     1     1     2     0     0  1.548078504E+02 -1.299554241E+02 -7.933330027E+01  2.505447172E+02  1.250000000E+02  0.00000E+00  9.000E+00
      25     1     1     2     0     0 -1.424621036E+02  8.019666422E+01  8.675761795E+01  2.233357118E+02  1.250000000E+02  0.00000E+00  9.000E+00
      21     1     1     2   511   502 -1.234574684E+01  4.975875985E+01  1.463497877E+01  5.331542226E+01  5.840038640E-07  0.00000E+00  9.000E+00
#rwgt            1           1   2.5923605376420904E-002           5      150760           0
</event>
<event>
      5   9999  3.19816E-02  6.70230E+01 -1.00000E+00  1.32184E-01
      21    -1     0     0   502   501  0.000000000E+00  0.000000000E+00  1.184293439E+03  1.184293439E+03  0.000000000E+00  0.00000E+00  9.000E+00
      21    -1     0     0   512   502  0.000000000E+00  0.000000000E+00 -2.927490566E+01  2.927490566E+01  0.000000000E+00  0.00000E+00  9.000E+00
      25     1     1     2     0     0 -2.769496841E+01 -6.565500022E+01  6.465216106E+02  6.623388734E+02  1.250000000E+02  0.00000E+00  9.000E+00
      25     1     1     2     0     0  7.287059651E+01  1.614499814E+01  3.371634958E+02  3.672533290E+02  1.250000000E+02  0.00000E+00  9.000E+00
      21     1     1     2   512   501 -4.517562810E+01  4.951000209E+01  1.713334267E+02  1.839761419E+02  2.697398305E-06  0.00000E+00  9.000E+00
#rwgt            1           1   4.4906248541369848E-002           5      150814           0
</event>
<event>
      5   9999  3.19816E-02  1.28884E+01 -1.00000E+00  1.83825E-01
      21    -1     0     0   502   511  0.000000000E+00  0.000000000E+00  4.075675901E+02  4.075675901E+02  0.000000000E+00  0.00000E+00  9.000E+00
      21    -1     0     0   501   502  0.000000000E+00  0.000000000E+00 -2.040792620E+03  2.040792620E+03  0.000000000E+00  0.00000E+00  9.000E+00
      25     1     1     2     0     0  7.151690563E+01  6.805557121E+02 -9.682373496E+02  1.192216134E+03  1.250000000E+02  0.00000E+00  9.000E+00
      25     1     1     2     0     0 -6.550742384E+01 -6.919573022E+02 -8.304826799E+02  1.090147977E+03  1.250000000E+02  0.00000E+00  9.000E+00
      21     1     1     2   501   511 -6.009481786E+00  1.140159014E+01  1.654949993E+02  1.659960991E+02  4.264961200E-06  0.00000E+00  9.000E+00
#rwgt            1           1   1.4770952482652259E-002           5      150862           0
</event>
<event>
      5   9999  3.19816E-02  2.40236E+01 -1.00000E+00  1.60058E-01
      21    -1     0     0   502   512  0.000000000E+00  0.000000000E+00  1.277265337E+02  1.277265337E+02  0.000000000E+00  0.00000E+00  9.000E+00
      21    -1     0     0   501   502  0.000000000E+00  0.000000000E+00 -1.265789153E+03  1.265789153E+03  0.000000000E+00  0.00000E+00  9.000E+00
      25     1     1     2     0     0 -1.897009296E+02  1.994103621E+02 -1.300841129E+02  3.290863285E+02  1.250000000E+02  0.00000E+00  9.000E+00
      25     1     1     2     0     0  1.797081790E+02 -2.212570149E+02 -9.760351930E+02  1.024460538E+03  1.250000000E+02  0.00000E+00  9.000E+00
      21     1     1     2   501   512  9.992750528E+00  2.184665282E+01 -3.194331308E+01  3.996881976E+01  4.768371582E-07  0.00000E+00  9.000E+00
#rwgt            1           1   2.7668571198340774E-002           5      151166           0
</event>
<event>
      5   9999  3.19816E-02  2.29635E+02 -1.00000E+00  1.09506E-01
      21    -1     0     0   511   501  0.000000000E+00  0.000000000E+00  8.778310741E+02  8.778310741E+02  0.000000000E+00  0.00000E+00  9.000E+00
      21    -1     0     0   501   502  0.000000000E+00  0.000000000E+00 -1.775219751E+03  1.775219751E+03  0.000000000E+00  0.00000E+00  9.000E+00
      25     1     1     2     0     0 -2.040868109E+02 -7.720829350E+02 -1.070064877E+03  1.341054557E+03  1.250000000E+02  0.00000E+00  9.000E+00
      25     1     1     2     0     0  2.433255062E+02  9.983407166E+02  1.831625284E+01  1.035302841E+03  1.250000000E+02  0.00000E+00  9.000E+00
      21     1     1     2   511   502 -3.923869532E+01 -2.262577816E+02  1.543599472E+02  2.766934265E+02  3.814697266E-06  0.00000E+00  9.000E+00
#rwgt            1           1   3.3455834401518676E-002           5      151286           0
</event>
<event>
      5   9999  3.19816E-02  1.03948E+02 -1.00000E+00  1.23076E-01
      21    -1     0     0   502   512  0.000000000E+00  0.000000000E+00  3.357390485E+02  3.357390485E+02  0.000000000E+00  0.00000E+00  9.000E+00
      21    -1     0     0   501   502  0.000000000E+00  0.000000000E+00 -6.821051463E+02  6.821051463E+02  0.000000000E+00  0.00000E+00  9.000E+00
      25     1     1     2     0     0  1.640353274E+02  4.055714940E+01 -3.247005012E+02  3.867917870E+02  1.250000000E+02  0.00000E+00  9.000E+00
      25     1     1     2     0     0 -2.001391659E+02 -1.380342047E+02 -2.561069570E+02  3.745996540E+02  1.250000000E+02  0.00000E+00  9.000E+00
      21     1     1     2   501   512  3.610383851E+01  9.747705530E+01  2.344413604E+02  2.564527538E+02  3.814697266E-06  0.00000E+00  9.000E+00
#rwgt            1           1   2.9482412562431747E-002           5      151382           0
</event>
<event>
      5   9999  3.19816E-02  3.80174E+01 -1.00000E+00  1.46223E-01
      21    -1     0     0   502   511  0.000000000E+00  0.000000000E+00  1.323878806E+03  1.323878806E+03  0.000000000E+00  0.00000E+00  9.000E+00
      21    -1     0     0   501   502  0.000000000E+00  0.000000000E+00 -2.219337121E+02  2.219337121E+02  0.000000000E+00  0.00000E+00  9.000E+00
      25     1     1     2     0     0  9.415261718E+01  3.806376281E+01  1.869370962E+01  1.621358077E+02  1.250000000E+02  0.00000E+00  9.000E+00
      25     1     1     2     0     0 -8.438304410E+01 -1.323123184E+00 -1.119756952E+02  1.878451626E+02  1.250000000E+02  0.00000E+00  9.000E+00
      21     1     1     2   501   511 -9.769573084E+00 -3.674063962E+01  1.195227079E+03  1.195831548E+03  0.000000000E+00  0.00000E+00  9.000E+00
#rwgt            1           1   2.7286820157144565E-002           5      151440           0
</event>
<event>
      5   9999  3.19816E-02  2.87195E+01 -1.00000E+00  1.54367E-01
       2    -1     0     0   502     0  0.000000000E+00  0.000000000E+00  3.815320548E+02  3.815320548E+02  0.000000000E+00  0.00000E+00  9.000E+00
      21    -1     0     0   501   502  0.000000000E+00  0.000000000E+00 -2.980593423E+03  2.980593423E+03  0.000000000E+00  0.00000E+00  9.000E+00
      25     1     1     2     0     0  1.658798403E+02  2.923582771E+02 -2.862296946E+03  2.884676462E+03  1.250000000E+02  0.00000E+00  9.000E+00
      25     1     1     2     0     0 -1.396629551E+02 -2.806328980E+02  1.660509341E+02  3.761096611E+02  1.250000000E+02  0.00000E+00  9.000E+00
       2     1     1     2   501     0 -2.621688522E+01 -1.172537911E+01  9.718464431E+01  1.013393540E+02  4.046097457E-06  0.00000E+00  9.000E+00
#rwgt            1           1   1.9916180277311853E-002           5      151508           0
</event>
<event>
      5   9999  3.19816E-02  8.52911E+01 -1.00000E+00  1.27018E-01
      21    -1     0     0   502   511  0.000000000E+00  0.000000000E+00  5.834057527E+02  5.834057527E+02  0.000000000E+00  0.00000E+00  9.000E+00
      21    -1     0     0   501   502  0.000000000E+00  0.000000000E+00 -4.703892366E+02  4.703892366E+02  0.000000000E+00  0.00000E+00  9.000E+00
      25     1     1     2     0     0 -1.565968734E+02 -7.413885992E+01 -3.997412736E+02  4.532518473E+02  1.250000000E+02  0.00000E+00  9.000E+00
      25     1     1     2     0     0  9.560907186E+01  1.337631355E+02  4.484452639E+02  4.937224177E+02  1.250000000E+02  0.00000E+00  9.000E+00
      21     1     1     2   501   511  6.098780154E+01 -5.962427559E+01  6.431252581E+01  1.068207244E+02  1.907348633E-06  0.00000E+00  9.000E+00
#rwgt            1           1   2.5056670602135140E-002           5      151770           0
</event>
<event>
      5   9999  3.19816E-02  1.34812E+01 -1.00000E+00  1.81866E-01
      21    -1     0     0   502   501  0.000000000E+00  0.000000000E+00  4.434554102E+02  4.434554102E+02  0.000000000E+00  0.00000E+00  9.000E+00
      21    -1     0     0   512   502  0.000000000E+00  0.000000000E+00 -1.013097803E+02  1.013097803E+02  0.000000000E+00  0.00000E+00  9.000E+00
      25     1     1     2     0     0  1.099333782E+02 -1.039344205E+02  2.362494912E+02  3.071262501E+02  1.250000000E+02  0.00000E+00  9.000E+00
      25     1     1     2     0     0 -1.184640128E+02  9.349551361E+01  1.083755090E+02  2.239316511E+02  1.250000000E+02  0.00000E+00  9.000E+00
      21     1     1     2   512   501  8.530634615E+00  1.043890692E+01 -2.479370323E+00  1.370728937E+01  1.659323085E-07  0.00000E+00  9.000E+00
#rwgt            1           1   3.2727934348258235E-002           5      151859           0
</event>
<event>
      5   9999  3.19816E-02  1.21722E+02 -1.00000E+00  1.20106E-01
      21    -1     0     0   502   501  0.000000000E+00  0.000000000E+00  2.684118216E+02  2.684118216E+02  0.000000000E+00  0.00000E+00  9.000E+00
       1    -1     0     0   501     0  0.000000000E+00  0.000000000E+00 -2.453336508E+03  2.453336508E+03  0.000000000E+00  0.00000E+00  9.000E+00
      25     1     1     2     0     0  2.593787072E+02  2.039907969E+02 -6.005863253E+01  3.579407749E+02  1.250000000E+02  0.00000E+00  9.000E+00
      25     1     1     2     0     0 -1.376595455E+02 -2.031049095E+02 -4.337658761E+01  2.787620546E+02  1.250000000E+02  0.00000E+00  9.000E+00
       1     1     1     2   502     0 -1.217191617E+02 -8.858873802E-01 -2.081489467E+03  2.085045501E+03  4.315837288E-05  0.00000E+00  9.000E+00
#rwgt            1           1   2.7556754103302272E-002           5      152023           0
</event>
<event>
      5   9999  3.19816E-02  7.52628E+01 -1.00000E+00  1.29646E-01
      21    -1     0     0   502   501  0.000000000E+00  0.000000000E+00  2.965144760E+02  2.965144760E+02  0.000000000E+00  0.00000E+00  9.000E+00
       1    -1     0     0   501     0  0.000000000E+00  0.000000000E+00 -1.094364857E+03  1.094364857E+03  0.000000000E+00  0.00000E+00  9.000E+00
      25     1     1     2     0     0  2.818572753E+02 -2.470797664E+02 -9.536962648E+00  3.952314364E+02  1.250000000E+02  0.00000E+00  9.000E+00
      25     1     1     2     0     0 -3.554715531E+02  2.314138129E+02 -3.878947047E+02  5.882173746E+02  1.250000000E+02  0.00000E+00  9.000E+00
       1     1     1     2   502     0  7.361427774E+01  1.566595357E+01 -4.004187133E+02  4.074305216E+02  7.629394531E-06  0.00000E+00  9.000E+00
#rwgt            1           1   2.7858158762828784E-002           5      152067           0
</event>
<event>
      5   9999  3.19816E-02  1.76053E+01 -1.00000E+00  1.71072E-01
      21    -1     0     0   511   501  0.000000000E+00  0.000000000E+00  5.985214929E+02  5.985214929E+02  0.000000000E+00  0.00000E+00  9.000E+00
      21    -1     0     0   501   502  0.000000000E+00  0.000000000E+00 -2.171739511E+02  2.171739511E+02  0.000000000E+00  0.00000E+00  9.000E+00
      25     1     1     2     0     0 -2.221351318E+02 -2.501961816E+02  1.777166532E+02  3.989365299E+02  1.250000000E+02  0.00000E+00  9.000E+00
      25     1     1     2     0     0  2.073173227E+02  2.406894001E+02  1.762033507E+02  3.841672558E+02  1.250000000E+02  0.00000E+00  9.000E+00
      21     1     1     2   511   502  1.481780914E+01  9.506781467E+00  2.742753788E+01  3.259165838E+01  3.371747881E-07  0.00000E+00  9.000E+00
#rwgt            1           1   3.2312886065511172E-002           5      152140           0
</event>
<event>
      5   9999  3.19816E-02  8.52292E+01 -1.00000E+00  1.27032E-01
      21    -1     0     0   502   512  0.000000000E+00  0.000000000E+00  9.188237556E+02  9.188237556E+02  0.000000000E+00  0.00000E+00  9.000E+00
      21    -1     0     0   501   502  0.000000000E+00  0.000000000E+00 -1.490533181E+03  1.490533181E+03  0.000000000E+00  0.00000E+00  9.000E+00
      25     1     1     2     0     0 -4.159260950E+02 -1.717438114E+02 -1.375333067E+03  1.452465662E+03  1.250000000E+02  0.00000E+00  9.000E+00
      25     1     1     2     0     0  3.416681882E+02  2.135742386E+02  7.350065525E+02  8.474731491E+02  1.250000000E+02  0.00000E+00  9.000E+00
      21     1     1     2   501   512  7.425790685E+01 -4.183042715E+01  6.861708896E+01  1.094181258E+02  1.348699152E-06  0.00000E+00  9.000E+00
#rwgt            1           1   2.9676877219404561E-002           5      152358           0
</event>
<event>
      5   9999  3.19816E-02  1.71096E+02 -1.00000E+00  1.14173E-01
      -2    -1     0     0     0   501  0.000000000E+00  0.000000000E+00  1.940184091E+03  1.940184091E+03  0.000000000E+00  0.00000E+00  9.000E+00
      21    -1     0     0   501   502  0.000000000E+00  0.000000000E+00 -1.423050861E+02  1.423050861E+02  0.000000000E+00  0.00000E+00  9.000E+00
      25     1     1     2     0     0 -2.949912206E+02 -2.661893483E+02  5.240884062E+02  6.694551866E+02  1.250000000E+02  0.00000E+00  9.000E+00
      25     1     1     2     0     0  1.239392926E+02  2.623007863E+02  3.416016181E+02  4.652733780E+02  1.250000000E+02  0.00000E+00  9.000E+00
      -2     1     1     2     0   502  1.710519280E+02  3.888561949E+00  9.321889807E+02  9.477606126E+02  1.525878906E-05  0.00000E+00  9.000E+00
#rwgt            2           4   3.9306208312769011E-005           5      152651           0
</event>
<event>
      5   9999  3.19816E-02  4.05859E+01 -1.00000E+00  1.44450E-01
      21    -1     0     0   502   511  0.000000000E+00  0.000000000E+00  6.322816422E+02  6.322816422E+02  0.000000000E+00  0.00000E+00  9.000E+00
      21    -1     0     0   501   502  0.000000000E+00  0.000000000E+00 -2.908348793E+03  2.908348793E+03  0.000000000E+00  0.00000E+00  9.000E+00
      25     1     1     2     0     0 -9.121121674E+02 -5.517312340E+02 -5.637417183E+02  1.212347180E+03  1.250000000E+02  0.00000E+00  9.000E+00
      25     1     1     2     0     0  9.263981535E+02  5.897197539E+02 -1.866311627E+03  2.169038270E+03  1.250000000E+02  0.00000E+00  9.000E+00
      21     1     1     2   501   511 -1.428598614E+01 -3.798851993E+01  1.539861947E+02  1.592449849E+02  3.814697266E-06  0.00000E+00  9.000E+00
#rwgt            1           1   6.1004766323748308E-002           5      152730           0
</event>
<event>
      5   9999  3.19816E-02  9.78603E+01 -1.00000E+00  1.24252E-01
       2    -1     0     0   502     0  0.000000000E+00  0.000000000E+00  2.079288786E+03  2.079288786E+03  0.000000000E+00  0.00000E+00  9.000E+00
      21    -1     0     0   501   502  0.000000000E+00  0.000000000E+00 -7.582238925E+01  7.582238925E+01  0.000000000E+00  0.00000E+00  9.000E+00
      25     1     1     2     0     0  2.565305965E+02  1.708459451E+02  8.288570273E+02  8.930986819E+02  1.250000000E+02  0.00000E+00  9.000E+00
      25     1     1     2     0     0 -1.747033499E+02 -2.245203507E+02  5.669160517E+02  6.464901067E+02  1.250000000E+02  0.00000E+00  9.000E+00
       2     1     1     2   501     0 -8.182724658E+01  5.367440566E+01  6.076933177E+02  6.155223866E+02  0.000000000E+00  0.00000E+00  9.000E+00
#rwgt            1           1   3.3130311525973379E-002           5      152952           0
</event>
<event>
      5   9999  3.19816E-02  1.56744E+02 -1.00000E+00  1.15642E-01
      21    -1     0     0   502   501  0.000000000E+00  0.000000000E+00  3.014994390E+02  3.014994390E+02  0.000000000E+00  0.00000E+00  9.000E+00
      21    -1     0     0   511   502  0.000000000E+00  0.000000000E+00 -4.381928143E+02  4.381928143E+02  0.000000000E+00  0.00000E+00  9.000E+00
      25     1     1     2     0     0 -1.430758156E+02 -1.668641724E+02  1.285767658E+01  2.531889826E+02  1.250000000E+02  0.00000E+00  9.000E+00
      25     1     1     2     0     0  2.543500548E+02  5.647113968E+01 -3.233975518E+01  2.907813607E+02  1.250000000E+02  0.00000E+00  9.000E+00
      21     1     1     2   511   501 -1.112742392E+02  1.103930327E+02 -1.172112967E+02  1.957219100E+02  1.348699152E-06  0.00000E+00  9.000E+00
#rwgt            1           1   3.2353798719380704E-002           5      153052           0
</event>
<event>
      5   9999  3.19816E-02  1.83631E+01 -1.00000E+00  1.69488E-01
      21    -1     0     0   502   501  0.000000000E+00  0.000000000E+00  8.606897004E+02  8.606897004E+02  0.000000000E+00  0.00000E+00  9.000E+00
      21    -1     0     0   512   502  0.000000000E+00  0.000000000E+00 -6.758773271E+02  6.758773271E+02  0.000000000E+00  0.00000E+00  9.000E+00
      25     1     1     2     0     0  4.586424315E+02 -4.359850388E+01  6.716313808E+02  8.239947944E+02  1.250000000E+02  0.00000E+00  9.000E+00
      25     1     1     2     0     0 -4.763516725E+02  3.874204481E+01 -4.372653231E+02  6.597255677E+02  1.250000000E+02  0.00000E+00  9.000E+00
      21     1     1     2   512   501  1.770924092E+01  4.856459065E+00 -4.955368432E+01  5.284666534E+01  0.000000000E+00  0.00000E+00  9.000E+00
#rwgt            1           1   3.1492408659331554E-002           5      153098           0
</event>
<event>
      5   9999  3.19816E-02  3.46667E+01 -1.00000E+00  1.48803E-01
      21    -1     0     0   511   501  0.000000000E+00  0.000000000E+00  4.280416157E+02  4.280416157E+02  0.000000000E+00  0.00000E+00  9.000E+00
      21    -1     0     0   501   502  0.000000000E+00  0.000000000E+00 -3.076127712E+02  3.076127712E+02  0.000000000E+00  0.00000E+00  9.000E+00
      25     1     1     2     0     0  9.481408524E+01  1.762406831E+02  2.687599571E+02  3.576414457E+02  1.250000000E+02  0.00000E+00  9.000E+00
      25     1     1     2     0     0 -1.292518614E+02 -1.722629460E+02 -1.975196303E+02  3.178357604E+02  1.250000000E+02  0.00000E+00  9.000E+00
      21     1     1     2   511   502  3.443777615E+01 -3.977737071E+00  4.918851775E+01  6.017718086E+01  0.000000000E+00  0.00000E+00  9.000E+00
#rwgt            1           1   2.5802092399190429E-002           5      153275           0
</event>
<event>
      5   9999  3.19816E-02  1.32825E+02 -1.00000E+00  1.18526E-01
      21    -1     0     0   512   501  0.000000000E+00  0.000000000E+00  5.087205958E+02  5.087205958E+02  0.000000000E+00  0.00000E+00  9.000E+00
      21    -1     0     0   501   502  0.000000000E+00  0.000000000E+00 -3.823054772E+02  3.823054772E+02  0.000000000E+00  0.00000E+00  9.000E+00
      25     1     1     2     0     0  2.416980475E+02 -2.452882756E+01 -1.795093326E+02  3.269070357E+02  1.250000000E+02  0.00000E+00  9.000E+00
      25     1     1     2     0     0 -3.034524125E+02 -9.306758951E+01  2.215682768E+02  4.067707514E+02  1.250000000E+02  0.00000E+00  9.000E+00
      21     1     1     2   512   502  6.175436507E+01  1.175964171E+02  8.435617435E+01  1.573482859E+02  1.907348633E-06  0.00000E+00  9.000E+00
#rwgt            1           1   2.6638696425117136E-002           5      153429           0
</event>
<event>
      5   9999  3.19816E-02  1.98300E+01 -1.00000E+00  1.66676E-01
      21    -1     0     0   502   501  0.000000000E+00  0.000000000E+00  1.692927112E+03  1.692927112E+03  0.000000000E+00  0.00000E+00  9.000E+00
      21    -1     0     0   511   502  0.000000000E+00  0.000000000E+00 -2.890829099E+02  2.890829099E+02  0.000000000E+00  0.00000E+00  9.000E+00
      25     1     1     2     0     0  1.352706829E+02  1.632049215E+02 -1.303730506E+02  2.784890238E+02  1.250000000E+02  0.00000E+00  9.000E+00
      25     1     1     2     0     0 -1.533358762E+02 -1.713826957E+02  1.606953362E+03  1.628130224E+03  1.250000000E+02  0.00000E+00  9.000E+00
      21     1     1     2   511   501  1.806519328E+01  8.177774234E+00 -7.273610931E+01  7.539077396E+01  2.132480600E-06  0.00000E+00  9.000E+00
#rwgt            1           1   2.7274961666784971E-002           5      153495           0
</event>
<event>
      5   9999  3.19816E-02  4.66846E+01 -1.00000E+00  1.40797E-01
      21    -1     0     0   502   501  0.000000000E+00  0.000000000E+00  2.559951783E+02  2.559951783E+02  0.000000000E+00  0.00000E+00  9.000E+00
      21    -1     0     0   512   502  0.000000000E+00  0.000000000E+00 -6.012725574E+02  6.012725574E+02  0.000000000E+00  0.00000E+00  9.000E+00
      25     1     1     2     0     0  1.021604889E+02 -1.753432394E+02  1.572794428E+02  2.855588209E+02  1.250000000E+02  0.00000E+00  9.000E+00
      25     1     1     2     0     0 -8.745131810E+01  1.310364078E+02 -2.825951981E+02  3.468476888E+02  1.250000000E+02  0.00000E+00  9.000E+00
      21     1     1     2   512   501 -1.470917082E+01  4.430683158E+01 -2.199616237E+02  2.248612259E+02  3.814697266E-06  0.00000E+00  9.000E+00
#rwgt            1           1   2.8583051240223017E-002           5      153758           0
</event>
<event>
      5   9999  3.19816E-02  3.80051E+01 -1.00000E+00  1.46232E-01
      21    -1     0     0   502   501  0.000000000E+00  0.000000000E+00  1.853917548E+02  1.853917548E+02  0.000000000E+00  0.00000E+00  9.000E+00
       2    -1     0     0   501     0  0.000000000E+00  0.000000000E+00 -7.595782728E+02  7.595782728E+02  0.000000000E+00  0.00000E+00  9.000E+00
      25     1     1     2     0     0 -1.052093709E+02 -1.289858492E+01  1.087061404E+02  1.966657321E+02  1.250000000E+02  0.00000E+00  9.000E+00
      25     1     1     2     0     0  6.761752263E+01  7.309506840E+00 -1.258613576E+02  1.899779976E+02  1.250000000E+02  0.00000E+00  9.000E+00
       2     1     1     2   502     0  3.759184827E+01  5.589078077E+00 -5.570313008E+02  5.583262979E+02  1.321449896E-05  0.00000E+00  9.000E+00
#rwgt            1           1   2.5752184621877190E-002           5      153893           0
</event>
<event>
      5   9999  3.19816E-02  1.38361E+01 -1.00000E+00  1.80753E-01
      21    -1     0     0   502   501  0.000000000E+00  0.000000000E+00  4.196776271E+02  4.196776271E+02  0.000000000E+00  0.00000E+00  9.000E+00
      -1    -1     0     0     0   502  0.000000000E+00  0.000000000E+00 -1.091086059E+03  1.091086059E+03  0.000000000E+00  0.00000E+00  9.000E+00
      25     1     1     2     0     0 -1.008409009E+02  5.337050356E+01  3.212721534E+02  3.631226990E+02  1.250000000E+02  0.00000E+00  9.000E+00
      25     1     1     2     0     0  1.143292334E+02 -5.028786994E+01 -2.338510116E+01  1.782467571E+02  1.250000000E+02  0.00000E+00  9.000E+00
      -1     1     1     2     0   501 -1.348833252E+01 -3.082633622E+00 -9.692954838E+02  9.693942297E+02  1.525878906E-05  0.00000E+00  9.000E+00
#rwgt            1           1   2.8349231582394802E-002           5      154000           0
</event>
<event>
      5   9999  3.19816E-02  7.73777E+01 -1.00000E+00  1.29054E-01
      21    -1     0     0   502   501  0.000000000E+00  0.000000000E+00  2.070294538E+02  2.070294538E+02  0.000000000E+00  0.00000E+00  9.000E+00
      21    -1     0     0   501   511  0.000000000E+00  0.000000000E+00 -1.704269253E+03  1.704269253E+03  0.000000000E+00  0.00000E+00  9.000E+00
      25     1     1     2     0     0  3.152731048E+02  1.484455667E+02 -4.064063947E+00  3.702360510E+02  1.250000000E+02  0.00000E+00  9.000E+00
      25     1     1     2     0     0 -2.417675338E+02 -1.242744232E+02 -1.078693939E+03  1.119420067E+03  1.250000000E+02  0.00000E+00  9.000E+00
      21     1     1     2   502   511 -7.350557098E+01 -2.417114351E+01 -4.144817966E+02  4.216425890E+02  0.000000000E+00  0.00000E+00  9.000E+00
#rwgt            1           1   2.6115030895039765E-002           5      154172           0
</event>
<event>
      5   9999  3.19816E-02  1.39199E+02 -1.00000E+00  1.17695E-01
      21    -1     0     0   502   512  0.000000000E+00  0.000000000E+00  2.301451302E+03  2.301451302E+03  0.000000000E+00  0.00000E+00  9.000E+00
      21    -1     0     0   501   502  0.000000000E+00  0.000000000E+00 -2.489704826E+02  2.489704826E+02  0.000000000E+00  0.00000E+00  9.000E+00
      25     1     1     2     0     0  2.257758350E+01 -5.308801754E+01  1.420044199E+02  1.977835690E+02  1.250000000E+02  0.00000E+00  9.000E+00
      25     1     1     2     0     0 -1.361701026E+02 -2.736802039E+01 -1.788633722E+02  2.586666026E+02  1.250000000E+02  0.00000E+00  9.000E+00
      21     1     1     2   501   512  1.135925191E+02  8.045603793E+01  2.089339772E+03  2.093971613E+03  3.051757812E-05  0.00000E+00  9.000E+00
#rwgt            1           1   2.7836834160289904E-002           5      154301           0
</event>
<event>
      5   9999  3.19816E-02  3.76014E+01 -1.00000E+00  1.46526E-01
      21    -1     0     0   511   501  0.000000000E+00  0.000000000E+00  1.362009899E+03  1.362009899E+03  0.000000000E+00  0.00000E+00  9.000E+00
      21    -1     0     0   501   502  0.000000000E+00  0.000000000E+00 -1.156609325E+02  1.156609325E+02  0.000000000E+00  0.00000E+00  9.000E+00
      25     1     1     2     0     0 -8.659597715E+01 -2.865320815E+02  2.443169293E+02  4.060975978E+02  1.250000000E+02  0.00000E+00  9.000E+00
      25     1     1     2     0     0  1.237033714E+02  2.926070149E+02  8.808709732E+02  9.447116283E+02  1.250000000E+02  0.00000E+00  9.000E+00
      21     1     1     2   511   502 -3.710739420E+01 -6.074933390E+00  1.211610635E+02  1.268616050E+02  2.697398305E-06  0.00000E+00  9.000E+00
#rwgt            2          11   3.5703542897278081E-003           5      154345           0
</event>
<event>
      5   9999  3.19816E-02  2.32900E+02 -1.00000E+00  1.09292E-01
       1    -1     0     0   502     0  0.000000000E+00  0.000000000E+00  1.221726426E+03  1.221726426E+03  0.000000000E+00  0.00000E+00  9.000E+00
      21    -1     0     0   501   502  0.000000000E+00  0.000000000E+00 -9.256038110E+02  9.256038110E+02  0.000000000E+00  0.00000E+00  9.000E+00
      25     1     1     2     0     0  3.363225601E+02 -5.254704129E+02 -5.924040619E+02  8.693673514E+02  1.250000000E+02  0.00000E+00  9.000E+00
      25     1     1     2     0     0 -1.347388191E+02  6.421160252E+02  5.405377668E+02  8.592285007E+02  1.250000000E+02  0.00000E+00  9.000E+00
       1     1     1     2   501     0 -2.015837410E+02 -1.166456123E+02  3.479889099E+02  4.187343846E+02  7.629394531E-06  0.00000E+00  9.000E+00
#rwgt            2          17   4.5766160451243533E-004           5      154410           0
</event>
<event>
      5   9999  3.19816E-02  1.94823E+01 -1.00000E+00  1.67314E-01
      21    -1     0     0   511   501  0.000000000E+00  0.000000000E+00  5.402349483E+02  5.402349483E+02  0.000000000E+00  0.00000E+00  9.000E+00
      21    -1     0     0   501   502  0.000000000E+00  0.000000000E+00 -1.832357901E+02  1.832357901E+02  0.000000000E+00  0.00000E+00  9.000E+00
      25     1     1     2     0     0  8.725531820E+01  2.675564035E+02  1.995254894E+02  3.669268871E+02  1.250000000E+02  0.00000E+00  9.000E+00
      25     1     1     2     0     0 -7.172153513E+01 -2.557979920E+02  1.259288400E+02  3.194677825E+02  1.250000000E+02  0.00000E+00  9.000E+00
      21     1     1     2   511   502 -1.553378308E+01 -1.175841145E+01  3.154482869E+01  3.707606874E+01  4.768371582E-07  0.00000E+00  9.000E+00
#rwgt            1           1   2.4555485874376885E-002           5      154429           0
</event>
<event>
      5   9999  3.19816E-02  4.31385E+01 -1.00000E+00  1.42835E-01
      21    -1     0     0   502   501  0.000000000E+00  0.000000000E+00  2.186891541E+02  2.186891541E+02  0.000000000E+00  0.00000E+00  9.000E+00
      21    -1     0     0   501   512  0.000000000E+00  0.000000000E+00 -1.562934033E+03  1.562934033E+03  0.000000000E+00  0.00000E+00  9.000E+00
      25     1     1     2     0     0  1.921655792E+02 -3.440514234E+02 -3.411822618E+02  5.360310882E+02  1.250000000E+02  0.00000E+00  9.000E+00
      25     1     1     2     0     0 -2.241995601E+02  3.729435088E+02 -3.043134502E+02  5.455125842E+02  1.250000000E+02  0.00000E+00  9.000E+00
      21     1     1     2   502   512  3.203398082E+01 -2.889208543E+01 -6.987491671E+02  7.000795148E+02  7.629394531E-06  0.00000E+00  9.000E+00
#rwgt            1           1   3.3534256213505156E-002           5      154621           0
</event>
<event>
      5   9999  3.19816E-02  1.96560E+01 -1.00000E+00  1.66993E-01
      21    -1     0     0   511   501  0.000000000E+00  0.000000000E+00  1.047089304E+02  1.047089304E+02  0.000000000E+00  0.00000E+00  9.000E+00
      21    -1     0     0   501   502  0.000000000E+00  0.000000000E+00 -8.838505451E+02  8.838505451E+02  0.000000000E+00  0.00000E+00  9.000E+00
      25     1     1     2     0     0 -1.344999254E+02 -2.069269754E+02 -4.869353761E+02  5.600357699E+02  1.250000000E+02  0.00000E+00  9.000E+00
      25     1     1     2     0     0  1.532193549E+02  2.009319067E+02 -2.957104553E+02  4.085577991E+02  1.250000000E+02  0.00000E+00  9.000E+00
      21     1     1     2   511   502 -1.871942942E+01  5.995068678E+00  3.504216705E+00  1.996590647E+01  6.265579474E-07  0.00000E+00  9.000E+00
#rwgt            1           1   2.9999889015642406E-002           5      154727           0
</event>
<event>
      5   9999  3.19816E-02  2.91323E+01 -1.00000E+00  1.53930E-01
      21    -1     0     0   502   512  0.000000000E+00  0.000000000E+00  1.044841177E+02  1.044841177E+02  0.000000000E+00  0.00000E+00  9.000E+00
      21    -1     0     0   501   502  0.000000000E+00  0.000000000E+00 -8.011573489E+02  8.011573489E+02  0.000000000E+00  0.00000E+00  9.000E+00
      25     1     1     2     0     0 -8.550205843E+01 -4.703867423E+01 -4.120306597E+02  4.414946244E+02  1.250000000E+02  0.00000E+00  9.000E+00
      25     1     1     2     0     0  1.123997251E+02  3.584919744E+01 -3.514686478E+02  3.912468192E+02  1.250000000E+02  0.00000E+00  9.000E+00
      21     1     1     2   501   512 -2.689766672E+01  1.118947679E+01  6.682607628E+01  7.290002289E+01  2.523185073E-06  0.00000E+00  9.000E+00
#rwgt            1           1   2.7298942652216183E-002           5      154863           0
</event>
<event>
      5   9999  3.19816E-02  1.96941E+01 -1.00000E+00  1.66923E-01
      21    -1     0     0   502   511  0.000000000E+00  0.000000000E+00  2.436202014E+02  2.436202014E+02  0.000000000E+00  0.00000E+00  9.000E+00
      21    -1     0     0   501   502  0.000000000E+00  0.000000000E+00 -8.021637806E+02  8.021637806E+02  0.000000000E+00  0.00000E+00  9.000E+00
      25     1     1     2     0     0  1.919429417E+02  1.014218614E+02  5.673491055E+01  2.568508067E+02  1.250000000E+02  0.00000E+00  9.000E+00
      25     1     1     2     0     0 -1.894659986E+02 -8.188416257E+01 -6.798612445E+02  7.214143695E+02  1.250000000E+02  0.00000E+00  9.000E+00
      21     1     1     2   501   511 -2.476943113E+00 -1.953769887E+01  6.458275473E+01  6.751880577E+01  1.651812370E-06  0.00000E+00  9.000E+00
#rwgt            1           1   3.2091286019933607E-002           5      154983           0
</event>
<event>
      5   9999  3.19816E-02  1.55882E+02 -1.00000E+00  1.15735E-01
      21    -1     0     0   502   501  0.000000000E+00  0.000000000E+00  2.305327222E+02  2.305327222E+02  0.000000000E+00  0.00000E+00  9.000E+00
       2    -1     0     0   501     0  0.000000000E+00  0.000000000E+00 -1.078741911E+03  1.078741911E+03  0.000000000E+00  0.00000E+00  9.000E+00
      25     1     1     2     0     0  1.052858259E+02  2.621280803E+01 -8.579336914E+01  1.864342207E+02  1.250000000E+02  0.00000E+00  9.000E+00
      25     1     1     2     0     0 -2.233328289E+02 -1.280168825E+02  5.439371618E+01  2.912894626E+02  1.250000000E+02  0.00000E+00  9.000E+00
       2     1     1     2   502     0  1.180470030E+02  1.018040744E+02 -8.168095354E+02  8.315509495E+02  1.525878906E-05  0.00000E+00  9.000E+00
#rwgt            1           1   2.7637917307060927E-002           5      155121           0
</event>
<event>
      5   9999  3.19816E-02  3.94240E+01 -1.00000E+00  1.45232E-01
      21    -1     0     0   502   501  0.000000000E+00  0.000000000E+00  8.915515911E+02  8.915515911E+02  0.000000000E+00  0.00000E+00  9.000E+00
      -2    -1     0     0     0   502  0.000000000E+00  0.000000000E+00 -1.600288487E+03  1.600288487E+03  0.000000000E+00  0.00000E+00  9.000E+00
      25     1     1     2     0     0 -1.631911737E+02  8.350196822E+02  2.358149500E+02  8.916966522E+02  1.250000000E+02  0.00000E+00  9.000E+00
      25     1     1     2     0     0  1.622117587E+02 -7.956078229E+02 -1.882735959E+02  8.428383056E+02  1.250000000E+02  0.00000E+00  9.000E+00
      -2     1     1     2     0   501  9.794149834E-01 -3.941185936E+01 -7.562782497E+02  7.573051200E+02  1.078959322E-05  0.00000E+00  9.000E+00
#rwgt            1           1   3.3285587336803764E-002           5      155164           0
</event>
<event>
      5   9999  3.19816E-02  2.74186E+01 -1.00000E+00  1.55804E-01
      21    -1     0     0   502   511  0.000000000E+00  0.000000000E+00  1.601295673E+03  1.601295673E+03  0.000000000E+00  0.00000E+00  9.000E+00
      21    -1     0     0   501   502  0.000000000E+00  0.000000000E+00 -3.612919191E+02  3.612919191E+02  0.000000000E+00  0.00000E+00  9.000E+00
      25     1     1     2     0     0  1.276922075E+02 -6.347962573E+02  1.808726690E+02  6.838212563E+02  1.250000000E+02  0.00000E+00  9.000E+00
      25     1     1     2     0     0 -1.106780122E+02  6.562973736E+02  9.527110663E+02  1.168870926E+03  1.250000000E+02  0.00000E+00  9.000E+00
      21     1     1     2   501   511 -1.701419529E+01 -2.150111633E+01  1.064200183E+02  1.098954100E+02  0.000000000E+00  0.00000E+00  9.000E+00
#rwgt            1           1   2.7001566456022582E-002           5      155356           0
</event>
<event>
      5   9999  3.19816E-02  7.84476E+01 -1.00000E+00  1.28763E-01
      21    -1     0     0   502   501  0.000000000E+00  0.000000000E+00  2.922656600E+02  2.922656600E+02  0.000000000E+00  0.00000E+00  9.000E+00
      -3    -1     0     0     0   502  0.000000000E+00  0.000000000E+00 -3.979674758E+02  3.979674758E+02  0.000000000E+00  0.00000E+00  9.000E+00
      25     1     1     2     0     0 -1.486255620E+02 -9.622313983E+00 -5.144333848E+01  2.011307129E+02  1.250000000E+02  0.00000E+00  9.000E+00
      25     1     1     2     0     0  1.523460100E+02  8.798160769E+01  1.549447809E+02  2.656745287E+02  1.250000000E+02  0.00000E+00  9.000E+00
      -3     1     1     2     0   501 -3.720447973E+00 -7.835929371E+01 -2.092032582E+02  2.234278941E+02  2.697398305E-06  0.00000E+00  9.000E+00
#rwgt            1           1   3.1003607407175896E-002           5      155532           0
</event>
<event>
      5   9999  3.19816E-02  3.58084E+01 -1.00000E+00  1.47886E-01
      21    -1     0     0   502   501  0.000000000E+00  0.000000000E+00  1.844887672E+02  1.844887672E+02  0.000000000E+00  0.00000E+00  9.000E+00
      21    -1     0     0   511   502  0.000000000E+00  0.000000000E+00 -3.299181371E+02  3.299181371E+02  0.000000000E+00  0.00000E+00  9.000E+00
      25     1     1     2     0     0  1.070083667E+02 -3.160495470E+01  1.011418840E+01  1.678599431E+02  1.250000000E+02  0.00000E+00  9.000E+00
      25     1     1     2     0     0 -9.369691665E+01  6.484720711E+01  1.730733939E+01  1.700259288E+02  1.250000000E+02  0.00000E+00  9.000E+00
      21     1     1     2   511   501 -1.331145001E+01 -3.324225240E+01 -1.728508977E+02  1.765210324E+02  1.907348633E-06  0.00000E+00  9.000E+00
#rwgt            1           1   3.1561958689533619E-002           5      155583           0
</event>
<event>
      5   9999  3.19816E-02  6.17335E+01 -1.00000E+00  1.34046E-01
      21    -1     0     0   502   512  0.000000000E+00  0.000000000E+00  9.379898699E+02  9.379898699E+02  0.000000000E+00  0.00000E+00  9.000E+00
      21    -1     0     0   501   502  0.000000000E+00  0.000000000E+00 -1.520181055E+02  1.520181055E+02  0.000000000E+00  0.00000E+00  9.000E+00
      25     1     1     2     0     0  1.348376722E+01  2.775729269E+02  1.173159474E+02  3.265219338E+02  1.250000000E+02  0.00000E+00  9.000E+00
      25     1     1     2     0     0  4.820172719E+01 -2.751391673E+02  5.739323717E+02  6.504216595E+02  1.250000000E+02  0.00000E+00  9.000E+00
      21     1     1     2   501   512 -6.168549441E+01 -2.433759575E+00  9.472344533E+01  1.130643821E+02  1.907348633E-06  0.00000E+00  9.000E+00
#rwgt            2          11   3.3601217857065335E-003           5      155730           0
</event>
<event>
      5   9999  3.19816E-02  5.03693E+01 -1.00000E+00  1.38893E-01
       2    -1     0     0   502     0  0.000000000E+00  0.000000000E+00  3.558435179E+03  3.558435179E+03  0.000000000E+00  0.00000E+00  9.000E+00
      21    -1     0     0   501   502  0.000000000E+00  0.000000000E+00 -1.890741832E+01  1.890741832E+01  0.000000000E+00  0.00000E+00  9.000E+00
      25     1     1     2     0     0  1.129533833E+02  1.002467140E+02  8.151642239E+02  8.384065735E+02  1.250000000E+02  0.00000E+00  9.000E+00
      25     1     1     2     0     0 -6.434452928E+01 -1.134469535E+02  1.179742328E+03  1.193493775E+03  1.250000000E+02  0.00000E+00  9.000E+00
       2     1     1     2   501     0 -4.860885404E+01  1.320023950E+01  1.544621209E+03  1.545442250E+03  2.157918644E-05  0.00000E+00  9.000E+00
#rwgt            1           1   7.3772768347434126E-002           5      155765           0
</event>
<event>
      5   9999  3.19816E-02  7.12776E+01 -1.00000E+00  1.30824E-01
      21    -1     0     0   502   501  0.000000000E+00  0.000000000E+00  3.555640117E+02  3.555640117E+02  0.000000000E+00  0.00000E+00  9.000E+00
      21    -1     0     0   511   502  0.000000000E+00  0.000000000E+00 -4.676319606E+02  4.676319606E+02  0.000000000E+00  0.00000E+00  9.000E+00
      25     1     1     2     0     0 -9.337871782E+01  1.529948707E+01 -5.729668992E+01  1.669178538E+02  1.250000000E+02  0.00000E+00  9.000E+00
      25     1     1     2     0     0  1.506508715E+02 -5.773056031E+01  2.617030046E+02  3.318764307E+02  1.250000000E+02  0.00000E+00  9.000E+00
      21     1     1     2   511   501 -5.727215369E+01  4.243107324E+01 -3.164742635E+02  3.244016877E+02  5.394796609E-06  0.00000E+00  9.000E+00
#rwgt            1           1   3.0177506703203960E-002           5      155855           0
</event>
<event>
      5   9999  3.19816E-02  6.09893E+01 -1.00000E+00  1.34325E-01
      21    -1     0     0   512   501  0.000000000E+00  0.000000000E+00  5.062226468E+02  5.062226468E+02  0.000000000E+00  0.00000E+00  9.000E+00
      21    -1     0     0   501   502  0.000000000E+00  0.000000000E+00 -2.449576999E+03  2.449576999E+03  0.000000000E+00  0.00000E+00  9.000E+00
      25     1     1     2     0     0 -2.301240763E+02  9.912360319E+02 -1.235300661E+03  1.605334447E+03  1.250000000E+02  0.00000E+00  9.000E+00
      25     1     1     2     0     0  1.887445317E+02 -1.036040419E+03 -7.279764010E+02  1.286304353E+03  1.250000000E+02  0.00000E+00  9.000E+00
      21     1     1     2   512   502  4.137954460E+01  4.480438734E+01  1.992270984E+01  6.416084634E+01  1.039242493E-06  0.00000E+00  9.000E+00
#rwgt            1           1   2.8113474412048287E-002           5      155905           0
</event>
<event>
      5   9999  3.19816E-02  4.96766E+01 -1.00000E+00  1.39236E-01
      21    -1     0     0   511   501  0.000000000E+00  0.000000000E+00  4.997586385E+02  4.997586385E+02  0.000000000E+00  0.00000E+00  9.000E+00
      21    -1     0     0   501   502  0.000000000E+00  0.000000000E+00 -3.512475321E+02  3.512475321E+02  0.000000000E+00  0.00000E+00  9.000E+00
      25     1     1     2     0     0  1.251591192E+02 -6.544919868E+01  2.802890709E+02  3.378392606E+02  1.250000000E+02  0.00000E+00  9.000E+00
      25     1     1     2     0     0 -1.544372326E+02  1.055809863E+02 -2.786352635E+02  3.581351889E+02  1.250000000E+02  0.00000E+00  9.000E+00
      21     1     1     2   511   502  2.927811335E+01 -4.013178765E+01  1.468572989E+02  1.550317211E+02  1.907348633E-06  0.00000E+00  9.000E+00
#rwgt            2          11   1.6997789730476705E-003           5      156141           0
</event>
<event>
      5   9999  3.19816E-02  3.99252E+01 -1.00000E+00  1.44891E-01
       2    -1     0     0   502     0  0.000000000E+00  0.000000000E+00  9.810867063E+02  9.810867063E+02  0.000000000E+00  0.00000E+00  9.000E+00
      21    -1     0     0   501   502  0.000000000E+00  0.000000000E+00 -5.636352058E+02  5.636352058E+02  0.000000000E+00  0.00000E+00  9.000E+00
      25     1     1     2     0     0  1.750916381E+02  5.018917635E+01 -3.118254690E+02  3.821467759E+02  1.250000000E+02  0.00000E+00  9.000E+00
      25     1     1     2     0     0 -1.378950328E+02 -3.568275920E+01 -1.746822097E+02  2.577346965E+02  1.250000000E+02  0.00000E+00  9.000E+00
       2     1     1     2   501     0 -3.719660529E+01 -1.450641714E+01  9.039591792E+02  9.048404397E+02  1.525878906E-05  0.00000E+00  9.000E+00
#rwgt            1           1   2.6935889664338006E-002           5      156161           0
</event>
<event>
      5   9999  3.19816E-02  3.23513E+01 -1.00000E+00  1.50798E-01
      21    -1     0     0   502   501  0.000000000E+00  0.000000000E+00  7.977559280E+02  7.977559280E+02  0.000000000E+00  0.00000E+00  9.000E+00
      21    -1     0     0   511   502  0.000000000E+00  0.000000000E+00 -1.098819395E+02  1.098819395E+02  0.000000000E+00  0.00000E+00  9.000E+00
      25     1     1     2     0     0  1.406530835E+02  2.034290647E+02  4.465435731E+02  5.255405189E+02  1.250000000E+02  0.00000E+00  9.000E+00
      25     1     1     2     0     0 -1.523629450E+02 -1.732713982E+02  2.258933983E+02  3.462517463E+02  1.250000000E+02  0.00000E+00  9.000E+00
      21     1     1     2   511   501  1.170986144E+01 -3.015766651E+01  1.543701708E+01  3.584560225E+01  6.743495762E-07  0.00000E+00  9.000E+00
#rwgt            1           1   2.9610183039511587E-002           5      156220           0
</event>
<event>
      5   9999  3.19816E-02  2.31216E+02 -1.00000E+00  1.09402E-01
      21    -1     0     0   502   501  0.000000000E+00  0.000000000E+00  7.903369698E+02  7.903369698E+02  0.000000000E+00  0.00000E+00  9.000E+00
      21    -1     0     0   501   512  0.000000000E+00  0.000000000E+00 -3.064017676E+02  3.064017676E+02  0.000000000E+00  0.00000E+00  9.000E+00
      25     1     1     2     0     0  4.278367366E-01 -1.268792311E+02 -1.216819685E+02  2.157081913E+02  1.250000000E+02  0.00000E+00  9.000E+00
      25     1     1     2     0     0  2.970437258E+01  3.561238780E+02  4.991375045E+02  6.264741133E+02  1.250000000E+02  0.00000E+00  9.000E+00
      21     1     1     2   502   512 -3.013220932E+01 -2.292446469E+02  1.064796662E+02  2.545564328E+02  2.336015456E-06  0.00000E+00  9.000E+00
#rwgt            1           1   2.7860324654611832E-002           5      156308           0
</event>
<event>
      5   9999  3.19816E-02  2.74718E+02 -1.00000E+00  1.06849E-01
      21    -1     0     0   502   501  0.000000000E+00  0.000000000E+00  7.810291875E+01  7.810291875E+01  0.000000000E+00  0.00000E+00  9.000E+00
       2    -1     0     0   501     0  0.000000000E+00  0.000000000E+00 -1.711283759E+03  1.711283759E+03  0.000000000E+00  0.00000E+00  9.000E+00
      25     1     1     2     0     0 -2.677569270E+01 -1.571076911E+01 -1.828526488E+02  2.236601376E+02  1.250000000E+02  0.00000E+00  9.000E+00
      25     1     1     2     0     0  2.356823009E+02 -1.626928231E+02 -8.468912491E+02  9.026986704E+02  1.250000000E+02  0.00000E+00  9.000E+00
       2     1     1     2   502     0 -2.089066082E+02  1.784035922E+02 -6.034369420E+02  6.630278694E+02  7.629394531E-06  0.00000E+00  9.000E+00
#rwgt            2          13   1.5862091127261703E-003           5      156346           0
</event>
<event>
      5   9999  3.19816E-02  9.42304E+01 -1.00000E+00  1.25000E-01
      21    -1     0     0   502   501  0.000000000E+00  0.000000000E+00  2.510214483E+03  2.510214483E+03  0.000000000E+00  0.00000E+00  9.000E+00
      21    -1     0     0   511   502  0.000000000E+00  0.000000000E+00 -5.409008804E+01  5.409008804E+01  0.000000000E+00  0.00000E+00  9.000E+00
      25     1     1     2     0     0  6.824310571E+01  1.747609981E+02  1.545059678E+03  1.561420167E+03  1.250000000E+02  0.00000E+00  9.000E+00
      25     1     1     2     0     0 -1.129139074E+02 -2.577301811E+02  8.001590861E+02  8.573528794E+02  1.250000000E+02  0.00000E+00  9.000E+00
      21     1     1     2   511   501  4.467080174E+01  8.296918298E+01  1.109056311E+02  1.455315253E+02  1.907348633E-06  0.00000E+00  9.000E+00
#rwgt            1           1   7.6436715440318284E-002           5      156365           0
</event>
<event>
      5   9999  3.19816E-02  4.11312E+01 -1.00000E+00  1.44093E-01
      21    -1     0     0   512   501  0.000000000E+00  0.000000000E+00  8.517851698E+01  8.517851698E+01  0.000000000E+00  0.00000E+00  9.000E+00
      21    -1     0     0   501   502  0.000000000E+00  0.000000000E+00 -3.030441222E+03  3.030441222E+03  0.000000000E+00  0.00000E+00  9.000E+00
      25     1     1     2     0     0  9.714431135E+01 -1.002465004E+02 -2.780487966E+03  2.786794701E+03  1.250000000E+02  0.00000E+00  9.000E+00
      25     1     1     2     0     0 -1.251083308E+02  1.304092747E+02 -1.809259044E+02  2.846363579E+02  1.250000000E+02  0.00000E+00  9.000E+00
      21     1     1     2   512   502  2.796401944E+01 -3.016277422E+01  1.615116494E+01  4.418868023E+01  1.261592536E-06  0.00000E+00  9.000E+00
#rwgt            1           1   4.0372318710481372E-002           5      156452           0
</event>
<event>
      5   9999  3.19816E-02  2.25850E+02 -1.00000E+00  1.09759E-01
       2    -1     0     0   502     0  0.000000000E+00  0.000000000E+00  4.316903321E+02  4.316903321E+02  0.000000000E+00  0.00000E+00  9.000E+00
      21    -1     0     0   501   502  0.000000000E+00  0.000000000E+00 -5.524995833E+02  5.524995833E+02  0.000000000E+00  0.00000E+00  9.000E+00
      25     1     1     2     0     0  1.636847481E+01 -9.068082511E+01 -7.230693029E+01  1.713015796E+02  1.250000000E+02  0.00000E+00  9.000E+00
      25     1     1     2     0     0  7.685141537E+00  3.152459022E+02 -3.154488623E+02  4.632191975E+02  1.250000000E+02  0.00000E+00  9.000E+00
       2     1     1     2   501     0 -2.405361635E+01 -2.245650771E+02  2.669465414E+02  3.496691383E+02  5.394796609E-06  0.00000E+00  9.000E+00
#rwgt            1           1   2.9998930578034527E-002           5      156625           0
</event>
<event>
      5   9999  3.19816E-02  2.93885E+01 -1.00000E+00  1.53664E-01
      21    -1     0     0   502   511  0.000000000E+00  0.000000000E+00  2.209121346E+02  2.209121346E+02  0.000000000E+00  0.00000E+00  9.000E+00
      21    -1     0     0   501   502  0.000000000E+00  0.000000000E+00 -1.551387898E+03  1.551387898E+03  0.000000000E+00  0.00000E+00  9.000E+00
      25     1     1     2     0     0 -1.691171581E+02  3.501592957E+02 -1.226932342E+03  1.293135769E+03  1.250000000E+02  0.00000E+00  9.000E+00
      25     1     1     2     0     0  1.476733828E+02 -3.300632775E+02 -1.606424470E+02  4.149460096E+02  1.250000000E+02  0.00000E+00  9.000E+00
      21     1     1     2   501   511  2.144377530E+01 -2.009601819E+01  5.709902545E+01  6.421825405E+01  1.507891493E-06  0.00000E+00  9.000E+00
#rwgt            1           1   2.6993421068023032E-002           5      156680           0
</event>
<event>
      5   9999  3.19816E-02  9.10727E+01 -1.00000E+00  1.25683E-01
      21    -1     0     0   502   512  0.000000000E+00  0.000000000E+00  2.999649513E+02  2.999649513E+02  0.000000000E+00  0.00000E+00  9.000E+00
      21    -1     0     0   501   502  0.000000000E+00  0.000000000E+00 -8.516563122E+02  8.516563122E+02  0.000000000E+00  0.00000E+00  9.000E+00
      25     1     1     2     0     0 -2.894112709E+02  2.380521698E+02 -3.249562181E+02  5.115166302E+02  1.250000000E+02  0.00000E+00  9.000E+00
      25     1     1     2     0     0  3.353981261E+02 -1.594427454E+02 -3.228378845E+02  5.077038426E+02  1.250000000E+02  0.00000E+00  9.000E+00
      21     1     1     2   501   512 -4.598685516E+01 -7.860942430E+01  9.610274165E+01  1.324007907E+02  1.348699152E-06  0.00000E+00  9.000E+00
#rwgt            1           1   2.8580694499326209E-002           5      156782           0
</event>
<event>
      5   9999  3.19816E-02  6.29736E+00 -1.00000E+00  2.22258E-01
      21    -1     0     0   502   501  0.000000000E+00  0.000000000E+00  1.177546340E+02  1.177546340E+02  0.000000000E+00  0.00000E+00  9.000E+00
      21    -1     0     0   501   511  0.000000000E+00  0.000000000E+00 -1.956853248E+02  1.956853248E+02  0.000000000E+00  0.00000E+00  9.000E+00
      25     1     1     2     0     0  6.344367619E+01 -1.931784164E+01 -4.178363077E+01  1.475437252E+02  1.250000000E+02  0.00000E+00  9.000E+00
      25     1     1     2     0     0 -6.640323702E+01  2.487641438E+01 -1.577788386E+01  1.445758192E+02  1.250000000E+02  0.00000E+00  9.000E+00
      21     1     1     2   502   511  2.959560830E+00 -5.558572732E+00 -2.036917619E+01  2.132041439E+01  2.384185791E-07  0.00000E+00  9.000E+00
#rwgt            1           1   2.4545927346443216E-002           5      156881           0
</event>
<event>
      5   9999  3.19816E-02  7.79026E+01 -1.00000E+00  1.28910E-01
      21    -1     0     0   502   501  0.000000000E+00  0.000000000E+00  1.321740588E+02  1.321740588E+02  0.000000000E+00  0.00000E+00  9.000E+00
      21    -1     0     0   512   502  0.000000000E+00  0.000000000E+00 -1.295905102E+03  1.295905102E+03  0.000000000E+00  0.00000E+00  9.000E+00
      25     1     1     2     0     0 -2.150552670E+02 -1.418928301E+02 -7.315858251E+02  7.856367880E+02  1.250000000E+02  0.00000E+00  9.000E+00
      25     1     1     2     0     0  2.919167806E+02  1.291995761E+02 -1.984963386E+02  3.961486257E+02  1.250000000E+02  0.00000E+00  9.000E+00
      21     1     1     2   512   501 -7.686151361E+01  1.269325407E+01 -2.336488797E+02  2.462937473E+02  2.697398305E-06  0.00000E+00  9.000E+00
#rwgt            1           1   2.5704235946891776E-002           5      157121           0
</event>
<event>
      5   9999  3.19816E-02  4.86663E+02 -1.00000E+00  9.91867E-02
      21    -1     0     0   502   511  0.000000000E+00  0.000000000E+00  4.444516038E+02  4.444516038E+02  0.000000000E+00  0.00000E+00  9.000E+00
      21    -1     0     0   501   502  0.000000000E+00  0.000000000E+00 -2.503973909E+03  2.503973909E+03  0.000000000E+00  0.00000E+00  9.000E+00
      25     1     1     2     0     0  4.468007149E+02 -3.442609090E+02 -9.806874525E+02  1.138208826E+03  1.250000000E+02  0.00000E+00  9.000E+00
      25     1     1     2     0     0 -4.578195768E+02  8.307989012E+02 -6.115640052E+02  1.135544412E+03  1.250000000E+02  0.00000E+00  9.000E+00
      21     1     1     2   501   511  1.101886187E+01 -4.865379922E+02 -4.672708472E+02  6.746722744E+02  7.629394531E-06  0.00000E+00  9.000E+00
#rwgt            2          11   2.1978849726600265E-003           5      157202           0
</event>
<event>
      5   9999  3.19816E-02  7.74191E+02 -1.00000E+00  9.37413E-02
      21    -1     0     0   502   512  0.000000000E+00  0.000000000E+00  5.355955797E+02  5.355955797E+02  0.000000000E+00  0.00000E+00  9.000E+00
      21    -1     0     0   501   502  0.000000000E+00  0.000000000E+00 -1.267167404E+03  1.267167404E+03  0.000000000E+00  0.00000E+00  9.000E+00
      25     1     1     2     0     0  4.487094495E+02  1.311273374E+02 -9.012042015E+01  4.922207216E+02  1.250000000E+02  0.00000E+00  9.000E+00
      25     1     1     2     0     0  2.857811968E+02  1.136073346E+02 -3.524383682E+02  4.841645612E+02  1.250000000E+02  0.00000E+00  9.000E+00
      21     1     1     2   501   512 -7.344906462E+02 -2.447346721E+02 -2.890130355E+02  8.263777005E+02  1.206313194E-05  0.00000E+00  9.000E+00
#rwgt            2          11   3.4778959653338592E-003           5      157222           0
</event>
<event>
      5   9999  3.19816E-02  7.85693E+01 -1.00000E+00  1.28730E-01
      21    -1     0     0   502   511  0.000000000E+00  0.000000000E+00  1.075801818E+03  1.075801818E+03  0.000000000E+00  0.00000E+00  9.000E+00
      21    -1     0     0   501   502  0.000000000E+00  0.000000000E+00 -2.402572944E+02  2.402572944E+02  0.000000000E+00  0.00000E+00  9.000E+00
      25     1     1     2     0     0  1.066557373E+02 -1.339328028E+02 -1.557423189E+02  2.630477369E+02  1.250000000E+02  0.00000E+00  9.000E+00
      25     1     1     2     0     0 -1.786220737E+02  1.654602293E+02  7.089474138E+02  7.599436612E+02  1.250000000E+02  0.00000E+00  9.000E+00
      21     1     1     2   501   511  7.196633632E+01 -3.152742644E+01  2.823394287E+02  2.930677143E+02  3.814697266E-06  0.00000E+00  9.000E+00
#rwgt            1           1   2.7019894432187479E-002           5      157287           0
</event>
<event>
      5   9999  3.19816E-02  1.35234E+02 -1.00000E+00  1.18206E-01
       2    -1     0     0   502     0  0.000000000E+00  0.000000000E+00  1.260532045E+03  1.260532045E+03  0.000000000E+00  0.00000E+00  9.000E+00
      21    -1     0     0   501   502  0.000000000E+00  0.000000000E+00 -5.362458383E+02  5.362458383E+02  0.000000000E+00  0.00000E+00  9.000E+00
      25     1     1     2     0     0  4.670723698E+02  2.881574675E+02  2.460501036E+02  6.142938859E+02  1.250000000E+02  0.00000E+00  9.000E+00
      25     1     1     2     0     0 -3.478009739E+02 -3.518952049E+02 -1.562869686E+02  5.337100048E+02  1.250000000E+02  0.00000E+00  9.000E+00
       2     1     1     2   501     0 -1.192713959E+02  6.373773738E+01  6.345230713E+02  6.487739923E+02  1.321449896E-05  0.00000E+00  9.000E+00
#rwgt            1           1   2.3357526307960459E-002           5      157376           0
</event>
<event>
      5   9999  3.19816E-02  9.25064E+01 -1.00000E+00  1.25369E-01
      21    -1     0     0   511   501  0.000000000E+00  0.000000000E+00  4.217500439E+02  4.217500439E+02  0.000000000E+00  0.00000E+00  9.000E+00
      21    -1     0     0   501   502  0.000000000E+00  0.000000000E+00 -4.416375153E+02  4.416375153E+02  0.000000000E+00  0.00000E+00  9.000E+00
      25     1     1     2     0     0  2.135472703E+02  3.221968740E+02 -9.868235846E+01  4.180627587E+02  1.250000000E+02  0.00000E+00  9.000E+00
      25     1     1     2     0     0 -1.272093299E+02 -2.889826191E+02  3.045111140E+01  3.409478522E+02  1.250000000E+02  0.00000E+00  9.000E+00
      21     1     1     2   511   502 -8.633794042E+01 -3.321425492E+01  4.834377566E+01  1.043769483E+02  2.431401974E-06  0.00000E+00  9.000E+00
#rwgt            1           1   2.5748440085720987E-002           5      157487           0
</event>
<event>
      5   9999  3.19816E-02  1.24716E+02 -1.00000E+00  1.19662E-01
      21    -1     0     0   512   501  0.000000000E+00  0.000000000E+00  4.947500584E+02  4.947500584E+02  0.000000000E+00  0.00000E+00  9.000E+00
      21    -1     0     0   501   502  0.000000000E+00  0.000000000E+00 -1.391695730E+03  1.391695730E+03  0.000000000E+00  0.00000E+00  9.000E+00
      25     1     1     2     0     0 -1.935651188E+02 -1.921258487E+02 -8.406209463E+02  8.925516077E+02  1.250000000E+02  0.00000E+00  9.000E+00
      25     1     1     2     0     0  3.161052705E+02  2.153184762E+02 -4.365694410E+02  5.937191803E+02  1.250000000E+02  0.00000E+00  9.000E+00
      21     1     1     2   512   502 -1.225401518E+02 -2.319262749E+01  3.802447160E+02  4.001750002E+02  0.000000000E+00  0.00000E+00  9.000E+00
#rwgt            1           1   1.9225968030496535E-002           5      157579           0
</event>
<event>
      5   9999  3.19816E-02  5.73738E+01 -1.00000E+00  1.35750E-01
      21    -1     0     0   502   501  0.000000000E+00  0.000000000E+00  1.591368749E+03  1.591368749E+03  0.000000000E+00  0.00000E+00  9.000E+00
      21    -1     0     0   501   511  0.000000000E+00  0.000000000E+00 -2.005198722E+02  2.005198722E+02  0.000000000E+00  0.00000E+00  9.000E+00
      25     1     1     2     0     0 -1.151877159E+02  3.706229844E+02  1.217422083E+03  1.283889067E+03  1.250000000E+02  0.00000E+00  9.000E+00
      25     1     1     2     0     0  6.063436438E+01 -3.883904732E+02  1.803795348E+02  4.502060221E+02  1.250000000E+02  0.00000E+00  9.000E+00
      21     1     1     2   502   511  5.455335150E+01  1.776748881E+01 -6.952741052E+00  5.779353274E+01  1.517286546E-06  0.00000E+00  9.000E+00
#rwgt            1           1   2.8404237467335273E-002           5      157653           0
</event>
<event>
      5   9999  3.19816E-02  1.71608E+01 -1.00000E+00  1.72049E-01
      21    -1     0     0   502   512  0.000000000E+00  0.000000000E+00  1.895111515E+03  1.895111515E+03  0.000000000E+00  0.00000E+00  9.000E+00
      21    -1     0     0   501   502  0.000000000E+00  0.000000000E+00 -1.522402575E+03  1.522402575E+03  0.000000000E+00  0.00000E+00  9.000E+00
      25     1     1     2     0     0 -6.427617273E+01  4.941188935E+02 -4.797663403E+02  7.029122624E+02  1.250000000E+02  0.00000E+00  9.000E+00
      25     1     1     2     0     0  6.244645647E+01 -4.770558713E+02 -8.646666263E+02  9.973741719E+02  1.250000000E+02  0.00000E+00  9.000E+00
      21     1     1     2   501   512  1.829716267E+00 -1.706302225E+01  1.717141907E+03  1.717227656E+03  2.157918644E-05  0.00000E+00  9.000E+00
#rwgt            1           1   2.9430356071281586E-002           5      157764           0
</event>
<event>
      5   9999  3.19816E-02  1.99718E+01 -1.00000E+00  1.66420E-01
      21    -1     0     0   511   501  0.000000000E+00  0.000000000E+00  8.673238876E+02  8.673238876E+02  0.000000000E+00  0.00000E+00  9.000E+00
      21    -1     0     0   501   502  0.000000000E+00  0.000000000E+00 -2.255120147E+03  2.255120147E+03  0.000000000E+00  0.00000E+00  9.000E+00
      25     1     1     2     0     0 -1.753060523E+02 -1.058248478E+03 -9.564142692E+02  1.442558598E+03  1.250000000E+02  0.00000E+00  9.000E+00
      25     1     1     2     0     0  1.578248565E+02  1.048590349E+03 -7.852822726E+02  1.325422066E+03  1.250000000E+02  0.00000E+00  9.000E+00
      21     1     1     2   511   502  1.748119571E+01  9.658129213E+00  3.539002823E+02  3.544633711E+02  3.814697266E-06  0.00000E+00  9.000E+00
#rwgt            1           1   2.8478531884711510E-002           5      157981           0
</event>
<event>
      5   9999  3.19816E-02  5.01062E+01 -1.00000E+00  1.39023E-01
      21    -1     0     0   502   501  0.000000000E+00  0.000000000E+00  4.350570014E+02  4.350570014E+02  0.000000000E+00  0.00000E+00  9.000E+00
      21    -1     0     0   501   512  0.000000000E+00  0.000000000E+00 -3.849449145E+02  3.849449145E+02  0.000000000E+00  0.00000E+00  9.000E+00
      25     1     1     2     0     0  1.426035264E+02 -3.550691689E+02  8.068164799E+01  4.105416042E+02  1.250000000E+02  0.00000E+00  9.000E+00
      25     1     1     2     0     0 -1.374888325E+02  3.052247058E+02 -1.794462459E+01  3.577880793E+02  1.250000000E+02  0.00000E+00  9.000E+00
      21     1     1     2   502   512 -5.114693881E+00  4.984446303E+01 -1.262493643E+01  5.167223247E+01  6.951036328E-07  0.00000E+00  9.000E+00
#rwgt            1           1   2.8526652038857580E-002           5      158134           0
</event>
<event>
      5   9999  3.19816E-02  1.66476E+02 -1.00000E+00  1.14628E-01
      21    -1     0     0   502   501  0.000000000E+00  0.000000000E+00  1.184136238E+03  1.184136238E+03  0.000000000E+00  0.00000E+00  9.000E+00
      21    -1     0     0   501   511  0.000000000E+00  0.000000000E+00 -8.369399002E+02  8.369399002E+02  0.000000000E+00  0.00000E+00  9.000E+00
      25     1     1     2     0     0 -4.781499286E+02 -1.202037823E+02 -9.310048375E+01  5.170773672E+02  1.250000000E+02  0.00000E+00  9.000E+00
      25     1     1     2     0     0  4.066791665E+02 -3.014993544E+01  9.103612781E+02  1.005325629E+03  1.250000000E+02  0.00000E+00  9.000E+00
      21     1     1     2   502   511  7.147076217E+01  1.503537178E+02 -4.700644562E+02  4.986731427E+02  0.000000000E+00  0.00000E+00  9.000E+00
#rwgt            1           1   2.7212690643803158E-002           5      158208           0
</event>
<event>
      5   9999  3.19816E-02  2.97623E+01 -1.00000E+00  1.53280E-01
      21    -1     0     0   502   512  0.000000000E+00  0.000000000E+00  3.021285470E+02  3.021285470E+02  0.000000000E+00  0.00000E+00  9.000E+00
      21    -1     0     0   501   502  0.000000000E+00  0.000000000E+00 -6.792006914E+02  6.792006914E+02  0.000000000E+00  0.00000E+00  9.000E+00
      25     1     1     2     0     0 -3.479252107E+02  6.531516322E+01 -2.297385631E+01  3.761260704E+02  1.250000000E+02  0.00000E+00  9.000E+00
      25     1     1     2     0     0  3.756972092E+02 -7.601608654E+01 -3.883740414E+02  5.598091054E+02  1.250000000E+02  0.00000E+00  9.000E+00
      21     1     1     2   501   512 -2.777199857E+01  1.070092333E+01  3.427575329E+01  4.539406269E+01  4.768371582E-07  0.00000E+00  9.000E+00
#rwgt            1           1   2.7203905764034152E-002           5      158320           0
</event>
<event>
      5   9999  3.19816E-02  8.22221E+02 -1.00000E+00  9.30794E-02
      21    -1     0     0   502   501  0.000000000E+00  0.000000000E+00  1.211051831E+03  1.211051831E+03  0.000000000E+00  0.00000E+00  9.000E+00
       2    -1     0     0   501     0  0.000000000E+00  0.000000000E+00 -1.291033903E+03  1.291033903E+03  0.000000000E+00  0.00000E+00  9.000E+00
      25     1     1     2     0     0  1.436472547E+02 -6.490358634E+02  7.909584583E+02  1.040731651E+03  1.250000000E+02  0.00000E+00  9.000E+00
      25     1     1     2     0     0 -2.813129002E+02 -1.615781196E+02 -2.077348573E+02  4.049977870E+02  1.250000000E+02  0.00000E+00  9.000E+00
       2     1     1     2   502     0  1.376656455E+02  8.106139830E+02 -6.632056727E+02  1.056356296E+03  7.629394531E-06  0.00000E+00  9.000E+00
#rwgt            1           1   3.3288918622909738E-002           5      158509           0
</event>
<event>
      5   9999  3.19816E-02  5.76227E+01 -1.00000E+00  1.35648E-01
      21    -1     0     0   502   501  0.000000000E+00  0.000000000E+00  2.340021985E+02  2.340021985E+02  0.000000000E+00  0.00000E+00  9.000E+00
      21    -1     0     0   511   502  0.000000000E+00  0.000000000E+00 -4.796195151E+02  4.796195151E+02  0.000000000E+00  0.00000E+00  9.000E+00
      25     1     1     2     0     0 -1.616366301E+02  9.188535660E+01  5.223772692E+01  2.300502099E+02  1.250000000E+02  0.00000E+00  9.000E+00
      25     1     1     2     0     0  1.846338416E+02 -3.905062181E+01 -5.361285210E+01  2.326240410E+02  1.250000000E+02  0.00000E+00  9.000E+00
      21     1     1     2   511   501 -2.299721148E+01 -5.283473479E+01 -2.442421914E+02  2.509474627E+02  3.814697266E-06  0.00000E+00  9.000E+00
#rwgt            1           1   2.7016416209653896E-002           5      158551           0
</event>
<event>
      5   9999  3.31513E-02  9.82901E+01 -1.00000E+00  1.24166E-01
      21    -1     0     0   512   501  0.000000000E+00  0.000000000E+00  1.605977944E+03  1.605977944E+03  0.000000000E+00  0.00000E+00  9.000E+00
      21    -1     0     0   501   502  0.000000000E+00  0.000000000E+00 -2.099138213E+03  2.099138213E+03  0.000000000E+00  0.00000E+00  9.000E+00
      25     1     1     2     0     0 -1.431262698E+02 -2.337578256E+02 -3.583231213E+02  4.681327903E+02  1.250000000E+02  0.00000E+00  9.000E+00
      25     1     1     2     0     0  1.147358408E+02  3.278584716E+02 -1.664104873E+03  1.704560213E+03  1.250000000E+02  0.00000E+00  9.000E+00
      21     1     1     2   512   502  2.839042896E+01 -9.410064598E+01  1.529267725E+03  1.532423154E+03  3.051757812E-05  0.00000E+00  9.000E+00
#rwgt            1           1   2.8768167496422206E-002           5      158620           0
</event>
<event>
      5   9999  3.19816E-02  3.37136E+01 -1.00000E+00  1.49601E-01
      21    -1     0     0   502   501  0.000000000E+00  0.000000000E+00  6.211245803E+02  6.211245803E+02  0.000000000E+00  0.00000E+00  9.000E+00
      21    -1     0     0   511   502  0.000000000E+00  0.000000000E+00 -2.920808937E+02  2.920808937E+02  0.000000000E+00  0.00000E+00  9.000E+00
      25     1     1     2     0     0 -1.428377009E+01  2.624275915E+00 -1.390369306E+02  1.875291470E+02  1.250000000E+02  0.00000E+00  9.000E+00
      25     1     1     2     0     0  4.779863889E+01  1.030811600E+00  5.870038549E+02  6.020666891E+02  1.250000000E+02  0.00000E+00  9.000E+00
      21     1     1     2   511   501 -3.351486880E+01 -3.655087515E+00 -1.189232377E+02  1.236096378E+02  1.348699152E-06  0.00000E+00  9.000E+00
#rwgt            1           1   2.8480662568837928E-002           5      158678           0
</event>
<event>
      5   9999  3.19816E-02  5.67570E+01 -1.00000E+00  1.36006E-01
      21    -1     0     0   502   501  0.000000000E+00  0.000000000E+00  5.953619765E+02  5.953619765E+02  0.000000000E+00  0.00000E+00  9.000E+00
      21    -1     0     0   512   502  0.000000000E+00  0.000000000E+00 -7.752842041E+02  7.752842041E+02  0.000000000E+00  0.00000E+00  9.000E+00
      25     1     1     2     0     0 -2.239106571E+02 -3.580887885E+02  3.669502726E+02  5.732722437E+02  1.250000000E+02  0.00000E+00  9.000E+00
      25     1     1     2     0     0  2.363174952E+02  4.134731931E+02 -3.825291474E+02  6.235058849E+02  1.250000000E+02  0.00000E+00  9.000E+00
      21     1     1     2   512   501 -1.240683811E+01 -5.538440456E+01 -1.643433527E+02  1.738680520E+02  0.000000000E+00  0.00000E+00  9.000E+00
#rwgt            1           1   3.0801181714978792E-002           5      158789           0
</event>
<event>
      5   9999  3.19816E-02  1.73072E+02 -1.00000E+00  1.13983E-01
       2    -1     0     0   502     0  0.000000000E+00  0.000000000E+00  2.229052090E+03  2.229052090E+03  0.000000000E+00  0.00000E+00  9.000E+00
      21    -1     0     0   501   502  0.000000000E+00  0.000000000E+00 -1.744326856E+02  1.744326856E+02  0.000000000E+00  0.00000E+00  9.000E+00
      25     1     1     2     0     0  1.457805955E+02  1.236137170E+02  1.577357433E+02  2.775570172E+02  1.250000000E+02  0.00000E+00  9.000E+00
      25     1     1     2     0     0 -2.571709788E+02  8.847723527E+00  7.486951411E+01  2.957120875E+02  1.250000000E+02  0.00000E+00  9.000E+00
       2     1     1     2   501     0  1.113903832E+02 -1.324614405E+02  1.822014147E+03  1.830215671E+03  2.157918644E-05  0.00000E+00  9.000E+00
#rwgt            1           1   2.7878449411378719E-002           5      158887           0
</event>
<event>
      5   9999  3.19816E-02  6.14746E+01 -1.00000E+00  1.34142E-01
      21    -1     0     0   502   511  0.000000000E+00  0.000000000E+00  4.508674294E+02  4.508674294E+02  0.000000000E+00  0.00000E+00  9.000E+00
      21    -1     0     0   501   502  0.000000000E+00  0.000000000E+00 -3.297447052E+02  3.297447052E+02  0.000000000E+00  0.00000E+00  9.000E+00
      25     1     1     2     0     0  1.299476745E+02  4.176153181E+01 -2.292956844E+01  1.864971548E+02  1.250000000E+02  0.00000E+00  9.000E+00
      25     1     1     2     0     0 -6.901283637E+01 -3.363314894E+01 -1.980906727E+02  2.464931539E+02  1.250000000E+02  0.00000E+00  9.000E+00
      21     1     1     2   501   511 -6.093483809E+01 -8.128382869E+00  3.421429654E+02  3.476218259E+02  3.814697266E-06  0.00000E+00  9.000E+00
#rwgt            1           1   2.9557359171342404E-002           5      158924           0
</event>
<event>
      5   9999  3.19816E-02  1.30160E+02 -1.00000E+00  1.18889E-01
      21    -1     0     0   502   501  0.000000000E+00  0.000000000E+00  2.542787549E+02  2.542787549E+02  0.000000000E+00  0.00000E+00  9.000E+00
      21    -1     0     0   512   502  0.000000000E+00  0.000000000E+00 -2.093565035E+03  2.093565035E+03  0.000000000E+00  0.00000E+00  9.000E+00
      25     1     1     2     0     0 -2.073206591E+02  3.567507346E+02 -5.315736048E+01  4.344003307E+02  1.250000000E+02  0.00000E+00  9.000E+00
      25     1     1     2     0     0  2.937393065E+02 -4.540822172E+02 -1.403079075E+03  1.508883472E+03  1.250000000E+02  0.00000E+00  9.000E+00
      21     1     1     2   512   501 -8.641864744E+01  9.733148254E+01 -3.830498442E+02  4.045599872E+02  0.000000000E+00  0.00000E+00  9.000E+00
#rwgt            1           1   3.0071329889655930E-002           5      158990           0
</event>
<event>
      5   9999  3.19816E-02  3.52331E+01 -1.00000E+00  1.48343E-01
       1    -1     0     0   502     0  0.000000000E+00  0.000000000E+00  7.152525474E+02  7.152525474E+02  0.000000000E+00  0.00000E+00  9.000E+00
      21    -1     0     0   501   502  0.000000000E+00  0.000000000E+00 -2.260558390E+02  2.260558390E+02  0.000000000E+00  0.00000E+00  9.000E+00
      25     1     1     2     0     0  1.434647137E+02  6.399741938E+01 -5.185810038E+01  2.073452588E+02  1.250000000E+02  0.00000E+00  9.000E+00
      25     1     1     2     0     0 -1.108686685E+02 -5.062310818E+01 -1.643979023E+01  1.753562872E+02  1.250000000E+02  0.00000E+00  9.000E+00
       1     1     1     2   501     0 -3.259604519E+01 -1.337431119E+01  5.574945990E+02  5.586068405E+02  7.629394531E-06  0.00000E+00  9.000E+00
#rwgt            1           1   2.6060295412161493E-002           5      159081           0
</event>
<event>
      5   9999  3.19816E-02  3.57799E+01 -1.00000E+00  1.47909E-01
      21    -1     0     0   502   501  0.000000000E+00  0.000000000E+00  5.193355385E+02  5.193355385E+02  0.000000000E+00  0.00000E+00  9.000E+00
      21    -1     0     0   511   502  0.000000000E+00  0.000000000E+00 -3.959716815E+02  3.959716815E+02  0.000000000E+00  0.00000E+00  9.000E+00
      25     1     1     2     0     0 -2.062635933E+02 -3.870616698E+01  4.111087553E+02  4.782031430E+02  1.250000000E+02  0.00000E+00  9.000E+00
      25     1     1     2     0     0  2.319784841E+02  6.358478849E+01 -1.846854432E+02  3.280102976E+02  1.250000000E+02  0.00000E+00  9.000E+00
      21     1     1     2   511   501 -2.571489085E+01 -2.487862151E+01 -1.030594550E+02  1.090937794E+02  0.000000000E+00  0.00000E+00  9.000E+00
#rwgt            1           1   3.2535026049914255E-002           5      159112           0
</event>
<event>
      5   9999  3.19816E-02  5.79312E+01 -1.00000E+00  1.35523E-01
       2    -1     0     0   502     0  0.000000000E+00  0.000000000E+00  1.052193652E+03  1.052193652E+03  0.000000000E+00  0.00000E+00  9.000E+00
      21    -1     0     0   501   502  0.000000000E+00  0.000000000E+00 -1.667202274E+02  1.667202274E+02  0.000000000E+00  0.00000E+00  9.000E+00
      25     1     1     2     0     0  2.765347533E+02 -2.057819362E+02  4.816343730E+02  6.053216866E+02  1.250000000E+02  0.00000E+00  9.000E+00
      25     1     1     2     0     0 -2.481978733E+02  2.563096484E+02  2.608366511E+02  4.593011852E+02  1.250000000E+02  0.00000E+00  9.000E+00
       2     1     1     2   501     0 -2.833688001E+01 -5.052771220E+01  1.430024006E+02  1.542910076E+02  1.907348633E-06  0.00000E+00  9.000E+00
#rwgt            1           1   3.4261668132562928E-002           5      159266           0
</event>
<event>
      5   9999  3.19816E-02  5.59103E+01 -1.00000E+00  1.36362E-01
      21    -1     0     0   502   511  0.000000000E+00  0.000000000E+00  2.130894192E+03  2.130894192E+03  0.000000000E+00  0.00000E+00  9.000E+00
      21    -1     0     0   501   502  0.000000000E+00  0.000000000E+00 -3.390144994E+02  3.390144994E+02  0.000000000E+00  0.00000E+00  9.000E+00
      25     1     1     2     0     0 -1.427016595E+01  6.998189566E+02  1.282136401E+03  1.466099915E+03  1.250000000E+02  0.00000E+00  9.000E+00
      25     1     1     2     0     0 -3.392374694E+01 -7.281617375E+02  3.197352460E+02  8.057455951E+02  1.250000000E+02  0.00000E+00  9.000E+00
      21     1     1     2   501   511  4.819391288E+01  2.834278087E+01  1.900080458E+02  1.980631817E+02  2.697398305E-06  0.00000E+00  9.000E+00
#rwgt            1           1   2.8567088617632356E-002           5      159370           0
</event>
<event>
      5   9999  3.19816E-02  1.84000E+01 -1.00000E+00  1.69413E-01
      21    -1     0     0   512   501  0.000000000E+00  0.000000000E+00  4.538942730E+02  4.538942730E+02  0.000000000E+00  0.00000E+00  9.000E+00
      21    -1     0     0   501   502  0.000000000E+00  0.000000000E+00 -7.688976849E+02  7.688976849E+02  0.000000000E+00  0.00000E+00  9.000E+00
      25     1     1     2     0     0  1.384652836E+02  4.892279989E+02 -4.228982271E+02  6.730412916E+02  1.250000000E+02  0.00000E+00  9.000E+00
      25     1     1     2     0     0 -1.346218492E+02 -4.712338629E+02  7.396900353E+01  5.111563453E+02  1.250000000E+02  0.00000E+00  9.000E+00
      21     1     1     2   512   502 -3.843434425E+00 -1.799413603E+01  3.392581168E+01  3.859432105E+01  0.000000000E+00  0.00000E+00  9.000E+00
#rwgt            1           1   2.7109809162760432E-002           5      159546           0
</event>
<event>
      5   9999  3.19816E-02  3.21514E+02 -1.00000E+00  1.04624E-01
      21    -1     0     0   502   501  0.000000000E+00  0.000000000E+00  2.063054331E+03  2.063054331E+03  0.000000000E+00  0.00000E+00  9.000E+00
      21    -1     0     0   501   511  0.000000000E+00  0.000000000E+00 -1.012034442E+03  1.012034442E+03  0.000000000E+00  0.00000E+00  9.000E+00
      25     1     1     2     0     0  2.262393432E+02 -8.776765583E+02 -2.237536656E+02  9.419082144E+02  1.250000000E+02  0.00000E+00  9.000E+00
      25     1     1     2     0     0 -2.025755766E+02  1.198318736E+03  1.331087790E+03  1.806771807E+03  1.250000000E+02  0.00000E+00  9.000E+00
      21     1     1     2   502   511 -2.366376661E+01 -3.206421779E+02 -5.631423578E+01  3.264087518E+02  7.262967211E-06  0.00000E+00  9.000E+00
#rwgt            1           1   6.5577024193335290E-002           5      159742           0
</event>
<event>
      5   9999  3.19816E-02  7.76440E+00 -1.00000E+00  2.09383E-01
      21    -1     0     0   502   512  0.000000000E+00  0.000000000E+00  4.555692590E+02  4.555692590E+02  0.000000000E+00  0.00000E+00  9.000E+00
      21    -1     0     0   501   502  0.000000000E+00  0.000000000E+00 -7.538430408E+01  7.538430408E+01  0.000000000E+00  0.00000E+00  9.000E+00
      25     1     1     2     0     0  1.075079811E+02  3.008573194E+01  9.652743092E+01  1.934054348E+02  1.250000000E+02  0.00000E+00  9.000E+00
      25     1     1     2     0     0 -1.113248142E+02 -2.332424897E+01  2.419898416E+02  2.951632062E+02  1.250000000E+02  0.00000E+00  9.000E+00
      21     1     1     2   501   512  3.816833079E+00 -6.761482974E+00  4.166768241E+01  4.238492213E+01  0.000000000E+00  0.00000E+00  9.000E+00
#rwgt            1           1   2.8424207450868693E-002           5      159824           0
</event>
<event>
      5   9999  3.19816E-02  1.05192E+02 -1.00000E+00  1.22847E-01
      21    -1     0     0   502   501  0.000000000E+00  0.000000000E+00  4.696530242E+02  4.696530242E+02  0.000000000E+00  0.00000E+00  9.000E+00
      21    -1     0     0   501   511  0.000000000E+00  0.000000000E+00 -1.284684340E+03  1.284684340E+03  0.000000000E+00  0.00000E+00  9.000E+00
      25     1     1     2     0     0 -5.813725924E+02  2.578548251E+02 -1.175083310E+02  6.587233182E+02  1.250000000E+02  0.00000E+00  9.000E+00
      25     1     1     2     0     0  6.854426053E+02 -2.425341549E+02 -5.846752386E+02  9.413418699E+02  1.250000000E+02  0.00000E+00  9.000E+00
      21     1     1     2   502   511 -1.040700129E+02 -1.532067027E+01 -1.128477464E+02  1.542721763E+02  2.336015456E-06  0.00000E+00  9.000E+00
#rwgt            1           1   2.6315148750175793E-002           5      160063           0
</event>
<event>
      5   9999  3.19816E-02  2.62997E+02 -1.00000E+00  1.07483E-01
      21    -1     0     0   502   501  0.000000000E+00  0.000000000E+00  1.359724603E+03  1.359724603E+03  0.000000000E+00  0.00000E+00  9.000E+00
      21    -1     0     0   501   512  0.000000000E+00  0.000000000E+00 -2.251360377E+02  2.251360377E+02  0.000000000E+00  0.00000E+00  9.000E+00
      25     1     1     2     0     0  2.103861505E+02  1.684455503E+01  6.321910206E+02  6.781124965E+02  1.250000000E+02  0.00000E+00  9.000E+00
      25     1     1     2     0     0 -4.702468837E+02 -5.734235729E+01  3.572085277E+02  6.063358886E+02  1.250000000E+02  0.00000E+00  9.000E+00
      21     1     1     2   502   512  2.598607332E+02  4.049780226E+01  1.451890172E+02  3.004122557E+02  5.394796609E-06  0.00000E+00  9.000E+00
#rwgt            1           1   3.0940905985456717E-002           5      160196           0
</event>
<event>
      5   9999  3.19816E-02  8.03800E+01 -1.00000E+00  1.28250E-01
       2    -1     0     0   502     0  0.000000000E+00  0.000000000E+00  2.412866194E+02  2.412866194E+02  0.000000000E+00  0.00000E+00  9.000E+00
      21    -1     0     0   501   502  0.000000000E+00  0.000000000E+00 -1.001587378E+03  1.001587378E+03  0.000000000E+00  0.00000E+00  9.000E+00
      25     1     1     2     0     0 -3.228763436E+02  1.013876188E+02 -5.107877947E+02  6.253461071E+02  1.250000000E+02  0.00000E+00  9.000E+00
      25     1     1     2     0     0  3.159267348E+02 -1.814665863E+02 -3.301952525E+01  3.865942482E+02  1.250000000E+02  0.00000E+00  9.000E+00
       2     1     1     2   501     0  6.949608816E+00  8.007896753E+01 -2.164934389E+02  2.309336424E+02  5.394796609E-06  0.00000E+00  9.000E+00
#rwgt            1           1   2.8490952837778704E-002           5      160328           0
</event>
<event>
      5   9999  3.19816E-02  1.13870E+02 -1.00000E+00  1.21343E-01
      21    -1     0     0   502   511  0.000000000E+00  0.000000000E+00  8.069226898E+02  8.069226898E+02  0.000000000E+00  0.00000E+00  9.000E+00
      21    -1     0     0   501   502  0.000000000E+00  0.000000000E+00 -1.081011475E+03  1.081011475E+03  0.000000000E+00  0.00000E+00  9.000E+00
      25     1     1     2     0     0 -4.570910824E+02 -5.532725322E+02  3.621369438E+02  8.135176203E+02  1.250000000E+02  0.00000E+00  9.000E+00
      25     1     1     2     0     0  4.224532718E+02  4.447985617E+02 -7.038432833E+02  9.419834897E+02  1.250000000E+02  0.00000E+00  9.000E+00
      21     1     1     2   501   511  3.463781056E+01  1.084739705E+02  6.761755475E+01  1.324330544E+02  9.536743164E-07  0.00000E+00  9.000E+00
#rwgt            1           1   3.6938844461609430E-002           5      160439           0
</event>
<event>
      5   9999  3.19816E-02  1.93624E+02 -1.00000E+00  1.12163E-01
      21    -1     0     0   512   501  0.000000000E+00  0.000000000E+00  3.400536716E+02  3.400536716E+02  0.000000000E+00  0.00000E+00  9.000E+00
      21    -1     0     0   501   502  0.000000000E+00  0.000000000E+00 -1.564830896E+03  1.564830896E+03  0.000000000E+00  0.00000E+00  9.000E+00
      25     1     1     2     0     0  6.331709307E+01 -6.937493582E+01 -1.310926085E+03  1.320217458E+03  1.250000000E+02  0.00000E+00  9.000E+00
      25     1     1     2     0     0  4.817684647E+01  2.276767326E+02 -1.300480976E+02  2.944405047E+02  1.250000000E+02  0.00000E+00  9.000E+00
      21     1     1     2   512   502 -1.114939395E+02 -1.583017968E+02  2.161969582E+02  2.902266049E+02  4.672030912E-06  0.00000E+00  9.000E+00
#rwgt            2          11   7.0904990416997974E-003           5      160607           0
</event>
<event>
      5   9999  3.19816E-02  1.73824E+01 -1.00000E+00  1.71558E-01
      21    -1     0     0   502   501  0.000000000E+00  0.000000000E+00  2.154712475E+02  2.154712475E+02  0.000000000E+00  0.00000E+00  9.000E+00
      21    -1     0     0   501   511  0.000000000E+00  0.000000000E+00 -3.162281257E+02  3.162281257E+02  0.000000000E+00  0.00000E+00  9.000E+00
      25     1     1     2     0     0 -1.693643072E+02  4.050202077E+01  8.926358432E+01  2.322017867E+02  1.250000000E+02  0.00000E+00  9.000E+00
      25     1     1     2     0     0  1.660355275E+02 -2.344134075E+01 -1.547377847E+02  2.601654759E+02  1.250000000E+02  0.00000E+00  9.000E+00
      21     1     1     2   502   511  3.328779777E+00 -1.706068002E+01 -3.528267776E+01  3.933211064E+01  4.768371582E-07  0.00000E+00  9.000E+00
#rwgt            1           1   2.6634875943595697E-002           5      160627           0
</event>
<event>
      5   9999  3.19816E-02  7.05895E+01 -1.00000E+00  1.31036E-01
      21    -1     0     0   512   501  0.000000000E+00  0.000000000E+00  9.391298079E+02  9.391298079E+02  0.000000000E+00  0.00000E+00  9.000E+00
      21    -1     0     0   501   502  0.000000000E+00  0.000000000E+00 -1.100949450E+02  1.100949450E+02  0.000000000E+00  0.00000E+00  9.000E+00
      25     1     1     2     0     0  4.681936375E+01 -5.606546511E+00 -4.988722920E+01  1.426086317E+02  1.250000000E+02  0.00000E+00  9.000E+00
      25     1     1     2     0     0 -1.512139207E+01  6.867890278E+01  4.616752851E+02  4.834402932E+02  1.250000000E+02  0.00000E+00  9.000E+00
      21     1     1     2   512   502 -3.169797168E+01 -6.307235626E+01  4.172468070E+02  4.231758281E+02  9.344061824E-06  0.00000E+00  9.000E+00
#rwgt            1           1   2.7208761753874905E-002           5      160765           0
</event>
<event>
      5   9999  3.19816E-02  5.35355E+01 -1.00000E+00  1.37403E-01
       2    -1     0     0   502     0  0.000000000E+00  0.000000000E+00  4.994574309E+02  4.994574309E+02  0.000000000E+00  0.00000E+00  9.000E+00
      21    -1     0     0   501   502  0.000000000E+00  0.000000000E+00 -2.856599285E+02  2.856599285E+02  0.000000000E+00  0.00000E+00  9.000E+00
      25     1     1     2     0     0 -8.643115533E+01  9.460853803E+01  1.747849043E+02  2.501916922E+02  1.250000000E+02  0.00000E+00  9.000E+00
      25     1     1     2     0     0  4.151427470E+01 -6.547912241E+01 -2.231970101E+02  2.673066700E+02  1.250000000E+02  0.00000E+00  9.000E+00
       2     1     1     2   501     0  4.491688063E+01 -2.912941562E+01  2.622096083E+02  2.676189973E+02  3.814697266E-06  0.00000E+00  9.000E+00
#rwgt            1           1   2.4703685700574508E-002           5      160811           0
</event>
<event>
      5   9999  3.19816E-02  2.23753E+01 -1.00000E+00  1.62446E-01
      21    -1     0     0   502   511  0.000000000E+00  0.000000000E+00  6.427374737E+02  6.427374737E+02  0.000000000E+00  0.00000E+00  9.000E+00
      21    -1     0     0   501   502  0.000000000E+00  0.000000000E+00 -1.616464490E+02  1.616464490E+02  0.000000000E+00  0.00000E+00  9.000E+00
      25     1     1     2     0     0 -2.779748029E+02 -7.615377321E+01  1.668628145E+02  3.557212210E+02  1.250000000E+02  0.00000E+00  9.000E+00
      25     1     1     2     0     0  2.622211436E+02  6.026432518E+01  2.811837489E+02  4.087554497E+02  1.250000000E+02  0.00000E+00  9.000E+00
      21     1     1     2   501   511  1.575365925E+01  1.588944803E+01  3.304446130E+01  3.990725199E+01  4.768371582E-07  0.00000E+00  9.000E+00
#rwgt            1           1   2.4916696391924731E-002           5      160876           0
</event>
<event>
      5   9999  3.19816E-02  9.57105E+01 -1.00000E+00  1.24690E-01
      21    -1     0     0   502   512  0.000000000E+00  0.000000000E+00  5.215854418E+02  5.215854418E+02  0.000000000E+00  0.00000E+00  9.000E+00
      21    -1     0     0   501   502  0.000000000E+00  0.000000000E+00 -1.794845305E+02  1.794845305E+02  0.000000000E+00  0.00000E+00  9.000E+00
      25     1     1     2     0     0  1.488631030E+01  1.304422935E+02  2.366998122E+02  2.981419045E+02  1.250000000E+02  0.00000E+00  9.000E+00
      25     1     1     2     0     0 -9.705089539E+01 -1.795286950E+02 -2.560229681E+01  2.406863233E+02  1.250000000E+02  0.00000E+00  9.000E+00
      21     1     1     2   501   512  8.216458509E+01  4.908640154E+01  1.310033960E+02  1.622417444E+02  1.907348633E-06  0.00000E+00  9.000E+00
#rwgt            1           1   2.4966649319956798E-002           5      161028           0
</event>
<event>
      5   9999  3.19816E-02  1.44754E+02 -1.00000E+00  1.17010E-01
      21    -1     0     0   511   501  0.000000000E+00  0.000000000E+00  1.468767424E+03  1.468767424E+03  0.000000000E+00  0.00000E+00  9.000E+00
      21    -1     0     0   501   502  0.000000000E+00  0.000000000E+00 -1.237218615E+03  1.237218615E+03  0.000000000E+00  0.00000E+00  9.000E+00
      25     1     1     2     0     0 -4.439555531E+02 -9.847635715E+02 -6.127335316E+02  1.248167940E+03  1.250000000E+02  0.00000E+00  9.000E+00
      25     1     1     2     0     0  2.992656464E+02  9.890825363E+02  7.725517259E+02  1.296265929E+03  1.250000000E+02  0.00000E+00  9.000E+00
      21     1     1     2   511   502  1.446899067E+02 -4.318964809E+00  7.173061408E+01  1.615521698E+02  9.536743164E-07  0.00000E+00  9.000E+00
#rwgt            1           1   5.7050144129935920E-002           5      161108           0
</event>
<event>
      5   9999  3.19816E-02  3.35274E+01 -1.00000E+00  1.49761E-01
      21    -1     0     0   502   501  0.000000000E+00  0.000000000E+00  1.514219041E+03  1.514219041E+03  0.000000000E+00  0.00000E+00  9.000E+00
      21    -1     0     0   512   502  0.000000000E+00  0.000000000E+00 -1.080455237E+02  1.080455237E+02  0.000000000E+00  0.00000E+00  9.000E+00
      25     1     1     2     0     0  2.333366436E+02 -1.265779625E+02  1.016605933E+03  1.058102355E+03  1.250000000E+02  0.00000E+00  9.000E+00
      25     1     1     2     0     0 -2.271079089E+02  9.363425988E+01  4.305468642E+02  5.112151985E+02  1.250000000E+02  0.00000E+00  9.000E+00
      21     1     1     2   512   501 -6.228734675E+00  3.294370261E+01 -4.097927982E+01  5.294701174E+01  1.168007728E-06  0.00000E+00  9.000E+00
#rwgt            1           1   2.8246368339595210E-002           5      161227           0
</event>
<event>
      5   9999  3.19816E-02  2.66080E+02 -1.00000E+00  1.07313E-01
       2    -1     0     0   502     0  0.000000000E+00  0.000000000E+00  7.957319033E+02  7.957319033E+02  0.000000000E+00  0.00000E+00  9.000E+00
      21    -1     0     0   501   502  0.000000000E+00  0.000000000E+00 -5.345070889E+02  5.345070889E+02  0.000000000E+00  0.00000E+00  9.000E+00
      25     1     1     2     0     0 -2.039427314E+02 -4.228902845E+00  2.665964611E+02  3.582027281E+02  1.250000000E+02  0.00000E+00  9.000E+00
      25     1     1     2     0     0  4.688017509E+02 -2.123723374E+01 -3.033090970E+02  5.725796975E+02  1.250000000E+02  0.00000E+00  9.000E+00
       2     1     1     2   501     0 -2.648590194E+02  2.546613659E+01  2.979374503E+02  3.994565665E+02  0.000000000E+00  0.00000E+00  9.000E+00
#rwgt            1           1   2.6329185462426515E-002           5      161355           0
</event>
<event>
      5   9999  3.19816E-02  5.94431E+01 -1.00000E+00  1.34920E-01
       1    -1     0     0   502     0  0.000000000E+00  0.000000000E+00  1.581310590E+03  1.581310590E+03  0.000000000E+00  0.00000E+00  9.000E+00
      21    -1     0     0   501   502  0.000000000E+00  0.000000000E+00 -2.273439438E+02  2.273439438E+02  0.000000000E+00  0.00000E+00  9.000E+00
      25     1     1     2     0     0  3.781191932E+02 -2.681239101E+02  4.196815810E+02  6.376693382E+02  1.250000000E+02  0.00000E+00  9.000E+00
      25     1     1     2     0     0 -3.709993216E+02  2.091086976E+02  3.041469360E+02  5.380495355E+02  1.250000000E+02  0.00000E+00  9.000E+00
       1     1     1     2   501     0 -7.119871627E+00  5.901521249E+01  6.301381291E+02  6.329356600E+02  7.629394531E-06  0.00000E+00  9.000E+00
#rwgt            1           1   2.8491235440117529E-002           5      161404           0
</event>
<event>
      5   9999  3.19816E-02  8.67170E+01 -1.00000E+00  1.26677E-01
      21    -1     0     0   511   501  0.000000000E+00  0.000000000E+00  7.694869455E+02  7.694869455E+02  0.000000000E+00  0.00000E+00  9.000E+00
      21    -1     0     0   501   502  0.000000000E+00  0.000000000E+00 -5.726953099E+02  5.726953099E+02  0.000000000E+00  0.00000E+00  9.000E+00
      25     1     1     2     0     0  4.514869878E+02  3.322919100E+02  3.364061691E+02  6.656219079E+02  1.250000000E+02  0.00000E+00  9.000E+00
      25     1     1     2     0     0 -4.000665224E+02 -2.624652062E+02 -2.350998387E+02  5.475747811E+02  1.250000000E+02  0.00000E+00  9.000E+00
      21     1     1     2   511   502 -5.142046545E+01 -6.982670386E+01  9.548530512E+01  1.289855664E+02  0.000000000E+00  0.00000E+00  9.000E+00
#rwgt            1           1   3.1898499638575648E-002           5      161513           0
</event>
<event>
      5   9999  3.19816E-02  3.56754E+02 -1.00000E+00  1.03203E-01
      21    -1     0     0   502   501  0.000000000E+00  0.000000000E+00  2.952406780E+03  2.952406780E+03  0.000000000E+00  0.00000E+00  9.000E+00
      21    -1     0     0   501   512  0.000000000E+00  0.000000000E+00 -1.777969728E+03  1.777969728E+03  0.000000000E+00  0.00000E+00  9.000E+00
      25     1     1     2     0     0 -3.478877967E+02  1.120256989E+03 -5.695866401E+02  1.309983046E+03  1.250000000E+02  0.00000E+00  9.000E+00
      25     1     1     2     0     0  6.130479089E+01 -1.332727544E+03  2.356934915E+03  2.711215258E+03  1.250000000E+02  0.00000E+00  9.000E+00
      21     1     1     2   502   512  2.865830058E+02  2.124705542E+02 -6.129112238E+02  7.091782032E+02  1.321449896E-05  0.00000E+00  9.000E+00
#rwgt            1           1   2.1934838700066447E-002           5      161631           0
</event>
<event>
      5   9999  3.19816E-02  1.32533E+02 -1.00000E+00  1.18565E-01
       2    -1     0     0   502     0  0.000000000E+00  0.000000000E+00  3.909487265E+02  3.909487265E+02  0.000000000E+00  0.00000E+00  9.000E+00
      21    -1     0     0   501   502  0.000000000E+00  0.000000000E+00 -6.731116183E+02  6.731116183E+02  0.000000000E+00  0.00000E+00  9.000E+00
      25     1     1     2     0     0  1.261998868E+02 -1.317875815E+02 -5.043610590E+02  5.507262985E+02  1.250000000E+02  0.00000E+00  9.000E+00
      25     1     1     2     0     0 -2.580595987E+02  1.451259807E+02  1.099730816E+02  3.396695238E+02  1.250000000E+02  0.00000E+00  9.000E+00
       2     1     1     2   501     0  1.318597119E+02 -1.333839918E+01  1.122250856E+02  1.736645224E+02  0.000000000E+00  0.00000E+00  9.000E+00
#rwgt            1           1   2.8005357067637605E-002           5      161737           0
</event>
<event>
      5   9999  3.19816E-02  9.70134E+01 -1.00000E+00  1.24423E-01
      21    -1     0     0   502   501  0.000000000E+00  0.000000000E+00  1.914617592E+03  1.914617592E+03  0.000000000E+00  0.00000E+00  9.000E+00
      21    -1     0     0   501   511  0.000000000E+00  0.000000000E+00 -6.718297214E+02  6.718297214E+02  0.000000000E+00  0.00000E+00  9.000E+00
      25     1     1     2     0     0  5.188541213E+02  8.628270810E+02  3.674244900E+02  1.079030086E+03  1.250000000E+02  0.00000E+00  9.000E+00
      25     1     1     2     0     0 -4.727055396E+02 -9.481611502E+02  9.122096762E+02  1.403642258E+03  1.250000000E+02  0.00000E+00  9.000E+00
      21     1     1     2   502   511 -4.614858162E+01  8.533406919E+01 -3.684629515E+01  1.037749701E+02  8.259061849E-07  0.00000E+00  9.000E+00
#rwgt            1           1   2.8297572797114170E-002           5      161778           0
</event>
<event>
      5   9999  3.19816E-02  4.87526E+02 -1.00000E+00  9.91647E-02
      21    -1     0     0   502   501  0.000000000E+00  0.000000000E+00  1.267964376E+03  1.267964376E+03  0.000000000E+00  0.00000E+00  9.000E+00
      21    -1     0     0   512   502  0.000000000E+00  0.000000000E+00 -9.670616776E+02  9.670616776E+02  0.000000000E+00  0.00000E+00  9.000E+00
      25     1     1     2     0     0  8.301681544E+00 -3.100982110E+02 -1.741651064E+02  3.770786426E+02  1.250000000E+02  0.00000E+00  9.000E+00
      25     1     1     2     0     0 -2.047429571E+01 -1.772758772E+02  1.068184531E+03  1.090178483E+03  1.250000000E+02  0.00000E+00  9.000E+00
      21     1     1     2   512   501  1.217261417E+01  4.873740883E+02 -5.931167265E+02  7.677689273E+02  7.629394531E-06  0.00000E+00  9.000E+00
#rwgt            2          11   2.8369771090044145E-003           5      161884           0
</event>
<event>
      5   9999  3.19816E-02  1.64707E+02 -1.00000E+00  1.14806E-01
      21    -1     0     0   502   501  0.000000000E+00  0.000000000E+00  4.647240641E+02  4.647240641E+02  0.000000000E+00  0.00000E+00  9.000E+00
      21    -1     0     0   501   511  0.000000000E+00  0.000000000E+00 -2.768105789E+02  2.768105789E+02  0.000000000E+00  0.00000E+00  9.000E+00
      25     1     1     2     0     0  1.834520312E+02 -1.661291368E+02 -4.489789226E+01  2.808813959E+02  1.250000000E+02  0.00000E+00  9.000E+00
      25     1     1     2     0     0 -2.302883990E+01  1.288086293E+02  2.341662824E+02  2.959405992E+02  1.250000000E+02  0.00000E+00  9.000E+00
      21     1     1     2   502   511 -1.604231913E+02  3.732050750E+01 -1.354904969E+00  1.647126478E+02  2.442290773E-06  0.00000E+00  9.000E+00
#rwgt            1           1   2.5854911551828310E-002           5      161949           0
</event>
<event>
      5   9999  3.19816E-02  1.46538E+01 -1.00000E+00  1.78344E-01
      21    -1     0     0   512   501  0.000000000E+00  0.000000000E+00  4.026940336E+02  4.026940336E+02  0.000000000E+00  0.00000E+00  9.000E+00
      21    -1     0     0   501   502  0.000000000E+00  0.000000000E+00 -2.091137237E+02  2.091137237E+02  0.000000000E+00  0.00000E+00  9.000E+00
      25     1     1     2     0     0  5.816878592E+01  1.907242639E+02 -7.530736176E+01  2.470942153E+02  1.250000000E+02  0.00000E+00  9.000E+00
      25     1     1     2     0     0 -6.998204653E+01 -1.820535949E+02  2.504434156E+02  3.411567128E+02  1.250000000E+02  0.00000E+00  9.000E+00
      21     1     1     2   512   502  1.181326061E+01 -8.670669016E+00  1.844425603E+01  2.355682933E+01  4.129530925E-07  0.00000E+00  9.000E+00
#rwgt            1           1   2.8516732581620113E-002           5      162011           0
</event>
<event>
      5   9999  3.19816E-02  2.24325E+02 -1.00000E+00  1.09863E-01
      21    -1     0     0   502   501  0.000000000E+00  0.000000000E+00  2.143381186E+02  2.143381186E+02  0.000000000E+00  0.00000E+00  9.000E+00
      21    -1     0     0   501   511  0.000000000E+00  0.000000000E+00 -5.024424977E+02  5.024424977E+02  0.000000000E+00  0.00000E+00  9.000E+00
      25     1     1     2     0     0  2.900683474E+01  3.410823872E+00  3.746765078E+01  1.337230535E+02  1.250000000E+02  0.00000E+00  9.000E+00
      25     1     1     2     0     0  1.929866515E+02 -3.566586933E+01 -6.996219001E+01  2.429724469E+02  1.250000000E+02  0.00000E+00  9.000E+00
      21     1     1     2   502   511 -2.219934863E+02  3.225504546E+01 -2.556098398E+02  3.400851160E+02  4.672030912E-06  0.00000E+00  9.000E+00
#rwgt            1           1   5.2529861847415767E-002           5      162141           0
</event>
<event>
      5   9999  3.19816E-02  5.48857E+01 -1.00000E+00  1.36804E-01
      21    -1     0     0   502   512  0.000000000E+00  0.000000000E+00  4.148432126E+02  4.148432126E+02  0.000000000E+00  0.00000E+00  9.000E+00
      21    -1     0     0   501   502  0.000000000E+00  0.000000000E+00 -7.982713020E+02  7.982713020E+02  0.000000000E+00  0.00000E+00  9.000E+00
      25     1     1     2     0     0  4.220481749E+01 -1.034915065E+02  3.171156237E+02  3.587186325E+02  1.250000000E+02  0.00000E+00  9.000E+00
      25     1     1     2     0     0 -4.871420355E+00  1.437240727E+02 -7.540463268E+02  7.777475187E+02  1.250000000E+02  0.00000E+00  9.000E+00
      21     1     1     2   501   512 -3.733339713E+01 -4.023256627E+01  5.350261369E+01  7.664836334E+01  1.507891493E-06  0.00000E+00  9.000E+00
#rwgt            1           1   2.8501682754197621E-002           5      162213           0
</event>
<event>
      5   9999  3.19816E-02  1.04408E+01 -1.00000E+00  1.93616E-01
      21    -1     0     0   511   501  0.000000000E+00  0.000000000E+00  8.313807816E+02  8.313807816E+02  0.000000000E+00  0.00000E+00  9.000E+00
      21    -1     0     0   501   502  0.000000000E+00  0.000000000E+00 -2.136966153E+02  2.136966153E+02  0.000000000E+00  0.00000E+00  9.000E+00
      25     1     1     2     0     0  2.115052042E+02 -7.424151921E+01  6.758431067E+02  7.229351005E+02  1.250000000E+02  0.00000E+00  9.000E+00
      25     1     1     2     0     0 -2.161486106E+02  6.489005027E+01 -1.017451947E+02  2.773229618E+02  1.250000000E+02  0.00000E+00  9.000E+00
      21     1     1     2   511   502  4.643406390E+00  9.351468942E+00  4.358625427E+01  4.481933462E+01  8.259061849E-07  0.00000E+00  9.000E+00
#rwgt            1           1   2.8780408053631929E-002           5      162346           0
</event>
<event>
      5   9999  3.19816E-02  1.58124E+02 -1.00000E+00  1.15493E-01
      21    -1     0     0   502   501  0.000000000E+00  0.000000000E+00  1.262903514E+03  1.262903514E+03  0.000000000E+00  0.00000E+00  9.000E+00
       2    -1     0     0   501     0  0.000000000E+00  0.000000000E+00 -9.396208544E+01  9.396208544E+01  0.000000000E+00  0.00000E+00  9.000E+00
      25     1     1     2     0     0  6.559575718E+01 -1.438216925E+02  2.813472025E+02  3.460761924E+02  1.250000000E+02  0.00000E+00  9.000E+00
      25     1     1     2     0     0 -2.036800727E+02  2.208660260E+02  6.052483631E+02  6.871811657E+02  1.250000000E+02  0.00000E+00  9.000E+00
       2     1     1     2   502     0  1.380843155E+02 -7.704433355E+01  2.823458628E+02  3.236082412E+02  6.607249480E-06  0.00000E+00  9.000E+00
#rwgt            1           1   2.9771765721972474E-002           5      162605           0
</event>
<event>
      5   9999  3.19816E-02  1.48350E+02 -1.00000E+00  1.16584E-01
      21    -1     0     0   502   501  0.000000000E+00  0.000000000E+00  5.696212547E+02  5.696212547E+02  0.000000000E+00  0.00000E+00  9.000E+00
       2    -1     0     0   501     0  0.000000000E+00  0.000000000E+00 -2.009707575E+03  2.009707575E+03  0.000000000E+00  0.00000E+00  9.000E+00
      25     1     1     2     0     0  3.818108880E+02 -2.384183098E+02 -8.397258028E+02  9.609304182E+02  1.250000000E+02  0.00000E+00  9.000E+00
      25     1     1     2     0     0 -2.485894812E+02  1.731508840E+02  4.505137315E+02  5.571046410E+02  1.250000000E+02  0.00000E+00  9.000E+00
       2     1     1     2   502     0 -1.332214068E+02  6.526742584E+01 -1.050874249E+03  1.061293770E+03  1.525878906E-05  0.00000E+00  9.000E+00
#rwgt            2          13   1.7592508081442104E-003           5      162738           0
</event>
<event>
      5   9999  3.19816E-02  1.91445E+02 -1.00000E+00  1.12344E-01
      21    -1     0     0   502   501  0.000000000E+00  0.000000000E+00  1.958900358E+02  1.958900358E+02  0.000000000E+00  0.00000E+00  9.000E+00
      21    -1     0     0   511   502  0.000000000E+00  0.000000000E+00 -4.819482468E+02  4.819482468E+02  0.000000000E+00  0.00000E+00  9.000E+00
      25     1     1     2     0     0  1.062699914E+01 -6.035605806E+01  8.993321481E-01  1.392177993E+02  1.250000000E+02  0.00000E+00  9.000E+00
      25     1     1     2     0     0 -2.019580553E+02  5.374030783E+01 -7.911998155E+01  2.560469649E+02  1.250000000E+02  0.00000E+00  9.000E+00
      21     1     1     2   511   501  1.913310561E+02  6.615750226E+00 -2.078375616E+02  2.825735182E+02  4.672030912E-06  0.00000E+00  9.000E+00
#rwgt            1           1   3.2302750194052647E-002           5      162802           0
</event>
<event>
      5   9999  3.19816E-02  2.08413E+01 -1.00000E+00  1.64906E-01
      21    -1     0     0   502   501  0.000000000E+00  0.000000000E+00  6.109260940E+02  6.109260940E+02  0.000000000E+00  0.00000E+00  9.000E+00
      21    -1     0     0   512   502  0.000000000E+00  0.000000000E+00 -2.463239162E+02  2.463239162E+02  0.000000000E+00  0.00000E+00  9.000E+00
      25     1     1     2     0     0 -3.302595346E+02 -1.774246156E+01  1.681956038E+02  3.915366091E+02  1.250000000E+02  0.00000E+00  9.000E+00
      25     1     1     2     0     0  3.274186830E+02  3.838925650E+01  2.337036457E+02  4.229883249E+02  1.250000000E+02  0.00000E+00  9.000E+00
      21     1     1     2   512   501  2.840851593E+00 -2.064679494E+01 -3.729707178E+01  4.272507627E+01  1.168007728E-06  0.00000E+00  9.000E+00
#rwgt            1           1   2.6340681055044304E-002           5      162914           0
</event>
<event>
      5   9999  3.19816E-02  4.60432E+02 -1.00000E+00  9.98799E-02
      21    -1     0     0   502   501  0.000000000E+00  0.000000000E+00  2.824203688E+03  2.824203688E+03  0.000000000E+00  0.00000E+00  9.000E+00
      21    -1     0     0   501   511  0.000000000E+00  0.000000000E+00 -1.635342188E+03  1.635342188E+03  0.000000000E+00  0.00000E+00  9.000E+00
      25     1     1     2     0     0 -5.961161954E+02  5.821718368E+02  2.481518533E+03  2.620655985E+03  1.250000000E+02  0.00000E+00  9.000E+00
      25     1     1     2     0     0  2.509351817E+02 -2.774633447E+02  6.995351866E+01  4.005906487E+02  1.250000000E+02  0.00000E+00  9.000E+00
      21     1     1     2   502   511  3.451810138E+02 -3.047084920E+02 -1.362610551E+03  1.438299243E+03  2.157918644E-05  0.00000E+00  9.000E+00
#rwgt            2          11   3.2674024059719262E-003           5      163156           0
</event>
<event>
      5   9999  3.19816E-02  6.58773E+01 -1.00000E+00  1.32570E-01
      -4    -1     0     0     0   501  0.000000000E+00  0.000000000E+00  4.335233476E+02  4.335233476E+02  0.000000000E+00  0.00000E+00  9.000E+00
      21    -1     0     0   501   502  0.000000000E+00  0.000000000E+00 -2.451244054E+02  2.451244054E+02  0.000000000E+00  0.00000E+00  9.000E+00
      25     1     1     2     0     0 -1.210966184E+02  1.276279346E+02 -1.145112959E+02  2.443176571E+02  1.250000000E+02  0.00000E+00  9.000E+00
      25     1     1     2     0     0  7.047747502E+01 -1.697885270E+02  2.928793495E+02  3.676935296E+02  1.250000000E+02  0.00000E+00  9.000E+00
      -4     1     1     2     0   502  5.061914341E+01  4.216059235E+01  1.003088863E+01  6.663656619E+01  4.768371582E-07  0.00000E+00  9.000E+00
#rwgt            1           1   2.4657363772879155E-002           5      163191           0
</event>
<event>
      5   9999  3.19816E-02  3.24014E+01 -1.00000E+00  1.50753E-01
      21    -1     0     0   502   511  0.000000000E+00  0.000000000E+00  3.107365208E+02  3.107365208E+02  0.000000000E+00  0.00000E+00  9.000E+00
      21    -1     0     0   501   502  0.000000000E+00  0.000000000E+00 -6.798306571E+02  6.798306571E+02  0.000000000E+00  0.00000E+00  9.000E+00
      25     1     1     2     0     0  3.103344216E+01 -3.302692334E+02 -4.578826304E+02  5.790702413E+02  1.250000000E+02  0.00000E+00  9.000E+00
      25     1     1     2     0     0 -6.290608947E+01  3.360990934E+02  9.941663629E+01  3.773969319E+02  1.250000000E+02  0.00000E+00  9.000E+00
      21     1     1     2   501   511  3.187264731E+01 -5.829859963E+00 -1.062814213E+01  3.410000468E+01  9.536743164E-07  0.00000E+00  9.000E+00
#rwgt            1           1   2.8218824656773122E-002           5      163318           0
</event>
<event>
      5   9999  3.19816E-02  3.96706E+01 -1.00000E+00  1.45063E-01
      21    -1     0     0   502   501  0.000000000E+00  0.000000000E+00  5.161589819E+02  5.161589819E+02  0.000000000E+00  0.00000E+00  9.000E+00
      21    -1     0     0   501   512  0.000000000E+00  0.000000000E+00 -2.113932830E+03  2.113932830E+03  0.000000000E+00  0.00000E+00  9.000E+00
      25     1     1     2     0     0 -4.311044322E+02 -6.679935857E+02 -3.421619681E+02  8.745091620E+02  1.250000000E+02  0.00000E+00  9.000E+00
      25     1     1     2     0     0  4.232992641E+02  7.068887836E+02 -4.463927696E+02  9.453917305E+02  1.250000000E+02  0.00000E+00  9.000E+00
      21     1     1     2   502   512  7.805168119E+00 -3.889519789E+01 -8.092191107E+02  8.101909196E+02  1.525878906E-05  0.00000E+00  9.000E+00
#rwgt            2          11   1.9249404009229146E-003           5      163408           0
</event>
<event>
      5   9999  3.19816E-02  6.38197E+01 -1.00000E+00  1.33287E-01
      21    -1     0     0   502   501  0.000000000E+00  0.000000000E+00  5.034474690E+02  5.034474690E+02  0.000000000E+00  0.00000E+00  9.000E+00
      21    -1     0     0   501   511  0.000000000E+00  0.000000000E+00 -1.322174207E+02  1.322174207E+02  0.000000000E+00  0.00000E+00  9.000E+00
      25     1     1     2     0     0  1.173621401E+02 -5.660871884E+01  3.286123250E+02  3.749526358E+02  1.250000000E+02  0.00000E+00  9.000E+00
      25     1     1     2     0     0 -9.678833816E+01 -3.803786606E+00  8.932972597E+01  1.816239278E+02  1.250000000E+02  0.00000E+00  9.000E+00
      21     1     1     2   502   511 -2.057380196E+01  6.041250544E+01 -4.671200259E+01  7.908832611E+01  6.743495762E-07  0.00000E+00  9.000E+00
#rwgt            1           1   2.8829148561362941E-002           5      163458           0
</event>
<event>
      5   9999  3.19816E-02  4.04927E+01 -1.00000E+00  1.44511E-01
      21    -1     0     0   502   512  0.000000000E+00  0.000000000E+00  1.737122492E+02  1.737122492E+02  0.000000000E+00  0.00000E+00  9.000E+00
      21    -1     0     0   501   502  0.000000000E+00  0.000000000E+00 -2.900562722E+03  2.900562722E+03  0.000000000E+00  0.00000E+00  9.000E+00
      25     1     1     2     0     0  5.559549363E+02 -3.403766652E+01 -1.971848889E+03  2.052816966E+03  1.250000000E+02  0.00000E+00  9.000E+00
      25     1     1     2     0     0 -5.949430926E+02  2.310237152E+01 -7.672275294E+02  9.791598873E+02  1.250000000E+02  0.00000E+00  9.000E+00
      21     1     1     2   501   512  3.898815632E+01  1.093529500E+01  1.222594604E+01  4.229811777E+01  1.410503336E-06  0.00000E+00  9.000E+00
#rwgt            1           1   8.7288103815846382E-002           5      163514           0
</event>
<event>
      5   9999  3.19816E-02  1.52416E+02 -1.00000E+00  1.16119E-01
      21    -1     0     0   502   501  0.000000000E+00  0.000000000E+00  7.841774750E+02  7.841774750E+02  0.000000000E+00  0.00000E+00  9.000E+00
      21    -1     0     0   511   502  0.000000000E+00  0.000000000E+00 -1.385647792E+02  1.385647792E+02  0.000000000E+00  0.00000E+00  9.000E+00
      25     1     1     2     0     0 -1.704958707E+02  1.486821750E+02  5.003607567E+02  5.631705940E+02  1.250000000E+02  0.00000E+00  9.000E+00
      25     1     1     2     0     0  2.062894747E+01 -1.209258102E+02  9.399652333E+01  1.987685877E+02  1.250000000E+02  0.00000E+00  9.000E+00
      21     1     1     2   511   501  1.498669233E+02 -2.775636479E+01  5.125541577E+01  1.608030725E+02  2.132480600E-06  0.00000E+00  9.000E+00
#rwgt            1           1   2.6841909948964626E-002           5      163660           0
</event>
<event>
      5   9999  3.19816E-02  2.41496E+01 -1.00000E+00  1.59885E-01
      21    -1     0     0   502   501  0.000000000E+00  0.000000000E+00  7.189858320E+02  7.189858320E+02  0.000000000E+00  0.00000E+00  9.000E+00
      21    -1     0     0   501   512  0.000000000E+00  0.000000000E+00 -8.186674347E+01  8.186674347E+01  0.000000000E+00  0.00000E+00  9.000E+00
      25     1     1     2     0     0  1.493645703E+01  5.995737553E+01  1.141240871E+02  1.801868249E+02  1.250000000E+02  0.00000E+00  9.000E+00
      25     1     1     2     0     0  9.054483720E+00 -6.272089729E+01  5.595612552E+02  5.768446004E+02  1.250000000E+02  0.00000E+00  9.000E+00
      21     1     1     2   502   512 -2.399094075E+01  2.763521753E+00 -3.656625375E+01  4.382115019E+01  1.168007728E-06  0.00000E+00  9.000E+00
#rwgt            1           1   2.4712477517031227E-002           5      163692           0
</event>
<event>
      5   9999  3.19816E-02  1.39350E+01 -1.00000E+00  1.80451E-01
      21    -1     0     0   502   501  0.000000000E+00  0.000000000E+00  2.090515379E+01  2.090515379E+01  0.000000000E+00  0.00000E+00  9.000E+00
       2    -1     0     0   501     0  0.000000000E+00  0.000000000E+00 -1.443435485E+03  1.443435485E+03  0.000000000E+00  0.00000E+00  9.000E+00
      25     1     1     2     0     0  6.535000145E+01  4.910197557E+01 -7.118401875E+02  7.273397275E+02  1.250000000E+02  0.00000E+00  9.000E+00
      25     1     1     2     0     0 -5.181706162E+01 -5.242500668E+01 -3.918664442E+02  4.178728267E+02  1.250000000E+02  0.00000E+00  9.000E+00
       2     1     1     2   502     0 -1.353293984E+01  3.323031107E+00 -3.188236991E+02  3.191280841E+02  3.814697266E-06  0.00000E+00  9.000E+00
#rwgt            1           1   5.5656342898737776E-002           5      163782           0
</event>
<event>
      5   9999  3.19816E-02  2.40533E+02 -1.00000E+00  1.08806E-01
      21    -1     0     0   502   501  0.000000000E+00  0.000000000E+00  2.380545381E+03  2.380545381E+03  0.000000000E+00  0.00000E+00  9.000E+00
      21    -1     0     0   511   502  0.000000000E+00  0.000000000E+00 -5.718832915E+01  5.718832915E+01  0.000000000E+00  0.00000E+00  9.000E+00
      25     1     1     2     0     0  8.312990126E+01 -2.044867874E+01  5.810645571E+02  6.004912559E+02  1.250000000E+02  0.00000E+00  9.000E+00
      25     1     1     2     0     0 -3.142971086E+02 -4.601956886E+01  1.077021381E+03  1.129823229E+03  1.250000000E+02  0.00000E+00  9.000E+00
      21     1     1     2   511   501  2.311672073E+02  6.646824760E+01  6.652711133E+02  7.074192250E+02  0.000000000E+00  0.00000E+00  9.000E+00
#rwgt            2          11   2.2499051255347817E-003           5      163986           0
</event>
<event>
      5   9999  3.19816E-02  2.84539E+01 -1.00000E+00  1.54653E-01
      21    -1     0     0   512   501  0.000000000E+00  0.000000000E+00  2.693078870E+03  2.693078870E+03  0.000000000E+00  0.00000E+00  9.000E+00
      21    -1     0     0   501   502  0.000000000E+00  0.000000000E+00 -3.603970925E+01  3.603970925E+01  0.000000000E+00  0.00000E+00  9.000E+00
      25     1     1     2     0     0 -1.499550879E+02 -2.135635899E+02  1.493141814E+03  1.520918608E+03  1.250000000E+02  0.00000E+00  9.000E+00
      25     1     1     2     0     0  1.726499746E+02  1.964006445E+02  9.748885699E+02  1.017061429E+03  1.250000000E+02  0.00000E+00  9.000E+00
      21     1     1     2   512   502 -2.269488674E+01  1.716294539E+01  1.890087764E+02  1.911385417E+02  2.697398305E-06  0.00000E+00  9.000E+00
#rwgt            1           1   7.7119915449296167E-002           5      164021           0
</event>
<event>
      5   9999  3.19816E-02  4.08726E+01 -1.00000E+00  1.44261E-01
      21    -1     0     0   511   501  0.000000000E+00  0.000000000E+00  7.083389165E+02  7.083389165E+02  0.000000000E+00  0.00000E+00  9.000E+00
      21    -1     0     0   501   502  0.000000000E+00  0.000000000E+00 -6.748740357E+02  6.748740357E+02  0.000000000E+00  0.00000E+00  9.000E+00
      25     1     1     2     0     0  5.896602479E+02 -2.364118570E+02 -6.085719234E+01  6.503217450E+02  1.250000000E+02  0.00000E+00  9.000E+00
      25     1     1     2     0     0 -5.760960271E+02  1.978556957E+02 -8.888518446E+00  6.218822353E+02  1.250000000E+02  0.00000E+00  9.000E+00
      21     1     1     2   511   502 -1.356422084E+01  3.855616131E+01  1.032105916E+02  1.110089721E+02  1.907348633E-06  0.00000E+00  9.000E+00
#rwgt            1           1   3.1938556062657782E-002           5      164111           0
</event>
<event>
      5   9999  3.19816E-02  1.86189E+02 -1.00000E+00  1.12791E-01
      21    -1     0     0   502   501  0.000000000E+00  0.000000000E+00  5.828295665E+02  5.828295665E+02  0.000000000E+00  0.00000E+00  9.000E+00
      21    -1     0     0   501   512  0.000000000E+00  0.000000000E+00 -1.158886955E+03  1.158886955E+03  0.000000000E+00  0.00000E+00  9.000E+00
      25     1     1     2     0     0 -2.909194310E+02  2.128783177E+02 -9.181487233E+02  9.942702709E+02  1.250000000E+02  0.00000E+00  9.000E+00
      25     1     1     2     0     0  2.694991185E+02 -2.792555453E+01  4.441855429E+02  5.351031750E+02  1.250000000E+02  0.00000E+00  9.000E+00
      21     1     1     2   502   512  2.142031255E+01 -1.849527632E+02 -1.020942079E+02  2.123430754E+02  4.672030912E-06  0.00000E+00  9.000E+00
#rwgt            2          11   6.2016852212430544E-003           5      164202           0
</event>
<event>
      5   9999  3.19816E-02  1.30610E+01 -1.00000E+00  1.83241E-01
      21    -1     0     0   502   511  0.000000000E+00  0.000000000E+00  7.649617516E+02  7.649617516E+02  0.000000000E+00  0.00000E+00  9.000E+00
      21    -1     0     0   501   502  0.000000000E+00  0.000000000E+00 -1.456007930E+02  1.456007930E+02  0.000000000E+00  0.00000E+00  9.000E+00
      25     1     1     2     0     0 -8.261268097E+01  2.085393421E+02  5.285043669E+02  5.875843582E+02  1.250000000E+02  0.00000E+00  9.000E+00
      25     1     1     2     0     0  9.327858983E+01 -2.160778584E+02  3.878680531E+01  2.692952887E+02  1.250000000E+02  0.00000E+00  9.000E+00
      21     1     1     2   501   511 -1.066590886E+01  7.538516371E+00  5.206978645E+01  5.368289767E+01  9.536743164E-07  0.00000E+00  9.000E+00
#rwgt            1           1   3.1457317887538881E-002           5      164237           0
</event>
<event>
      5   9999  3.19816E-02  2.94346E+02 -1.00000E+00  1.05861E-01
       1    -1     0     0   502     0  0.000000000E+00  0.000000000E+00  1.381663993E+03  1.381663993E+03  0.000000000E+00  0.00000E+00  9.000E+00
      21    -1     0     0   501   502  0.000000000E+00  0.000000000E+00 -8.546179637E+02  8.546179637E+02  0.000000000E+00  0.00000E+00  9.000E+00
      25     1     1     2     0     0 -4.529411471E+02  2.952111720E+01 -3.534806071E+02  5.887280516E+02  1.250000000E+02  0.00000E+00  9.000E+00
      25     1     1     2     0     0  6.037890134E+02  2.232323234E+02 -6.338361401E+01  6.588143330E+02  1.250000000E+02  0.00000E+00  9.000E+00
       1     1     1     2   501     0 -1.508478662E+02 -2.527534406E+02  9.439102500E+02  9.887395717E+02  1.525878906E-05  0.00000E+00  9.000E+00
#rwgt            1           1   2.3820713261235044E-002           5      164341           0
</event>
<event>
      5   9999  3.19816E-02  5.78254E+01 -1.00000E+00  1.35566E-01
      21    -1     0     0   511   501  0.000000000E+00  0.000000000E+00  5.688184960E+02  5.688184960E+02  0.000000000E+00  0.00000E+00  9.000E+00
      21    -1     0     0   501   502  0.000000000E+00  0.000000000E+00 -4.428882805E+02  4.428882805E+02  0.000000000E+00  0.00000E+00  9.000E+00
      25     1     1     2     0     0 -1.618729895E+02  3.525832016E+01  6.814192770E+01  2.184361147E+02  1.250000000E+02  0.00000E+00  9.000E+00
      25     1     1     2     0     0  1.059587796E+02 -5.000221424E+01 -3.456123936E+02  3.857465632E+02  1.250000000E+02  0.00000E+00  9.000E+00
      21     1     1     2   511   502  5.591420990E+01  1.474389407E+01  4.034006814E+02  4.075240987E+02  0.000000000E+00  0.00000E+00  9.000E+00
#rwgt            1           1   3.0494182941820096E-002           5      164390           0
</event>
<event>
      5   9999  3.19816E-02  2.81945E+01 -1.00000E+00  1.54936E-01
      21    -1     0     0   502   501  0.000000000E+00  0.000000000E+00  1.152746888E+03  1.152746888E+03  0.000000000E+00  0.00000E+00  9.000E+00
      21    -1     0     0   501   512  0.000000000E+00  0.000000000E+00 -3.141659341E+01  3.141659341E+01  0.000000000E+00  0.00000E+00  9.000E+00
      25     1     1     2     0     0  9.985596118E+01  1.451274204E+01  8.012611638E+02  8.172063909E+02  1.250000000E+02  0.00000E+00  9.000E+00
      25     1     1     2     0     0 -7.445258553E+01 -2.674377043E+01  2.911079381E+02  3.265382801E+02  1.250000000E+02  0.00000E+00  9.000E+00
      21     1     1     2   502   512 -2.540337565E+01  1.223102839E+01  2.896119244E+01  4.041881019E+01  8.259061849E-07  0.00000E+00  9.000E+00
#rwgt            1           1   3.1353032813618231E-002           5      164466           0
</event>
<event>
      5   9999  3.19816E-02  1.94865E+02 -1.00000E+00  1.12061E-01
      21    -1     0     0   502   501  0.000000000E+00  0.000000000E+00  1.796215899E+03  1.796215899E+03  0.000000000E+00  0.00000E+00  9.000E+00
      21    -1     0     0   501   511  0.000000000E+00  0.000000000E+00 -2.537294250E+02  2.537294250E+02  0.000000000E+00  0.00000E+00  9.000E+00
      25     1     1     2     0     0 -9.491872764E+01  1.007013121E+02  2.613403329E+02  3.210515359E+02  1.250000000E+02  0.00000E+00  9.000E+00
      25     1     1     2     0     0  2.841611884E+02 -5.422809181E+01  1.442112146E+03  1.476143865E+03  1.250000000E+02  0.00000E+00  9.000E+00
      21     1     1     2   502   511 -1.892424607E+02 -4.647322024E+01 -1.609660050E+02  2.527499236E+02  9.147322699E-06  0.00000E+00  9.000E+00
#rwgt            2          11   1.1044531675460776E-002           5      164713           0
</event>
<event>
      5   9999  3.19816E-02  6.58012E+01 -1.00000E+00  1.32596E-01
      21    -1     0     0   502   501  0.000000000E+00  0.000000000E+00  1.488421045E+03  1.488421045E+03  0.000000000E+00  0.00000E+00  9.000E+00
       1    -1     0     0   501     0  0.000000000E+00  0.000000000E+00 -2.435265147E+02  2.435265147E+02  0.000000000E+00  0.00000E+00  9.000E+00
      25     1     1     2     0     0  3.083359207E+02 -2.048234690E+02  1.188405412E+03  1.250982061E+03  1.250000000E+02  0.00000E+00  9.000E+00
      25     1     1     2     0     0 -3.480854140E+02  1.523851433E+02  8.550854675E+01  4.090493844E+02  1.250000000E+02  0.00000E+00  9.000E+00
       1     1     1     2   502     0  3.974949328E+01  5.243832565E+01 -2.901942872E+01  7.191611403E+01  1.877309769E-06  0.00000E+00  9.000E+00
#rwgt            1           1   3.3356046281382119E-002           5      164733           0
</event>
<event>
      5   9999  3.19816E-02  8.21226E+01 -1.00000E+00  1.27801E-01
       3    -1     0     0   502     0  0.000000000E+00  0.000000000E+00  6.185754181E+02  6.185754181E+02  0.000000000E+00  0.00000E+00  9.000E+00
      21    -1     0     0   501   502  0.000000000E+00  0.000000000E+00 -2.216950424E+02  2.216950424E+02  0.000000000E+00  0.00000E+00  9.000E+00
      25     1     1     2     0     0 -7.655160247E+01 -8.697022442E+01  9.818073445E+01  1.966937325E+02  1.250000000E+02  0.00000E+00  9.000E+00
      25     1     1     2     0     0  8.023087616E+01  1.690103196E+02 -9.292305895E+01  2.434361857E+02  1.250000000E+02  0.00000E+00  9.000E+00
       3     1     1     2   501     0 -3.679273700E+00 -8.204009515E+01  3.916227002E+02  4.001405423E+02  5.394796609E-06  0.00000E+00  9.000E+00
#rwgt            1           1   3.3887700732965750E-002           5      164819           0
</event>
<event>
      5   9999  3.19816E-02  1.49660E+02 -1.00000E+00  1.16433E-01
      21    -1     0     0   511   501  0.000000000E+00  0.000000000E+00  3.682581271E+02  3.682581271E+02  0.000000000E+00  0.00000E+00  9.000E+00
      21    -1     0     0   501   502  0.000000000E+00  0.000000000E+00 -4.704093962E+02  4.704093962E+02  0.000000000E+00  0.00000E+00  9.000E+00
      25     1     1     2     0     0 -1.233179442E+02  1.317902019E+01 -2.014966678E+02  2.675946731E+02  1.250000000E+02  0.00000E+00  9.000E+00
      25     1     1     2     0     0  2.684651942E+02 -4.965444733E+01 -1.047198332E+02  3.180100125E+02  1.250000000E+02  0.00000E+00  9.000E+00
      21     1     1     2   511   502 -1.451472500E+02  3.647542714E+01  2.040652318E+02  2.530628376E+02  4.672030912E-06  0.00000E+00  9.000E+00
#rwgt            2          11   3.4447280474441517E-003           5      164894           0
</event>
<event>
      5   9999  3.19816E-02  9.37496E+01 -1.00000E+00  1.25102E-01
      21    -1     0     0   502   501  0.000000000E+00  0.000000000E+00  6.743930979E+02  6.743930979E+02  0.000000000E+00  0.00000E+00  9.000E+00
      21    -1     0     0   512   502  0.000000000E+00  0.000000000E+00 -8.756212845E+01  8.756212845E+01  0.000000000E+00  0.00000E+00  9.000E+00
      25     1     1     2     0     0 -1.755548452E+02  1.822695712E+01  2.676648206E+02  3.441237885E+02  1.250000000E+02  0.00000E+00  9.000E+00
      25     1     1     2     0     0  9.887290906E+01 -7.216085565E+01  2.242456339E+02  2.844189613E+02  1.250000000E+02  0.00000E+00  9.000E+00
      21     1     1     2   512   501  7.668193610E+01  5.393389853E+01  9.492051502E+01  1.334124766E+02  1.907348633E-06  0.00000E+00  9.000E+00
#rwgt            1           1   3.1750298039873767E-002           5      164914           0
</event>
<event>
      5   9999  3.19816E-02  5.04925E+01 -1.00000E+00  1.38833E-01
      21    -1     0     0   502   501  0.000000000E+00  0.000000000E+00  9.109483607E+02  9.109483607E+02  0.000000000E+00  0.00000E+00  9.000E+00
      21    -1     0     0   511   502  0.000000000E+00  0.000000000E+00 -3.548474115E+02  3.548474115E+02  0.000000000E+00  0.00000E+00  9.000E+00
      25     1     1     2     0     0 -1.365870115E+02  4.759075671E+02  2.767283826E+02  5.808163409E+02  1.250000000E+02  0.00000E+00  9.000E+00
      25     1     1     2     0     0  1.274221645E+02 -5.255613282E+02  2.994147542E+02  6.306546700E+02  1.250000000E+02  0.00000E+00  9.000E+00
      21     1     1     2   511   501  9.164847029E+00  4.965376108E+01 -2.004218765E+01  5.432476135E+01  5.331201500E-07  0.00000E+00  9.000E+00
#rwgt            1           1   2.9660926031560845E-002           5      164988           0
</event>
<event>
      5   9999  3.19816E-02  9.56555E+01 -1.00000E+00  1.24702E-01
      21    -1     0     0   502   501  0.000000000E+00  0.000000000E+00  1.417800271E+02  1.417800271E+02  0.000000000E+00  0.00000E+00  9.000E+00
      21    -1     0     0   501   512  0.000000000E+00  0.000000000E+00 -1.087486911E+03  1.087486911E+03  0.000000000E+00  0.00000E+00  9.000E+00
      25     1     1     2     0     0  5.059823187E+01  1.612131415E+02 -1.602079013E+02  2.642752915E+02  1.250000000E+02  0.00000E+00  9.000E+00
      25     1     1     2     0     0 -1.598018609E+01 -2.503846765E+02 -1.416322164E+02  3.140581750E+02  1.250000000E+02  0.00000E+00  9.000E+00
      21     1     1     2   502   512 -3.461804578E+01  8.917153499E+01 -6.438667668E+02  6.509334721E+02  0.000000000E+00  0.00000E+00  9.000E+00
#rwgt            1           1   2.8505269855210829E-002           5      165098           0
</event>
<event>
      5   9999  3.19816E-02  7.78571E+01 -1.00000E+00  1.28923E-01
      21    -1     0     0   502   501  0.000000000E+00  0.000000000E+00  4.635119147E+02  4.635119147E+02  0.000000000E+00  0.00000E+00  9.000E+00
      21    -1     0     0   501   511  0.000000000E+00  0.000000000E+00 -1.002095853E+03  1.002095853E+03  0.000000000E+00  0.00000E+00  9.000E+00
      25     1     1     2     0     0  5.953635917E+02  1.073620712E+02 -3.524631059E+02  7.112240587E+02  1.250000000E+02  0.00000E+00  9.000E+00
      25     1     1     2     0     0 -6.000995833E+02 -1.850750125E+02 -1.183360648E+02  6.511533570E+02  1.250000000E+02  0.00000E+00  9.000E+00
      21     1     1     2   502   511  4.735991577E+00  7.771294133E+01 -6.778476807E+01  1.032303524E+02  1.348699152E-06  0.00000E+00  9.000E+00
#rwgt            1           1   3.4622107595457481E-002           5      165161           0
</event>
<event>
      5   9999  3.19816E-02  8.90765E+01 -1.00000E+00  1.26130E-01
      21    -1     0     0   502   501  0.000000000E+00  0.000000000E+00  1.159228577E+03  1.159228577E+03  0.000000000E+00  0.00000E+00  9.000E+00
      21    -1     0     0   501   512  0.000000000E+00  0.000000000E+00 -3.658945383E+02  3.658945383E+02  0.000000000E+00  0.00000E+00  9.000E+00
      25     1     1     2     0     0 -4.001647346E+02  1.534936195E+02  1.003276364E+02  4.575835888E+02  1.250000000E+02  0.00000E+00  9.000E+00
      25     1     1     2     0     0  4.307276708E+02 -6.982449248E+01  8.051764242E+02  9.243029050E+02  1.250000000E+02  0.00000E+00  9.000E+00
      21     1     1     2   502   512 -3.056293611E+01 -8.366912706E+01 -1.121700220E+02  1.432366215E+02  1.907348633E-06  0.00000E+00  9.000E+00
#rwgt            1           1   2.6153452199961656E-002           5      165327           0
</event>
<event>
      5   9999  3.19816E-02  2.38733E+02 -1.00000E+00  1.08919E-01
       2    -1     0     0   502     0  0.000000000E+00  0.000000000E+00  6.843902595E+02  6.843902595E+02  0.000000000E+00  0.00000E+00  9.000E+00
      21    -1     0     0   501   502  0.000000000E+00  0.000000000E+00 -6.631966512E+02  6.631966512E+02  0.000000000E+00  0.00000E+00  9.000E+00
      25     1     1     2     0     0 -4.126207577E+01 -4.272411900E+02 -9.310225473E+01  4.566515336E+02  1.250000000E+02  0.00000E+00  9.000E+00
      25     1     1     2     0     0  2.107942928E+02  2.591566392E+02 -2.638991509E+02  4.436937675E+02  1.250000000E+02  0.00000E+00  9.000E+00
       2     1     1     2   501     0 -1.695322170E+02  1.680845508E+02  3.781950139E+02  4.472416096E+02  5.394796609E-06  0.00000E+00  9.000E+00
#rwgt            2          18   7.8165670903413841E-004           5      165415           0
</event>
<event>
      5   9999  3.19816E-02  4.90268E+01 -1.00000E+00  1.39564E-01
      21    -1     0     0   502   511  0.000000000E+00  0.000000000E+00  1.908234718E+02  1.908234718E+02  0.000000000E+00  0.00000E+00  9.000E+00
      21    -1     0     0   501   502  0.000000000E+00  0.000000000E+00 -1.573799293E+03  1.573799293E+03  0.000000000E+00  0.00000E+00  9.000E+00
      25     1     1     2     0     0  2.275063679E+02  1.168135094E+02 -4.151992366E+02  5.034083328E+02  1.250000000E+02  0.00000E+00  9.000E+00
      25     1     1     2     0     0 -2.762362937E+02 -1.114262457E+02 -1.086108654E+03  1.133128107E+03  1.250000000E+02  0.00000E+00  9.000E+00
      21     1     1     2   501   511  4.872992575E+01 -5.387263705E+00  1.183320689E+02  1.280863256E+02  1.348699152E-06  0.00000E+00  9.000E+00
#rwgt            1           1   2.2090917722688078E-002           5      165464           0
</event>
<event>
      5   9999  3.19816E-02  1.51228E+01 -1.00000E+00  1.77051E-01
      21    -1     0     0   512   501  0.000000000E+00  0.000000000E+00  1.498504212E+02  1.498504212E+02  0.000000000E+00  0.00000E+00  9.000E+00
      21    -1     0     0   501   502  0.000000000E+00  0.000000000E+00 -2.054808906E+03  2.054808906E+03  0.000000000E+00  0.00000E+00  9.000E+00
      25     1     1     2     0     0 -3.927731128E+02  3.248898534E+02 -9.904367979E+02  1.120898829E+03  1.250000000E+02  0.00000E+00  9.000E+00
      25     1     1     2     0     0  4.078919370E+02 -3.245434046E+02 -9.222995759E+02  1.066754780E+03  1.250000000E+02  0.00000E+00  9.000E+00
      21     1     1     2   512   502 -1.511882414E+01 -3.464487356E-01  7.777889028E+00  1.700571751E+01  7.817075878E-07  0.00000E+00  9.000E+00
#rwgt            1           1   2.7221370663952402E-002           5      165558           0
</event>
<event>
      5   9999  3.19816E-02  7.18836E+01 -1.00000E+00  1.30639E-01
      21    -1     0     0   502   501  0.000000000E+00  0.000000000E+00  5.473690282E+01  5.473690282E+01  0.000000000E+00  0.00000E+00  9.000E+00
      21    -1     0     0   511   502  0.000000000E+00  0.000000000E+00 -9.381143069E+02  9.381143069E+02  0.000000000E+00  0.00000E+00  9.000E+00
      25     1     1     2     0     0 -6.054546183E+01  1.268537338E+02 -4.719566720E+02  5.080607474E+02  1.250000000E+02  0.00000E+00  9.000E+00
      25     1     1     2     0     0  5.752601865E+01 -5.503360313E+01 -1.394932348E+02  2.035222417E+02  1.250000000E+02  0.00000E+00  9.000E+00
      21     1     1     2   511   501  3.019443181E+00 -7.182013071E+01 -2.719274972E+02  2.812682207E+02  3.814697266E-06  0.00000E+00  9.000E+00
#rwgt            1           1   3.1517467747705197E-002           5      165786           0
</event>
<event>
      5   9999  3.19816E-02  2.65633E+01 -1.00000E+00  1.56803E-01
      21    -1     0     0   502   512  0.000000000E+00  0.000000000E+00  2.533679851E+02  2.533679851E+02  0.000000000E+00  0.00000E+00  9.000E+00
      21    -1     0     0   501   502  0.000000000E+00  0.000000000E+00 -8.946127903E+02  8.946127903E+02  0.000000000E+00  0.00000E+00  9.000E+00
      25     1     1     2     0     0 -7.384516781E+00 -1.034776154E+02 -1.236316748E+02  2.041370593E+02  1.250000000E+02  0.00000E+00  9.000E+00
      25     1     1     2     0     0 -1.090320496E+01  1.227432779E+02 -7.193042127E+02  7.404109282E+02  1.250000000E+02  0.00000E+00  9.000E+00
      21     1     1     2   501   512  1.828772174E+01 -1.926566249E+01  2.016910823E+02  2.034327879E+02  2.697398305E-06  0.00000E+00  9.000E+00
#rwgt            1           1   3.0398815597235621E-002           5      165852           0
</event>
<event>
      5   9999  3.19816E-02  1.79979E+01 -1.00000E+00  1.70239E-01
      21    -1     0     0   502   501  0.000000000E+00  0.000000000E+00  1.733351884E+02  1.733351884E+02  0.000000000E+00  0.00000E+00  9.000E+00
      21    -1     0     0   501   511  0.000000000E+00  0.000000000E+00 -5.054425867E+02  5.054425867E+02  0.000000000E+00  0.00000E+00  9.000E+00
      25     1     1     2     0     0 -8.877625975E+01 -4.522874541E+00  7.719428890E+01  1.717138286E+02  1.250000000E+02  0.00000E+00  9.000E+00
      25     1     1     2     0     0  9.737094248E+01 -1.129029555E+01 -8.107540873E+01  1.783445909E+02  1.250000000E+02  0.00000E+00  9.000E+00
      21     1     1     2   502   511 -8.594682726E+00  1.581317009E+01 -3.282262784E+02  3.287193556E+02  3.814697266E-06  0.00000E+00  9.000E+00
#rwgt            1           1   3.1152828414602669E-002           5      166013           0
</event>
<event>
      5   9999  3.19816E-02  8.20330E+01 -1.00000E+00  1.27824E-01
      21    -1     0     0   512   501  0.000000000E+00  0.000000000E+00  1.807625124E+02  1.807625124E+02  0.000000000E+00  0.00000E+00  9.000E+00
      21    -1     0     0   501   502  0.000000000E+00  0.000000000E+00 -5.540599617E+02  5.540599617E+02  0.000000000E+00  0.00000E+00  9.000E+00
      25     1     1     2     0     0 -1.176464455E+02 -1.442033223E+02 -4.037673176E+02  4.618314964E+02  1.250000000E+02  0.00000E+00  9.000E+00
      25     1     1     2     0     0  1.114559670E+02  6.240424503E+01 -1.473216230E+01  1.793286340E+02  1.250000000E+02  0.00000E+00  9.000E+00
      21     1     1     2   512   502  6.190478500E+00  8.179907723E+01  4.520203065E+01  9.366234374E+01  1.168007728E-06  0.00000E+00  9.000E+00
#rwgt            1           1   2.2656530984573004E-002           5      166109           0
</event>
<event>
      5   9999  3.19816E-02  1.64860E+01 -1.00000E+00  1.73604E-01
      21    -1     0     0   502   501  0.000000000E+00  0.000000000E+00  1.256516257E+03  1.256516257E+03  0.000000000E+00  0.00000E+00  9.000E+00
      21    -1     0     0   501   511  0.000000000E+00  0.000000000E+00 -3.800013938E+02  3.800013938E+02  0.000000000E+00  0.00000E+00  9.000E+00
      25     1     1     2     0     0 -4.791349359E+02  2.170856279E+02  3.846113808E+02  6.635113947E+02  1.250000000E+02  0.00000E+00  9.000E+00
      25     1     1     2     0     0  4.701976697E+02 -2.032323325E+02  6.370364520E+02  8.269399439E+02  1.250000000E+02  0.00000E+00  9.000E+00
      21     1     1     2   502   511  8.937266227E+00 -1.385329544E+01 -1.451329700E+02  1.460663120E+02  1.907348633E-06  0.00000E+00  9.000E+00
#rwgt            1           1   2.9460427372654103E-002           5      166172           0
</event>
<event>
      5   9999  3.19816E-02  5.69154E+01 -1.00000E+00  1.35940E-01
       2    -1     0     0   502     0  0.000000000E+00  0.000000000E+00  1.603462778E+03  1.603462778E+03  0.000000000E+00  0.00000E+00  9.000E+00
      21    -1     0     0   501   502  0.000000000E+00  0.000000000E+00 -3.376340178E+02  3.376340178E+02  0.000000000E+00  0.00000E+00  9.000E+00
      25     1     1     2     0     0  3.679718286E+02 -1.195535000E+02  1.057756019E+02  4.201306749E+02  1.250000000E+02  0.00000E+00  9.000E+00
      25     1     1     2     0     0 -3.647841257E+02  1.763796109E+02  7.040927962E+01  4.298368203E+02  1.250000000E+02  0.00000E+00  9.000E+00
       2     1     1     2   501     0 -3.187702984E+00 -5.682611090E+01  1.089643879E+03  1.091129301E+03  0.000000000E+00  0.00000E+00  9.000E+00
#rwgt            1           1   2.5923580178766153E-002           5      166447           0
</event>
<event>
      5   9999  3.19816E-02  1.14586E+02 -1.00000E+00  1.21225E-01
      21    -1     0     0   502   501  0.000000000E+00  0.000000000E+00  7.597386659E+02  7.597386659E+02  0.000000000E+00  0.00000E+00  9.000E+00
      21    -1     0     0   511   502  0.000000000E+00  0.000000000E+00 -2.840583154E+02  2.840583154E+02  0.000000000E+00  0.00000E+00  9.000E+00
      25     1     1     2     0     0 -2.792754048E+02  2.560299700E+02  5.950238418E+01  4.033752980E+02  1.250000000E+02  0.00000E+00  9.000E+00
      25     1     1     2     0     0  1.756086218E+02 -2.072117701E+02  4.313391814E+02  5.248367319E+02  1.250000000E+02  0.00000E+00  9.000E+00
      21     1     1     2   511   501  1.036667830E+02 -4.881819989E+01 -1.516121511E+01  1.155849514E+02  2.348150683E-06  0.00000E+00  9.000E+00
#rwgt            1           1   2.4701042243968751E-002           5      166525           0
</event>
<event>
      5   9999  3.19816E-02  9.03201E+00 -1.00000E+00  2.01011E-01
      21    -1     0     0   502   501  0.000000000E+00  0.000000000E+00  2.412900664E+02  2.412900664E+02  0.000000000E+00  0.00000E+00  9.000E+00
      21    -1     0     0   512   502  0.000000000E+00  0.000000000E+00 -1.738298881E+03  1.738298881E+03  0.000000000E+00  0.00000E+00  9.000E+00
      25     1     1     2     0     0  2.447860397E+02  5.237703673E+02 -3.721524273E+02  6.988404912E+02  1.250000000E+02  0.00000E+00  9.000E+00
      25     1     1     2     0     0 -2.499036602E+02 -5.312126251E+02 -1.085738322E+03  1.240601224E+03  1.250000000E+02  0.00000E+00  9.000E+00
      21     1     1     2   512   501  5.117620493E+00  7.442257767E+00 -3.911806502E+01  4.014723217E+01  4.768371582E-07  0.00000E+00  9.000E+00
#rwgt            1           1   3.0144134313903660E-002           5      166587           0
</event>
<event>
      5   9999  3.19816E-02  3.20304E+02 -1.00000E+00  1.04676E-01
      21    -1     0     0   502   501  0.000000000E+00  0.000000000E+00  1.868999896E+03  1.868999896E+03  0.000000000E+00  0.00000E+00  9.000E+00
      21    -1     0     0   511   502  0.000000000E+00  0.000000000E+00 -3.508938753E+02  3.508938753E+02  0.000000000E+00  0.00000E+00  9.000E+00
      25     1     1     2     0     0 -5.372414516E+02  4.597353422E+02  9.832014109E+02  1.217495370E+03  1.250000000E+02  0.00000E+00  9.000E+00
      25     1     1     2     0     0  4.783511066E+02 -1.448914391E+02  4.106365545E+02  6.588328242E+02  1.250000000E+02  0.00000E+00  9.000E+00
      21     1     1     2   511   501  5.889034501E+01 -3.148439031E+02  1.242680553E+02  3.435655769E+02  6.607249480E-06  0.00000E+00  9.000E+00
#rwgt            1           1   2.1892828554191064E-002           5      166897           0
</event>
<event>
      5   9999  3.19816E-02  9.18374E+00 -1.00000E+00  2.00131E-01
      21    -1     0     0   512   501  0.000000000E+00  0.000000000E+00  8.271282707E+02  8.271282707E+02  0.000000000E+00  0.00000E+00  9.000E+00
      21    -1     0     0   501   502  0.000000000E+00  0.000000000E+00 -8.427152826E+02  8.427152826E+02  0.000000000E+00  0.00000E+00  9.000E+00
      25     1     1     2     0     0 -2.155305801E+02  1.623038109E+02  7.655630427E+02  8.212841959E+02  1.250000000E+02  0.00000E+00  9.000E+00
      25     1     1     2     0     0  2.145607902E+02 -1.714362002E+02 -7.830531434E+02  8.391805103E+02  1.250000000E+02  0.00000E+00  9.000E+00
      21     1     1     2   512   502  9.697898962E-01  9.132389282E+00  1.903088783E+00  9.378847123E+00  2.210199382E-07  0.00000E+00  9.000E+00
#rwgt            1           1   2.8706598237030805E-002           5      166982           0
</event>
<event>
      5   9999  3.33088E-02  1.15761E+02 -1.00000E+00  1.21035E-01
      21    -1     0     0   502   501  0.000000000E+00  0.000000000E+00  4.795875131E+02  4.795875131E+02  0.000000000E+00  0.00000E+00  9.000E+00
      21    -1     0     0   511   502  0.000000000E+00  0.000000000E+00 -1.832411138E+02  1.832411138E+02  0.000000000E+00  0.00000E+00  9.000E+00
      25     1     1     2     0     0 -1.663220245E+02 -6.227463634E+01 -1.430814160E+01  2.176484989E+02  1.250000000E+02  0.00000E+00  9.000E+00
      25     1     1     2     0     0  5.056203304E+01  6.182262293E+01  2.925559082E+02  3.280129804E+02  1.250000000E+02  0.00000E+00  9.000E+00
      21     1     1     2   511   501  1.157599915E+02  4.520134048E-01  1.809863273E+01  1.171671475E+02  2.556754421E-06  0.00000E+00  9.000E+00
#rwgt            1           1   3.0805681866929564E-002           5      167323           0
</event>
<event>
      5   9999  3.19816E-02  1.23398E+01 -1.00000E+00  1.85762E-01
       1    -1     0     0   502     0  0.000000000E+00  0.000000000E+00  2.475536113E+02  2.475536113E+02  0.000000000E+00  0.00000E+00  9.000E+00
      21    -1     0     0   501   502  0.000000000E+00  0.000000000E+00 -4.893690481E+02  4.893690481E+02  0.000000000E+00  0.00000E+00  9.000E+00
      25     1     1     2     0     0 -9.746509147E+01 -1.683817466E+02 -7.504646385E+01  2.431230725E+02  1.250000000E+02  0.00000E+00  9.000E+00
      25     1     1     2     0     0  9.299875336E+01  1.798848515E+02 -2.870612958E+02  3.728760055E+02  1.250000000E+02  0.00000E+00  9.000E+00
       1     1     1     2   501     0  4.466338111E+00 -1.150310497E+01  1.202923229E+02  1.209235814E+02  1.907348633E-06  0.00000E+00  9.000E+00
#rwgt            1           1   3.1525623577311729E-002           5      167383           0
</event>
<event>
      5   9999  3.19816E-02  1.02966E+02 -1.00000E+00  1.23260E-01
      21    -1     0     0   502   501  0.000000000E+00  0.000000000E+00  1.136177600E+03  1.136177600E+03  0.000000000E+00  0.00000E+00  9.000E+00
      -3    -1     0     0     0   502  0.000000000E+00  0.000000000E+00 -3.213359831E+02  3.213359831E+02  0.000000000E+00  0.00000E+00  9.000E+00
      25     1     1     2     0     0  1.644320194E+02  3.692278560E+02  5.772384244E+02  7.156789066E+02  1.250000000E+02  0.00000E+00  9.000E+00
      25     1     1     2     0     0 -1.967338305E+02 -2.714600613E+02  4.080501375E+02  5.427012803E+02  1.250000000E+02  0.00000E+00  9.000E+00
      -3     1     1     2     0   501  3.230181108E+01 -9.776779468E+01 -1.704469447E+02  1.991333966E+02  0.000000000E+00  0.00000E+00  9.000E+00
#rwgt            1           1   2.9148121659636938E-002           5      167530           0
</event>
<event>
      5   9999  3.19816E-02  1.27334E+01 -1.00000E+00  1.84359E-01
      21    -1     0     0   502   511  0.000000000E+00  0.000000000E+00  8.346498075E+01  8.346498075E+01  0.000000000E+00  0.00000E+00  9.000E+00
      21    -1     0     0   501   502  0.000000000E+00  0.000000000E+00 -8.288566664E+02  8.288566664E+02  0.000000000E+00  0.00000E+00  9.000E+00
      25     1     1     2     0     0 -9.349619150E+01  1.064336459E+02 -5.057019674E+02  5.398417719E+02  1.250000000E+02  0.00000E+00  9.000E+00
      25     1     1     2     0     0  8.165576846E+01 -1.017492378E+02 -2.783090681E+02  3.318154748E+02  1.250000000E+02  0.00000E+00  9.000E+00
      21     1     1     2   501   511  1.184042304E+01 -4.684408118E+00  3.861934978E+01  4.066440058E+01  6.743495762E-07  0.00000E+00  9.000E+00
#rwgt            1           1   3.2790909583732021E-002           5      167612           0
</event>
<event>
      5   9999  3.19816E-02  5.81534E+00 -1.00000E+00  2.27601E-01
      21    -1     0     0   512   501  0.000000000E+00  0.000000000E+00  7.923166765E+02  7.923166765E+02  0.000000000E+00  0.00000E+00  9.000E+00
      21    -1     0     0   501   502  0.000000000E+00  0.000000000E+00 -2.231826113E+02  2.231826113E+02  0.000000000E+00  0.00000E+00  9.000E+00
      25     1     1     2     0     0  9.762651789E+01  3.977285107E+01  7.524605060E+01  1.799994022E+02  1.250000000E+02  0.00000E+00  9.000E+00
      25     1     1     2     0     0 -9.902639982E+01 -4.541718621E+01 -1.305477056E+02  2.110370870E+02  1.250000000E+02  0.00000E+00  9.000E+00
      21     1     1     2   512   502  1.399881935E+00  5.644335141E+00  6.244357202E+02  6.244627986E+02  0.000000000E+00  0.00000E+00  9.000E+00
#rwgt            1           1   2.8122240385462221E-002           5      167783           0
</event>
<event>
      5   9999  3.19816E-02  1.48912E+01 -1.00000E+00  1.77682E-01
      21    -1     0     0   511   501  0.000000000E+00  0.000000000E+00  1.743457664E+02  1.743457664E+02  0.000000000E+00  0.00000E+00  9.000E+00
      21    -1     0     0   501   502  0.000000000E+00  0.000000000E+00 -3.193871831E+02  3.193871831E+02  0.000000000E+00  0.00000E+00  9.000E+00
      25     1     1     2     0     0  1.415008766E+02  8.062478085E+01 -1.620887232E+02  2.615733311E+02  1.250000000E+02  0.00000E+00  9.000E+00
      25     1     1     2     0     0 -1.562271683E+02 -8.283512543E+01  1.755541607E+01  2.172597035E+02  1.250000000E+02  0.00000E+00  9.000E+00
      21     1     1     2   511   502  1.472629171E+01  2.210344575E+00 -5.081094791E-01  1.489991496E+01  3.450672679E-07  0.00000E+00  9.000E+00
#rwgt            1           1   2.7630698926448018E-002           5      167963           0
</event>
<event>
      5   9999  3.19816E-02  6.14346E+02 -1.00000E+00  9.63757E-02
      21    -1     0     0   512   501  0.000000000E+00  0.000000000E+00  4.882170829E+02  4.882170829E+02  0.000000000E+00  0.00000E+00  9.000E+00
      21    -1     0     0   501   502  0.000000000E+00  0.000000000E+00 -1.096442536E+03  1.096442536E+03  0.000000000E+00  0.00000E+00  9.000E+00
      25     1     1     2     0     0  7.162491915E+01  2.288179198E+02 -4.771352059E+02  5.484257235E+02  1.250000000E+02  0.00000E+00  9.000E+00
      25     1     1     2     0     0  2.396633320E+02  3.008242934E+02 -1.197593976E+02  4.217832163E+02  1.250000000E+02  0.00000E+00  9.000E+00
      21     1     1     2   512   502 -3.112882511E+02 -5.296422133E+02 -1.133085002E+01  6.144506795E+02  6.783417101E-06  0.00000E+00  9.000E+00
#rwgt            2          11   3.1783611683081458E-003           5      168149           0
</event>
<event>
      5   9999  3.19816E-02  1.92473E+01 -1.00000E+00  1.67756E-01
      21    -1     0     0   502   511  0.000000000E+00  0.000000000E+00  9.944742394E+02  9.944742394E+02  0.000000000E+00  0.00000E+00  9.000E+00
      21    -1     0     0   501   502  0.000000000E+00  0.000000000E+00 -1.227648200E+02  1.227648200E+02  0.000000000E+00  0.00000E+00  9.000E+00
      25     1     1     2     0     0 -5.703990411E+01  1.818951060E+02  7.370775804E+01  2.395771564E+02  1.250000000E+02  0.00000E+00  9.000E+00
      25     1     1     2     0     0  7.578466312E+01 -1.775258175E+02  2.938239175E+02  3.731169060E+02  1.250000000E+02  0.00000E+00  9.000E+00
      21     1     1     2   501   511 -1.874475901E+01 -4.369288483E+00  5.041777438E+02  5.045449970E+02  0.000000000E+00  0.00000E+00  9.000E+00
#rwgt            1           1   3.2841651851564818E-002           5      168199           0
</event>
<event>
      5   9999  3.19816E-02  3.78630E+01 -1.00000E+00  1.46335E-01
      21    -1     0     0   512   501  0.000000000E+00  0.000000000E+00  3.410060980E+02  3.410060980E+02  0.000000000E+00  0.00000E+00  9.000E+00
      21    -1     0     0   501   502  0.000000000E+00  0.000000000E+00 -2.638027782E+02  2.638027782E+02  0.000000000E+00  0.00000E+00  9.000E+00
      25     1     1     2     0     0 -1.053208420E+00  1.317852796E+02  1.178911751E+02  2.165451415E+02  1.250000000E+02  0.00000E+00  9.000E+00
      25     1     1     2     0     0  6.587716623E-01 -9.392434219E+01 -1.831745565E+02  2.408321702E+02  1.250000000E+02  0.00000E+00  9.000E+00
      21     1     1     2   512   502  3.944367572E-01 -3.786093737E+01  1.424867012E+02  1.474315644E+02  1.907348633E-06  0.00000E+00  9.000E+00
#rwgt            1           1   2.5883579875213877E-002           5      168288           0
</event>
<event>
      5   9999  3.19816E-02  5.90034E+00 -1.00000E+00  2.26607E-01
      21    -1     0     0   502   501  0.000000000E+00  0.000000000E+00  1.486307821E+02  1.486307821E+02  0.000000000E+00  0.00000E+00  9.000E+00
      21    -1     0     0   501   511  0.000000000E+00  0.000000000E+00 -4.587236686E+02  4.587236686E+02  0.000000000E+00  0.00000E+00  9.000E+00
      25     1     1     2     0     0  1.315775811E+02 -8.622691174E+01 -1.661746250E+01  2.016156745E+02  1.250000000E+02  0.00000E+00  9.000E+00
      25     1     1     2     0     0 -1.365828211E+02  8.310256513E+01 -1.275265730E+02  2.396850646E+02  1.250000000E+02  0.00000E+00  9.000E+00
      21     1     1     2   502   511  5.005240038E+00  3.124346607E+00 -1.659488510E+02  1.660537115E+02  1.907348633E-06  0.00000E+00  9.000E+00
#rwgt            1           1   2.7716941657137315E-002           5      168458           0
</event>
<event>
      5   9999  3.19816E-02  4.84053E+00 -1.00000E+00  2.45366E-01
      21    -1     0     0   502   501  0.000000000E+00  0.000000000E+00  5.474925293E+01  5.474925293E+01  0.000000000E+00  0.00000E+00  9.000E+00
      21    -1     0     0   512   502  0.000000000E+00  0.000000000E+00 -4.972636108E+02  4.972636108E+02  0.000000000E+00  0.00000E+00  9.000E+00
      25     1     1     2     0     0  7.445291426E+01 -1.317865620E+01 -2.466067794E+02  2.866301049E+02  1.250000000E+02  0.00000E+00  9.000E+00
      25     1     1     2     0     0 -7.886453018E+01  1.517073037E+01 -1.245885273E+02  1.938996295E+02  1.250000000E+02  0.00000E+00  9.000E+00
      21     1     1     2   512   501  4.411615922E+00 -1.992074174E+00 -7.131905113E+01  7.148312926E+01  9.536743164E-07  0.00000E+00  9.000E+00
#rwgt            1           1   6.1384855256809798E-002           5      168756           0
</event>
<event>
      5   9999  3.19816E-02  4.34507E+01 -1.00000E+00  1.42646E-01
      21    -1     0     0   502   501  0.000000000E+00  0.000000000E+00  1.350018080E+03  1.350018080E+03  0.000000000E+00  0.00000E+00  9.000E+00
      21    -1     0     0   511   502  0.000000000E+00  0.000000000E+00 -2.369982299E+02  2.369982299E+02  0.000000000E+00  0.00000E+00  9.000E+00
      25     1     1     2     0     0 -2.841355702E+02  4.402780279E+02  4.532716333E+02  7.040297846E+02  1.250000000E+02  0.00000E+00  9.000E+00
      25     1     1     2     0     0  2.427610445E+02 -4.270072934E+02  6.682418019E+02  8.387134547E+02  1.250000000E+02  0.00000E+00  9.000E+00
      21     1     1     2   511   501  4.137452572E+01 -1.327073449E+01 -8.493585245E+00  4.427307040E+01  9.536743164E-07  0.00000E+00  9.000E+00
#rwgt            1           1   2.8643309953876091E-002           5      169004           0
</event>
<event>
      5   9999  3.19816E-02  5.10263E+01 -1.00000E+00  1.38574E-01
      21    -1     0     0   502   512  0.000000000E+00  0.000000000E+00  2.885947400E+02  2.885947400E+02  0.000000000E+00  0.00000E+00  9.000E+00
      21    -1     0     0   501   502  0.000000000E+00  0.000000000E+00 -9.814597312E+02  9.814597312E+02  0.000000000E+00  0.00000E+00  9.000E+00
      25     1     1     2     0     0  6.637869046E+01  3.301636743E+02 -2.022343841E+02  4.122352830E+02  1.250000000E+02  0.00000E+00  9.000E+00
      25     1     1     2     0     0 -1.148988861E+02 -3.143690185E+02 -6.217635091E+02  7.171084263E+02  1.250000000E+02  0.00000E+00  9.000E+00
      21     1     1     2   501   512  4.852019565E+01 -1.579465580E+01  1.311329020E+02  1.407107619E+02  2.697398305E-06  0.00000E+00  9.000E+00
#rwgt            1           1   2.8222001416410330E-002           5      169131           0
</event>
<event>
      5   9999  3.19816E-02  8.58113E+01 -1.00000E+00  1.26893E-01
      21    -1     0     0   502   501  0.000000000E+00  0.000000000E+00  4.252069754E+02  4.252069754E+02  0.000000000E+00  0.00000E+00  9.000E+00
      21    -1     0     0   501   511  0.000000000E+00  0.000000000E+00 -1.218377326E+03  1.218377326E+03  0.000000000E+00  0.00000E+00  9.000E+00
      25     1     1     2     0     0 -1.018957381E+02 -6.231675082E+02 -2.220238487E+02  6.809112087E+02  1.250000000E+02  0.00000E+00  9.000E+00
      25     1     1     2     0     0  2.461240133E+01  6.604617327E+02 -4.327126142E+02  7.998003984E+02  1.250000000E+02  0.00000E+00  9.000E+00
      21     1     1     2   502   511  7.728333672E+01 -3.729422452E+01 -1.384338874E+02  1.628726941E+02  2.697398305E-06  0.00000E+00  9.000E+00
#rwgt            1           1   2.9584146328956670E-002           5      169269           0
</event>
<event>
      5   9999  3.19816E-02  1.36440E+02 -1.00000E+00  1.18048E-01
      21    -1     0     0   502   501  0.000000000E+00  0.000000000E+00  3.995664651E+02  3.995664651E+02  0.000000000E+00  0.00000E+00  9.000E+00
       2    -1     0     0   501     0  0.000000000E+00  0.000000000E+00 -6.339943530E+02  6.339943530E+02  0.000000000E+00  0.00000E+00  9.000E+00
      25     1     1     2     0     0 -3.996741444E+02 -2.635373161E+02 -9.199594935E+01  5.032689076E+02  1.250000000E+02  0.00000E+00  9.000E+00
      25     1     1     2     0     0  2.682485452E+02  2.268866114E+02 -8.634322093E+01  3.827727370E+02  1.250000000E+02  0.00000E+00  9.000E+00
       2     1     1     2   502     0  1.314255992E+02  3.665070474E+01 -5.608871764E+01  1.475191735E+02  1.907348633E-06  0.00000E+00  9.000E+00
#rwgt            1           1   2.9484186136908851E-002           5      169365           0
</event>
<event>
      5   9999  3.19816E-02  3.06968E+02 -1.00000E+00  1.05269E-01
      21    -1     0     0   502   501  0.000000000E+00  0.000000000E+00  5.817175167E+02  5.817175167E+02  0.000000000E+00  0.00000E+00  9.000E+00
      21    -1     0     0   501   511  0.000000000E+00  0.000000000E+00 -6.396882775E+02  6.396882775E+02  0.000000000E+00  0.00000E+00  9.000E+00
      25     1     1     2     0     0 -2.370476401E+02  1.022147554E+02  4.028200903E+02  4.944981952E+02  1.250000000E+02  0.00000E+00  9.000E+00
      25     1     1     2     0     0  4.710944162E+01  1.389339968E+02 -2.571782360E+01  1.944437230E+02  1.250000000E+02  0.00000E+00  9.000E+00
      21     1     1     2   502   511  1.899381985E+02 -2.411487522E+02 -4.350730275E+02  5.324638759E+02  7.629394531E-06  0.00000E+00  9.000E+00
#rwgt            2          11   5.0150988071988737E-003           5      169491           0
</event>
<event>
      5   9999  3.19816E-02  1.56584E+02 -1.00000E+00  1.15659E-01
      21    -1     0     0   502   512  0.000000000E+00  0.000000000E+00  3.721864748E+02  3.721864748E+02  0.000000000E+00  0.00000E+00  9.000E+00
      21    -1     0     0   501   502  0.000000000E+00  0.000000000E+00 -5.202338870E+02  5.202338870E+02  0.000000000E+00  0.00000E+00  9.000E+00
      25     1     1     2     0     0 -1.993464724E+02  1.355982250E+02 -3.807699526E+02  4.676929029E+02  1.250000000E+02  0.00000E+00  9.000E+00
      25     1     1     2     0     0  1.370086191E+02  8.041801803E+00  6.864058580E+01  1.979205959E+02  1.250000000E+02  0.00000E+00  9.000E+00
      21     1     1     2   501   512  6.233785333E+01 -1.436400268E+02  1.640819545E+02  2.268068629E+02  3.303624740E-06  0.00000E+00  9.000E+00
#rwgt            2          11   3.2545419893746505E-003           5      169826           0
</event>
<event>
      5   9999  3.19816E-02  3.01919E+01 -1.00000E+00  1.52848E-01
      21    -1     0     0   502   501  0.000000000E+00  0.000000000E+00  1.537753659E+03  1.537753659E+03  0.000000000E+00  0.00000E+00  9.000E+00
      21    -1     0     0   501   511  0.000000000E+00  0.000000000E+00 -2.876109769E+01  2.876109769E+01  0.000000000E+00  0.00000E+00  9.000E+00
      25     1     1     2     0     0 -1.794565802E+01 -1.085152621E+02  4.025012450E+02  4.355799135E+02  1.250000000E+02  0.00000E+00  9.000E+00
      25     1     1     2     0     0 -6.541806771E+00  9.085423325E+01  1.079229377E+03  1.090256087E+03  1.250000000E+02  0.00000E+00  9.000E+00
      21     1     1     2   502   511  2.448746479E+01  1.766102887E+01  2.726193901E+01  4.067875601E+01  4.768371582E-07  0.00000E+00  9.000E+00
#rwgt            1           1   3.2504640644699739E-002           5      169846           0
</event>
<event>
      5   9999  3.80216E-02  3.62213E+01 -1.00000E+00  1.47565E-01
       2    -1     0     0   502     0  0.000000000E+00  0.000000000E+00  1.046138756E+03  1.046138756E+03  0.000000000E+00  0.00000E+00  9.000E+00
      21    -1     0     0   501   502  0.000000000E+00  0.000000000E+00 -1.288562404E+03  1.288562404E+03  0.000000000E+00  0.00000E+00  9.000E+00
      25     1     1     2     0     0 -2.883934509E+02 -1.087256753E+03 -2.945130495E+02  1.169470378E+03  1.250000000E+02  0.00000E+00  9.000E+00
      25     1     1     2     0     0  2.524850982E+02  1.092008049E+03  5.282299177E+01  1.129002025E+03  1.250000000E+02  0.00000E+00  9.000E+00
       2     1     1     2   501     0  3.590835269E+01 -4.751295865E+00 -7.335904858E-01  3.622875599E+01  8.449102940E-07  0.00000E+00  9.000E+00
#rwgt            1           1   8.9162164206130226E-002           5      169926           0
</event>
<event>
      5   9999  3.19816E-02  5.08184E+02 -1.00000E+00  9.86521E-02
      21    -1     0     0   502   501  0.000000000E+00  0.000000000E+00  2.167694628E+03  2.167694628E+03  0.000000000E+00  0.00000E+00  9.000E+00
      21    -1     0     0   501   511  0.000000000E+00  0.000000000E+00 -1.298234509E+03  1.298234509E+03  0.000000000E+00  0.00000E+00  9.000E+00
      25     1     1     2     0     0  4.001473607E+01  9.219648258E+02 -4.966564617E+02  1.055420750E+03  1.250000000E+02  0.00000E+00  9.000E+00
      25     1     1     2     0     0 -5.480688370E+02 -9.334452697E+02  1.528389177E+03  1.877045018E+03  1.250000000E+02  0.00000E+00  9.000E+00
      21     1     1     2   502   511  5.080541009E+02  1.148044384E+01 -1.622725973E+02  5.334633688E+02  9.910874219E-06  0.00000E+00  9.000E+00
#rwgt            2          11   9.8294603510966222E-003           5      170217           0
</event>
<event>
      5   9999  3.19816E-02  2.75889E+01 -1.00000E+00  1.55611E-01
      21    -1     0     0   512   501  0.000000000E+00  0.000000000E+00  8.350443222E+02  8.350443222E+02  0.000000000E+00  0.00000E+00  9.000E+00
      21    -1     0     0   501   502  0.000000000E+00  0.000000000E+00 -1.121028018E+02  1.121028018E+02  0.000000000E+00  0.00000E+00  9.000E+00
      25     1     1     2     0     0 -8.267142905E+01  2.041895522E+02  5.023060796E+02  5.625516296E+02  1.250000000E+02  0.00000E+00  9.000E+00
      25     1     1     2     0     0  7.433399467E+01 -1.778905697E+02  8.312821252E+01  2.443479021E+02  1.250000000E+02  0.00000E+00  9.000E+00
      21     1     1     2   512   502  8.337434385E+00 -2.629898250E+01  1.375072283E+02  1.402475922E+02  2.697398305E-06  0.00000E+00  9.000E+00
#rwgt            1           1   2.7587063014410603E-002           5      170237           0
</event>
<event>
      5   9999  3.19816E-02  7.35091E+01 -1.00000E+00  1.30154E-01
      21    -1     0     0   511   501  0.000000000E+00  0.000000000E+00  1.889701144E+03  1.889701144E+03  0.000000000E+00  0.00000E+00  9.000E+00
      21    -1     0     0   501   502  0.000000000E+00  0.000000000E+00 -5.987987156E+01  5.987987156E+01  0.000000000E+00  0.00000E+00  9.000E+00
      25     1     1     2     0     0 -1.686763888E+01 -1.467581603E+02  1.470304978E+02  2.430338292E+02  1.250000000E+02  0.00000E+00  9.000E+00
      25     1     1     2     0     0  8.623545937E+01  1.224334019E+02  1.431363679E+03  1.444594571E+03  1.250000000E+02  0.00000E+00  9.000E+00
      21     1     1     2   511   502 -6.936782049E+01  2.432475835E+01  2.514270955E+02  2.619526154E+02  2.697398305E-06  0.00000E+00  9.000E+00
#rwgt            1           1   3.6721876366168964E-002           5      170371           0
</event>
<event>
      5   9999  3.19816E-02  5.51294E+01 -1.00000E+00  1.36698E-01
      21    -1     0     0   502   501  0.000000000E+00  0.000000000E+00  3.579410690E+03  3.579410690E+03  0.000000000E+00  0.00000E+00  9.000E+00
      21    -1     0     0   501   512  0.000000000E+00  0.000000000E+00 -2.452455589E+01  2.452455589E+01  0.000000000E+00  0.00000E+00  9.000E+00
      25     1     1     2     0     0 -4.935981307E+01  1.342724851E+02  1.494683815E+03  1.506708398E+03  1.250000000E+02  0.00000E+00  9.000E+00
      25     1     1     2     0     0  8.959428551E+01 -9.658381996E+01  2.022036812E+03  2.030175716E+03  1.250000000E+02  0.00000E+00  9.000E+00
      21     1     1     2   502   512 -4.023447244E+01 -3.768866511E+01  3.816550741E+01  6.705113128E+01  2.654916936E-06  0.00000E+00  9.000E+00
#rwgt            1           1   1.0626491369325083E-002           5      170474           0
</event>
<event>
      5   9999  3.19816E-02  1.57072E+02 -1.00000E+00  1.15606E-01
      21    -1     0     0   502   501  0.000000000E+00  0.000000000E+00  1.427044457E+03  1.427044457E+03  0.000000000E+00  0.00000E+00  9.000E+00
      21    -1     0     0   501   511  0.000000000E+00  0.000000000E+00 -1.323543272E+02  1.323543272E+02  0.000000000E+00  0.00000E+00  9.000E+00
      25     1     1     2     0     0  2.033117689E+02 -1.172261965E+02  8.346710339E+02  8.760013649E+02  1.250000000E+02  0.00000E+00  9.000E+00
      25     1     1     2     0     0 -2.929778122E+02 -1.173750376E+01  4.083954664E+02  5.180594796E+02  1.250000000E+02  0.00000E+00  9.000E+00
      21     1     1     2   502   511  8.966604332E+01  1.289637002E+02  5.162363001E+01  1.653379402E+02  2.523185073E-06  0.00000E+00  9.000E+00
#rwgt            1           1   2.6813050860540359E-002           5      170556           0
</event>
<event>
      5   9999  3.19816E-02  2.76158E+02 -1.00000E+00  1.06774E-01
      21    -1     0     0   502   501  0.000000000E+00  0.000000000E+00  2.290100517E+02  2.290100517E+02  0.000000000E+00  0.00000E+00  9.000E+00
      21    -1     0     0   512   502  0.000000000E+00  0.000000000E+00 -1.008881570E+03  1.008881570E+03  0.000000000E+00  0.00000E+00  9.000E+00
      25     1     1     2     0     0 -5.512518511E+01 -1.922687265E+02  3.715091658E+01  2.387702658E+02  1.250000000E+02  0.00000E+00  9.000E+00
      25     1     1     2     0     0  2.659385649E+02  1.388466768E+01 -4.852109864E+02  5.674247137E+02  1.250000000E+02  0.00000E+00  9.000E+00
      21     1     1     2   512   501 -2.108133798E+02  1.783840588E+02 -3.318114484E+02  4.316966421E+02  6.607249480E-06  0.00000E+00  9.000E+00
#rwgt            1           1   2.7052834289532868E-002           5      170609           0
</event>
<event>
      5   9999  3.19816E-02  1.23274E+02 -1.00000E+00  1.19874E-01
      21    -1     0     0   502   501  0.000000000E+00  0.000000000E+00  3.019714628E+02  3.019714628E+02  0.000000000E+00  0.00000E+00  9.000E+00
       2    -1     0     0   501     0  0.000000000E+00  0.000000000E+00 -3.929765058E+02  3.929765058E+02  0.000000000E+00  0.00000E+00  9.000E+00
      25     1     1     2     0     0  2.182143013E+02 -1.569799368E+02 -1.323209970E+02  3.246444641E+02  1.250000000E+02  0.00000E+00  9.000E+00
      25     1     1     2     0     0 -9.497049441E+01  1.542428427E+02  8.999033207E+01  2.377677632E+02  1.250000000E+02  0.00000E+00  9.000E+00
       2     1     1     2   502     0 -1.232438069E+02  2.737094079E+00 -4.867437812E+01  1.325357412E+02  1.651812370E-06  0.00000E+00  9.000E+00
#rwgt            1           1   2.7934550384570798E-002           5      170668           0
</event>
<event>
      5   9999  3.19816E-02  1.71196E+02 -1.00000E+00  1.14163E-01
       2    -1     0     0   502     0  0.000000000E+00  0.000000000E+00  1.539846635E+03  1.539846635E+03  0.000000000E+00  0.00000E+00  9.000E+00
      21    -1     0     0   501   502  0.000000000E+00  0.000000000E+00 -1.099814885E+02  1.099814885E+02  0.000000000E+00  0.00000E+00  9.000E+00
      25     1     1     2     0     0  5.750702264E+01  2.134167714E+02  2.952908027E+02  3.894553044E+02  1.250000000E+02  0.00000E+00  9.000E+00
      25     1     1     2     0     0 -2.186960440E+02 -2.710899103E+02  6.723156390E+02  7.674314416E+02  1.250000000E+02  0.00000E+00  9.000E+00
       2     1     1     2   501     0  1.611890213E+02  5.767313888E+01  4.622587047E+02  4.929413775E+02  9.344061824E-06  0.00000E+00  9.000E+00
#rwgt            2          18   8.4711843316730617E-004           5      170803           0
</event>
<event>
      5   9999  3.19816E-02  5.56008E+01 -1.00000E+00  1.36495E-01
      21    -1     0     0   502   501  0.000000000E+00  0.000000000E+00  1.391979523E+02  1.391979523E+02  0.000000000E+00  0.00000E+00  9.000E+00
      21    -1     0     0   501   511  0.000000000E+00  0.000000000E+00 -1.522409958E+03  1.522409958E+03  0.000000000E+00  0.00000E+00  9.000E+00
      25     1     1     2     0     0 -2.495773323E+01  3.616797239E+02 -1.006757478E+03  1.077321090E+03  1.250000000E+02  0.00000E+00  9.000E+00
      25     1     1     2     0     0 -2.941881344E+01 -3.500760725E+02 -2.580228026E+02  4.534528529E+02  1.250000000E+02  0.00000E+00  9.000E+00
      21     1     1     2   502   511  5.437654667E+01 -1.160365148E+01 -1.184317251E+02  1.308339675E+02  1.907348633E-06  0.00000E+00  9.000E+00
#rwgt            1           1   2.7629120819785833E-002           5      170822           0
</event>
<event>
      5   9999  3.19816E-02  4.45037E+01 -1.00000E+00  1.42024E-01
      21    -1     0     0   502   501  0.000000000E+00  0.000000000E+00  7.545327180E+01  7.545327180E+01  0.000000000E+00  0.00000E+00  9.000E+00
      21    -1     0     0   512   502  0.000000000E+00  0.000000000E+00 -1.509640197E+03  1.509640197E+03  0.000000000E+00  0.00000E+00  9.000E+00
      25     1     1     2     0     0  1.668571884E+02  1.172808582E+02 -6.682241187E+02  7.097496699E+02  1.250000000E+02  0.00000E+00  9.000E+00
      25     1     1     2     0     0 -1.903044285E+02 -1.551068279E+02 -3.001789890E+02  4.074387427E+02  1.250000000E+02  0.00000E+00  9.000E+00
      21     1     1     2   512   501  2.344724009E+01  3.782596970E+01 -4.657838172E+02  4.679050560E+02  5.394796609E-06  0.00000E+00  9.000E+00
#rwgt            1           1   2.7852986890116230E-002           5      170972           0
</event>
<event>
      5   9999  3.19816E-02  1.69000E+02 -1.00000E+00  1.14377E-01
       1    -1     0     0   502     0  0.000000000E+00  0.000000000E+00  3.831024145E+03  3.831024145E+03  0.000000000E+00  0.00000E+00  9.000E+00
      21    -1     0     0   501   502  0.000000000E+00  0.000000000E+00 -2.061984098E+02  2.061984098E+02  0.000000000E+00  0.00000E+00  9.000E+00
      25     1     1     2     0     0  4.137820152E+02 -4.029824964E+01  1.675856279E+02  4.653487377E+02  1.250000000E+02  0.00000E+00  9.000E+00
      25     1     1     2     0     0 -3.574774245E+02 -1.190468929E+02  6.646522860E+02  7.741769391E+02  1.250000000E+02  0.00000E+00  9.000E+00
       1     1     1     2   501     0 -5.630459067E+01  1.593451425E+02  2.792587821E+03  2.797696878E+03  3.051757812E-05  0.00000E+00  9.000E+00
#rwgt            2          17   3.0095413326485811E-004           5      171026           0
</event>
<event>
      5   9999  3.19816E-02  3.62464E+01 -1.00000E+00  1.47545E-01
      21    -1     0     0   502   501  0.000000000E+00  0.000000000E+00  2.185548402E+03  2.185548402E+03  0.000000000E+00  0.00000E+00  9.000E+00
      21    -1     0     0   511   502  0.000000000E+00  0.000000000E+00 -1.935917218E+02  1.935917218E+02  0.000000000E+00  0.00000E+00  9.000E+00
      25     1     1     2     0     0 -1.622449346E+01 -1.180594025E+02  2.111402662E+03  2.118454026E+03  1.250000000E+02  0.00000E+00  9.000E+00
      25     1     1     2     0     0 -5.875676771E+00  1.467888703E+02 -1.139268840E+02  2.240219429E+02  1.250000000E+02  0.00000E+00  9.000E+00
      21     1     1     2   511   501  2.210017023E+01 -2.872946780E+01 -5.519097974E+00  3.666415534E+01  8.699011516E-07  0.00000E+00  9.000E+00
#rwgt            1           1   2.6398122239583804E-002           5      171060           0
</event>
<event>
      5   9999  3.19816E-02  1.39419E+02 -1.00000E+00  1.17667E-01
      21    -1     0     0   502   501  0.000000000E+00  0.000000000E+00  7.981672274E+02  7.981672274E+02  0.000000000E+00  0.00000E+00  9.000E+00
      21    -1     0     0   501   512  0.000000000E+00  0.000000000E+00 -6.084212663E+02  6.084212663E+02  0.000000000E+00  0.00000E+00  9.000E+00
      25     1     1     2     0     0  5.416184278E+02  2.130998491E+02  2.205357582E+02  6.348409940E+02  1.250000000E+02  0.00000E+00  9.000E+00
      25     1     1     2     0     0 -5.096391081E+02 -3.488019466E+02 -4.444765384E+01  6.316608365E+02  1.250000000E+02  0.00000E+00  9.000E+00
      21     1     1     2   502   512 -3.197931969E+01  1.357020975E+02  1.365785676E+01  1.400866632E+02  1.727506727E-06  0.00000E+00  9.000E+00
#rwgt            2          11   6.9583995768506017E-003           5      171303           0
</event>
<event>
      5   9999  3.19816E-02  1.86160E+02 -1.00000E+00  1.12794E-01
      21    -1     0     0   502   501  0.000000000E+00  0.000000000E+00  1.443194331E+03  1.443194331E+03  0.000000000E+00  0.00000E+00  9.000E+00
      21    -1     0     0   501   511  0.000000000E+00  0.000000000E+00 -5.150320141E+02  5.150320141E+02  0.000000000E+00  0.00000E+00  9.000E+00
      25     1     1     2     0     0 -3.708035909E+02  3.984972323E+02  5.032827468E+02  7.518070699E+02  1.250000000E+02  0.00000E+00  9.000E+00
      25     1     1     2     0     0  5.567494204E+02 -4.074226602E+02  6.205744344E+02  9.363230051E+02  1.250000000E+02  0.00000E+00  9.000E+00
      21     1     1     2   502   511 -1.859458295E+02  8.925427942E+00 -1.956948648E+02  2.700962697E+02  4.672030912E-06  0.00000E+00  9.000E+00
#rwgt            1           1   2.1885568942891825E-002           5      171338           0
</event>
<event>
      5   9999  3.19816E-02  6.52117E+01 -1.00000E+00  1.32798E-01
      21    -1     0     0   502   512  0.000000000E+00  0.000000000E+00  4.271614258E+02  4.271614258E+02  0.000000000E+00  0.00000E+00  9.000E+00
      21    -1     0     0   501   502  0.000000000E+00  0.000000000E+00 -4.101724360E+02  4.101724360E+02  0.000000000E+00  0.00000E+00  9.000E+00
      25     1     1     2     0     0  2.846048258E+02  2.239537371E+02 -1.135357101E+02  3.995879636E+02  1.250000000E+02  0.00000E+00  9.000E+00
      25     1     1     2     0     0 -2.217920454E+02 -2.414786269E+02  1.241974680E+02  3.722279540E+02  1.250000000E+02  0.00000E+00  9.000E+00
      21     1     1     2   501   512 -6.281278033E+01  1.752488981E+01  6.327231949E+00  6.551794410E+01  1.082772143E-06  0.00000E+00  9.000E+00
#rwgt            1           1   2.6538881287046193E-002           5      171406           0
</event>
<event>
      5   9999  3.19816E-02  1.25281E+01 -1.00000E+00  1.85083E-01
      21    -1     0     0   502   501  0.000000000E+00  0.000000000E+00  7.110756915E+02  7.110756915E+02  0.000000000E+00  0.00000E+00  9.000E+00
       1    -1     0     0   501     0  0.000000000E+00  0.000000000E+00 -6.798364824E+02  6.798364824E+02  0.000000000E+00  0.00000E+00  9.000E+00
      25     1     1     2     0     0 -1.231911786E+01 -3.273467005E+02  2.657506331E+02  4.399500221E+02  1.250000000E+02  0.00000E+00  9.000E+00
      25     1     1     2     0     0  4.325168413E-01  3.233893169E+02  2.742403724E+02  4.420561267E+02  1.250000000E+02  0.00000E+00  9.000E+00
       1     1     1     2   502     0  1.188660102E+01  3.957383608E+00 -5.087517963E+02  5.089060251E+02  5.394796609E-06  0.00000E+00  9.000E+00
#rwgt            1           1   2.9132026407194121E-002           5      171480           0
</event>
<event>
      5   9999  3.19816E-02  1.99433E+01 -1.00000E+00  1.66471E-01
      21    -1     0     0   511   501  0.000000000E+00  0.000000000E+00  7.505270685E+02  7.505270685E+02  0.000000000E+00  0.00000E+00  9.000E+00
      21    -1     0     0   501   502  0.000000000E+00  0.000000000E+00 -1.826617044E+02  1.826617044E+02  0.000000000E+00  0.00000E+00  9.000E+00
      25     1     1     2     0     0 -4.737170872E+01  4.707253180E+00 -1.474077371E+02  1.990484313E+02  1.250000000E+02  0.00000E+00  9.000E+00
      25     1     1     2     0     0  5.095437274E+01  1.491163696E+01  6.816536817E+02  6.950506793E+02  1.250000000E+02  0.00000E+00  9.000E+00
      21     1     1     2   511   502 -3.582664017E+00 -1.961889014E+01  3.361941962E+01  3.908966240E+01  4.768371582E-07  0.00000E+00  9.000E+00
#rwgt            1           1   2.8136821140011838E-002           5      171587           0
</event>
<event>
      5   9999  3.19816E-02  8.83958E+01 -1.00000E+00  1.26286E-01
      21    -1     0     0   502   512  0.000000000E+00  0.000000000E+00  1.172260854E+02  1.172260854E+02  0.000000000E+00  0.00000E+00  9.000E+00
      21    -1     0     0   501   502  0.000000000E+00  0.000000000E+00 -7.747949161E+02  7.747949161E+02  0.000000000E+00  0.00000E+00  9.000E+00
      25     1     1     2     0     0  2.187507754E+01 -1.838285976E+02 -2.041516829E+02  3.026125938E+02  1.250000000E+02  0.00000E+00  9.000E+00
      25     1     1     2     0     0  1.509667789E+01  1.035360061E+02 -4.717601756E+02  4.991295198E+02  1.250000000E+02  0.00000E+00  9.000E+00
      21     1     1     2   501   512 -3.697175542E+01  8.029259141E+01  1.834302771E+01  9.027888790E+01  1.668930054E-06  0.00000E+00  9.000E+00
#rwgt            1           1   2.8622437284992953E-002           5      171737           0
</event>
<event>
      5   9999  3.19816E-02  3.11175E+02 -1.00000E+00  1.05078E-01
      21    -1     0     0   502   501  0.000000000E+00  0.000000000E+00  2.374038281E+02  2.374038281E+02  0.000000000E+00  0.00000E+00  9.000E+00
       1    -1     0     0   501     0  0.000000000E+00  0.000000000E+00 -3.571954927E+03  3.571954927E+03  0.000000000E+00  0.00000E+00  9.000E+00
      25     1     1     2     0     0 -5.396068767E+00 -4.718771492E+02 -4.672016416E+02  6.757214924E+02  1.250000000E+02  0.00000E+00  9.000E+00
      25     1     1     2     0     0 -2.951862937E+01  7.810872291E+02 -1.200444620E+03  1.437936332E+03  1.250000000E+02  0.00000E+00  9.000E+00
       1     1     1     2   502     0  3.491469814E+01 -3.092100799E+02 -1.666904837E+03  1.695700931E+03  0.000000000E+00  0.00000E+00  9.000E+00
#rwgt            2          12   3.3213016425555586E-004           5      171856           0
</event>
<event>
      5   9999  3.19816E-02  4.30280E+01 -1.00000E+00  1.42902E-01
      21    -1     0     0   511   501  0.000000000E+00  0.000000000E+00  2.185060219E+03  2.185060219E+03  0.000000000E+00  0.00000E+00  9.000E+00
      21    -1     0     0   501   502  0.000000000E+00  0.000000000E+00 -1.083850850E+02  1.083850850E+02  0.000000000E+00  0.00000E+00  9.000E+00
      25     1     1     2     0     0  2.037041641E+01 -3.060230437E+02  1.472561537E+03  1.509346726E+03  1.250000000E+02  0.00000E+00  9.000E+00
      25     1     1     2     0     0 -6.200976867E+00  2.653950552E+02  1.529640126E+02  3.309017627E+02  1.250000000E+02  0.00000E+00  9.000E+00
      21     1     1     2   511   502 -1.416943954E+01  4.062798858E+01  4.511495837E+02  4.531968152E+02  9.344061824E-06  0.00000E+00  9.000E+00
#rwgt            2          11   1.4200043314646399E-003           5      172025           0
</event>
<event>
      5   9999  3.19816E-02  3.78474E+01 -1.00000E+00  1.46346E-01
       3    -1     0     0   502     0  0.000000000E+00  0.000000000E+00  1.385401929E+02  1.385401929E+02  0.000000000E+00  0.00000E+00  9.000E+00
      21    -1     0     0   501   502  0.000000000E+00  0.000000000E+00 -3.445037705E+03  3.445037705E+03  0.000000000E+00  0.00000E+00  9.000E+00
      25     1     1     2     0     0  1.273232200E+02 -2.555150474E+02 -2.820569981E+03  2.837734864E+03  1.250000000E+02  0.00000E+00  9.000E+00
      25     1     1     2     0     0 -9.393770030E+01  2.733428404E+02 -5.713647940E+02  6.523981359E+02  1.250000000E+02  0.00000E+00  9.000E+00
       3     1     1     2   501     0 -3.338551969E+01 -1.782779301E+01  8.543726258E+01  9.344489802E+01  4.768371582E-06  0.00000E+00  9.000E+00
#rwgt            1           1   2.1541614538488216E-002           5      172060           0
</event>
<event>
      5   9999  3.19816E-02  8.39167E+01 -1.00000E+00  1.27353E-01
       1    -1     0     0   502     0  0.000000000E+00  0.000000000E+00  1.370578407E+03  1.370578407E+03  0.000000000E+00  0.00000E+00  9.000E+00
      21    -1     0     0   501   502  0.000000000E+00  0.000000000E+00 -8.058655875E+02  8.058655875E+02  0.000000000E+00  0.00000E+00  9.000E+00
      25     1     1     2     0     0  3.777692724E+02  9.214590224E+01 -3.158783057E+02  5.163376748E+02  1.250000000E+02  0.00000E+00  9.000E+00
      25     1     1     2     0     0 -4.333476516E+02 -1.550192399E+02 -2.417129338E+02  5.346693317E+02  1.250000000E+02  0.00000E+00  9.000E+00
       1     1     1     2   501     0  5.557837928E+01  6.287333762E+01  1.122304059E+03  1.125436988E+03  2.157918644E-05  0.00000E+00  9.000E+00
#rwgt            1           1   3.1942178013399873E-002           5      172147           0
</event>
<event>
      5   9999  3.19816E-02  2.88196E+01 -1.00000E+00  1.54261E-01
      21    -1     0     0   502   511  0.000000000E+00  0.000000000E+00  4.654420976E+02  4.654420976E+02  0.000000000E+00  0.00000E+00  9.000E+00
      21    -1     0     0   501   502  0.000000000E+00  0.000000000E+00 -2.615118850E+02  2.615118850E+02  0.000000000E+00  0.00000E+00  9.000E+00
      25     1     1     2     0     0 -2.957681777E+02  1.288879207E+02  6.960854153E+01  3.529323732E+02  1.250000000E+02  0.00000E+00  9.000E+00
      25     1     1     2     0     0  2.674703540E+02 -1.234288250E+02  1.192384729E+02  3.414935995E+02  1.250000000E+02  0.00000E+00  9.000E+00
      21     1     1     2   501   511  2.829782370E+01 -5.459095738E+00  1.508319816E+01  3.252800977E+01  4.129530925E-07  0.00000E+00  9.000E+00
#rwgt            1           1   3.3117654732669186E-002           5      172220           0
</event>
<event>
      5   9999  3.19816E-02  1.13474E+02 -1.00000E+00  1.21408E-01
      21    -1     0     0   502   501  0.000000000E+00  0.000000000E+00  6.766591707E+02  6.766591707E+02  0.000000000E+00  0.00000E+00  9.000E+00
      21    -1     0     0   501   512  0.000000000E+00  0.000000000E+00 -3.365669413E+02  3.365669413E+02  0.000000000E+00  0.00000E+00  9.000E+00
      25     1     1     2     0     0 -1.412232898E+02  3.094020388E+02  5.619402261E+01  3.666829794E+02  1.250000000E+02  0.00000E+00  9.000E+00
      25     1     1     2     0     0  3.097064145E+01 -2.825556408E+02  3.849619940E+02  4.945883213E+02  1.250000000E+02  0.00000E+00  9.000E+00
      21     1     1     2   502   512  1.102526484E+02 -2.684639804E+01 -1.010637872E+02  1.519548112E+02  0.000000000E+00  0.00000E+00  9.000E+00
#rwgt            1           1   2.8741354585511913E-002           5      172371           0
</event>
<event>
      5   9999  3.19816E-02  1.51721E+02 -1.00000E+00  1.16198E-01
      -1    -1     0     0     0   501  0.000000000E+00  0.000000000E+00  1.813905599E+03  1.813905599E+03  0.000000000E+00  0.00000E+00  9.000E+00
      21    -1     0     0   501   502  0.000000000E+00  0.000000000E+00 -8.863551852E+02  8.863551852E+02  0.000000000E+00  0.00000E+00  9.000E+00
      25     1     1     2     0     0 -9.974061694E+01  3.033439636E+02 -7.767618967E+02  8.490876251E+02  1.250000000E+02  0.00000E+00  9.000E+00
      25     1     1     2     0     0 -3.284103256E+01 -3.771103474E+02  5.102544120E+02  6.475147200E+02  1.250000000E+02  0.00000E+00  9.000E+00
      -1     1     1     2     0   502  1.325816495E+02  7.376638383E+01  1.194057898E+03  1.203658439E+03  0.000000000E+00  0.00000E+00  9.000E+00
#rwgt            1           1   3.6289152019254992E-002           5      172427           0
</event>
<event>
      5   9999  3.19816E-02  1.00375E+02 -1.00000E+00  1.23755E-01
      21    -1     0     0   502   501  0.000000000E+00  0.000000000E+00  3.543537559E+02  3.543537559E+02  0.000000000E+00  0.00000E+00  9.000E+00
      21    -1     0     0   501   511  0.000000000E+00  0.000000000E+00 -2.562596139E+03  2.562596139E+03  0.000000000E+00  0.00000E+00  9.000E+00
      25     1     1     2     0     0  3.621650705E+02 -2.980631635E+02  9.706728343E+01  4.950275197E+02  1.250000000E+02  0.00000E+00  9.000E+00
      25     1     1     2     0     0 -3.947030461E+02  3.930180479E+02 -1.412594212E+03  1.523581664E+03  1.250000000E+02  0.00000E+00  9.000E+00
      21     1     1     2   502   511  3.253797555E+01 -9.495488438E+01 -8.927154545E+02  8.983407108E+02  1.078959322E-05  0.00000E+00  9.000E+00
#rwgt            2          11   1.3356924681648243E-003           5      172481           0
</event>
<event>
      5   9999  3.19816E-02  5.68959E+01 -1.00000E+00  1.35948E-01
      21    -1     0     0   502   512  0.000000000E+00  0.000000000E+00  1.114659200E+02  1.114659200E+02  0.000000000E+00  0.00000E+00  9.000E+00
      21    -1     0     0   501   502  0.000000000E+00  0.000000000E+00 -4.008895513E+02  4.008895513E+02  0.000000000E+00  0.00000E+00  9.000E+00
      25     1     1     2     0     0  8.082155377E+01  8.070752643E+01 -6.844005862E+01  1.826331569E+02  1.250000000E+02  0.00000E+00  9.000E+00
      25     1     1     2     0     0 -4.608341328E+01 -1.257675222E+02 -1.937123340E+02  2.666282411E+02  1.250000000E+02  0.00000E+00  9.000E+00
      21     1     1     2   501   512 -3.473814049E+01  4.505999578E+01 -2.727123869E+01  6.309407329E+01  5.840038640E-07  0.00000E+00  9.000E+00
#rwgt            2          11   2.3203869840282298E-003           5      172501           0
</event>
<event>
      5   9999  3.19816E-02  9.59545E+01 -1.00000E+00  1.24640E-01
       2    -1     0     0   502     0  0.000000000E+00  0.000000000E+00  3.000192387E+03  3.000192387E+03  0.000000000E+00  0.00000E+00  9.000E+00
      21    -1     0     0   501   502  0.000000000E+00  0.000000000E+00 -2.404818548E+02  2.404818548E+02  0.000000000E+00  0.00000E+00  9.000E+00
      25     1     1     2     0     0 -4.871250505E+02 -2.555229074E+02  7.769656289E+02  9.601475717E+02  1.250000000E+02  0.00000E+00  9.000E+00
      25     1     1     2     0     0  5.475659045E+02  1.809966604E+02  4.432063042E+02  7.380007039E+02  1.250000000E+02  0.00000E+00  9.000E+00
       2     1     1     2   501     0 -6.044085403E+01  7.452624702E+01  1.539538599E+03  1.542525966E+03  0.000000000E+00  0.00000E+00  9.000E+00
#rwgt            1           1   2.9440088895926472E-002           5      172521           0
</event>
<event>
      5   9999  3.19816E-02  9.71477E+02 -1.00000E+00  9.12939E-02
      21    -1     0     0   511   501  0.000000000E+00  0.000000000E+00  2.147222649E+03  2.147222649E+03  0.000000000E+00  0.00000E+00  9.000E+00
      21    -1     0     0   501   502  0.000000000E+00  0.000000000E+00 -5.996477076E+02  5.996477076E+02  0.000000000E+00  0.00000E+00  9.000E+00
      25     1     1     2     0     0 -4.395055319E+02 -7.215425081E+02  1.139596271E+02  8.616266594E+02  1.250000000E+02  0.00000E+00  9.000E+00
      25     1     1     2     0     0  1.038224419E+02 -1.900953752E+02  3.462591151E+02  4.271249535E+02  1.250000000E+02  0.00000E+00  9.000E+00
      21     1     1     2   511   502  3.356830900E+02  9.116378833E+02  1.087356199E+03  1.458118744E+03  2.157918644E-05  0.00000E+00  9.000E+00
#rwgt            2          11   7.8339123155026251E-004           5      172727           0
</event>
<event>
      5   9999  3.19816E-02  3.87265E+01 -1.00000E+00  1.45717E-01
      21    -1     0     0   502   501  0.000000000E+00  0.000000000E+00  7.415427761E+01  7.415427761E+01  0.000000000E+00  0.00000E+00  9.000E+00
      21    -1     0     0   512   502  0.000000000E+00  0.000000000E+00 -8.552135129E+02  8.552135129E+02  0.000000000E+00  0.00000E+00  9.000E+00
      25     1     1     2     0     0  1.135400322E+02 -1.409445905E+02 -2.277996344E+02  3.166613174E+02  1.250000000E+02  0.00000E+00  9.000E+00
      25     1     1     2     0     0 -7.494590173E+01  1.441442079E+02 -3.484957212E+02  4.043126372E+02  1.250000000E+02  0.00000E+00  9.000E+00
      21     1     1     2   512   501 -3.859413042E+01 -3.199617413E+00 -2.047638796E+02  2.083938359E+02  0.000000000E+00  0.00000E+00  9.000E+00
#rwgt            1           1   2.6126602932076849E-002           5      172792           0
</event>
<event>
      5   9999  3.19816E-02  6.97345E+01 -1.00000E+00  1.31304E-01
       2    -1     0     0   502     0  0.000000000E+00  0.000000000E+00  1.243389666E+03  1.243389666E+03  0.000000000E+00  0.00000E+00  9.000E+00
      21    -1     0     0   501   502  0.000000000E+00  0.000000000E+00 -4.865385622E+02  4.865385622E+02  0.000000000E+00  0.00000E+00  9.000E+00
      25     1     1     2     0     0  4.088881660E+02  2.587435635E+02 -2.566633213E+02  5.618174298E+02  1.250000000E+02  0.00000E+00  9.000E+00
      25     1     1     2     0     0 -3.430922247E+02 -2.818475625E+02  6.444854135E+02  7.925508005E+02  1.250000000E+02  0.00000E+00  9.000E+00
       2     1     1     2   501     0 -6.579594132E+01  2.310399900E+01  3.690290112E+02  3.755599976E+02  5.394796609E-06  0.00000E+00  9.000E+00
#rwgt            1           1   3.3973296692172479E-002           5      172895           0
</event>
<event>
      5   9999  3.19816E-02  8.10172E+01 -1.00000E+00  1.28084E-01
      21    -1     0     0   502   511  0.000000000E+00  0.000000000E+00  5.696463549E+02  5.696463549E+02  0.000000000E+00  0.00000E+00  9.000E+00
      21    -1     0     0   501   502  0.000000000E+00  0.000000000E+00 -1.330820099E+02  1.330820099E+02  0.000000000E+00  0.00000E+00  9.000E+00
      25     1     1     2     0     0 -3.643740533E+01  1.134516017E+02  1.960545111E+02  2.612686773E+02  1.250000000E+02  0.00000E+00  9.000E+00
      25     1     1     2     0     0  1.171582728E+02 -1.203741830E+02  2.456658410E+01  2.108186943E+02  1.250000000E+02  0.00000E+00  9.000E+00
      21     1     1     2   501   511 -8.072086746E+01  6.922581218E+00  2.159432499E+02  2.306409932E+02  2.697398305E-06  0.00000E+00  9.000E+00
#rwgt            1           1   3.0326564506437365E-002           5      173048           0
</event>
<event>
      5   9999  3.19816E-02  3.86882E+01 -1.00000E+00  1.45744E-01
      21    -1     0     0   502   512  0.000000000E+00  0.000000000E+00  2.983131004E+03  2.983131004E+03  0.000000000E+00  0.00000E+00  9.000E+00
      21    -1     0     0   501   502  0.000000000E+00  0.000000000E+00 -1.271715799E+03  1.271715799E+03  0.000000000E+00  0.00000E+00  9.000E+00
      25     1     1     2     0     0  7.197336855E+02 -1.136872853E+03  4.203476292E+02  1.415207967E+03  1.250000000E+02  0.00000E+00  9.000E+00
      25     1     1     2     0     0 -7.078361523E+02  1.173686289E+03 -1.622299004E+02  1.385826491E+03  1.250000000E+02  0.00000E+00  9.000E+00
      21     1     1     2   501   512 -1.189753321E+01 -3.681343618E+01  1.453297476E+03  1.453812345E+03  3.051757812E-05  0.00000E+00  9.000E+00
#rwgt            1           1   4.8177799603764990E-002           5      173109           0
</event>
<event>
      5   9999  3.19816E-02  5.87318E+01 -1.00000E+00  1.35201E-01
      21    -1     0     0   502   501  0.000000000E+00  0.000000000E+00  2.614768106E+03  2.614768106E+03  0.000000000E+00  0.00000E+00  9.000E+00
      21    -1     0     0   511   502  0.000000000E+00  0.000000000E+00 -1.967491257E+02  1.967491257E+02  0.000000000E+00  0.00000E+00  9.000E+00
      25     1     1     2     0     0  3.054192280E+02  4.058510223E+02  8.860651318E+02  1.028947217E+03  1.250000000E+02  0.00000E+00  9.000E+00
      25     1     1     2     0     0 -3.634650390E+02 -4.148015281E+02  1.597453820E+03  1.694594597E+03  1.250000000E+02  0.00000E+00  9.000E+00
      21     1     1     2   511   501  5.804581097E+01  8.950505850E+00 -6.549997188E+01  8.797541726E+01  2.132480600E-06  0.00000E+00  9.000E+00
#rwgt            1           1   7.8009813572616812E-002           5      173354           0
</event>
<event>
      5   9999  3.19816E-02  1.86938E+02 -1.00000E+00  1.12726E-01
      21    -1     0     0   502   501  0.000000000E+00  0.000000000E+00  2.538796252E+02  2.538796252E+02  0.000000000E+00  0.00000E+00  9.000E+00
      21    -1     0     0   512   502  0.000000000E+00  0.000000000E+00 -9.510540112E+02  9.510540112E+02  0.000000000E+00  0.00000E+00  9.000E+00
      25     1     1     2     0     0  1.464821870E+02  2.450054721E+02  1.013743623E+02  3.276987546E+02  1.250000000E+02  0.00000E+00  9.000E+00
      25     1     1     2     0     0 -7.099100704E+00 -1.204331559E+02 -4.358361122E+02  4.691829696E+02  1.250000000E+02  0.00000E+00  9.000E+00
      21     1     1     2   512   501 -1.393830863E+02 -1.245723162E+02 -3.627126360E+02  4.080519122E+02  7.629394531E-06  0.00000E+00  9.000E+00
#rwgt            1           1   2.6019603996673971E-002           5      173488           0
</event>
<event>
      5   9999  3.19816E-02  1.03565E+02 -1.00000E+00  1.23148E-01
       4    -1     0     0   502     0  0.000000000E+00  0.000000000E+00  2.210048435E+01  2.210048435E+01  0.000000000E+00  0.00000E+00  9.000E+00
      21    -1     0     0   501   502  0.000000000E+00  0.000000000E+00 -3.970760153E+03  3.970760153E+03  0.000000000E+00  0.00000E+00  9.000E+00
      25     1     1     2     0     0  9.345309727E+01  1.777598036E+02 -2.686710797E+03  2.697104361E+03  1.250000000E+02  0.00000E+00  9.000E+00
      25     1     1     2     0     0 -1.100641517E+02 -7.553588947E+01 -9.377955594E+02  9.554607785E+02  1.250000000E+02  0.00000E+00  9.000E+00
       4     1     1     2   501     0  1.661105442E+01 -1.022239142E+02 -3.241533119E+02  3.402954971E+02  8.529922400E-06  0.00000E+00  9.000E+00
#rwgt            1           1   1.0882467261539193E-002           5      173551           0
</event>
<event>
      5   9999  3.19816E-02  4.53386E+01 -1.00000E+00  1.41545E-01
      21    -1     0     0   502   511  0.000000000E+00  0.000000000E+00  1.876000153E+02  1.876000153E+02  0.000000000E+00  0.00000E+00  9.000E+00
      21    -1     0     0   501   502  0.000000000E+00  0.000000000E+00 -7.654910692E+02  7.654910692E+02  0.000000000E+00  0.00000E+00  9.000E+00
      25     1     1     2     0     0  1.025804390E+02  1.437480870E+02 -6.607436287E+02  6.952649868E+02  1.250000000E+02  0.00000E+00  9.000E+00
      25     1     1     2     0     0 -5.734048238E+01 -1.407593794E+02  5.392157299E+01  2.040433039E+02  1.250000000E+02  0.00000E+00  9.000E+00
      21     1     1     2   501   511 -4.523995659E+01 -2.988707545E+00  2.893100190E+01  5.378279387E+01  9.536743164E-07  0.00000E+00  9.000E+00
#rwgt            1           1   2.6549412130226727E-002           5      173609           0
</event>
<event>
      5   9999  3.19816E-02  4.20400E+01 -1.00000E+00  1.43513E-01
      21    -1     0     0   512   501  0.000000000E+00  0.000000000E+00  9.191517428E+02  9.191517428E+02  0.000000000E+00  0.00000E+00  9.000E+00
      21    -1     0     0   501   502  0.000000000E+00  0.000000000E+00 -3.060428773E+02  3.060428773E+02  0.000000000E+00  0.00000E+00  9.000E+00
      25     1     1     2     0     0 -2.575564900E+02 -1.361712319E+02  5.868599853E+02  6.670139371E+02  1.250000000E+02  0.00000E+00  9.000E+00
      25     1     1     2     0     0  2.155569776E+02  1.380161972E+02 -1.870537387E+02  3.407746799E+02  1.250000000E+02  0.00000E+00  9.000E+00
      21     1     1     2   512   502  4.199951240E+01 -1.844965347E+00  2.133026189E+02  2.174060031E+02  2.697398305E-06  0.00000E+00  9.000E+00
#rwgt            1           1   2.9008348185347400E-002           5      173742           0
</event>
<event>
      5   9999  3.19816E-02  2.23794E+01 -1.00000E+00  1.62439E-01
      21    -1     0     0   511   501  0.000000000E+00  0.000000000E+00  2.148986495E+02  2.148986495E+02  0.000000000E+00  0.00000E+00  9.000E+00
      21    -1     0     0   501   502  0.000000000E+00  0.000000000E+00 -4.479331122E+02  4.479331122E+02  0.000000000E+00  0.00000E+00  9.000E+00
      25     1     1     2     0     0  1.281690717E+02 -1.802296658E+01 -3.125393833E+02  3.606355562E+02  1.250000000E+02  0.00000E+00  9.000E+00
      25     1     1     2     0     0 -1.101990232E+02  3.136138568E+01 -4.521040970E+01  1.754888668E+02  1.250000000E+02  0.00000E+00  9.000E+00
      21     1     1     2   511   502 -1.797004854E+01 -1.333841910E+01  1.247153303E+02  1.267073387E+02  1.348699152E-06  0.00000E+00  9.000E+00
#rwgt            1           1   2.6342037453319714E-002           5      173974           0
</event>
<event>
      5   9999  3.19816E-02  5.78115E+01 -1.00000E+00  1.35571E-01
      21    -1     0     0   512   501  0.000000000E+00  0.000000000E+00  7.856819685E+02  7.856819685E+02  0.000000000E+00  0.00000E+00  9.000E+00
      21    -1     0     0   501   502  0.000000000E+00  0.000000000E+00 -2.903969132E+02  2.903969132E+02  0.000000000E+00  0.00000E+00  9.000E+00
      25     1     1     2     0     0  8.695194511E+01  2.271444796E+02 -1.249127326E+02  3.006383977E+02  1.250000000E+02  0.00000E+00  9.000E+00
      25     1     1     2     0     0 -1.447132370E+02 -2.247349518E+02  2.124230018E+02  3.635880240E+02  1.250000000E+02  0.00000E+00  9.000E+00
      21     1     1     2   512   502  5.776129188E+01 -2.409527843E+00  4.077747861E+02  4.118524601E+02  5.394796609E-06  0.00000E+00  9.000E+00
#rwgt            1           1   2.4036200218042564E-002           5      174090           0
</event>
<event>
      5   9999  3.19816E-02  4.28218E+01 -1.00000E+00  1.43028E-01
      21    -1     0     0   502   501  0.000000000E+00  0.000000000E+00  4.166372900E+02  4.166372900E+02  0.000000000E+00  0.00000E+00  9.000E+00
      21    -1     0     0   511   502  0.000000000E+00  0.000000000E+00 -2.603372273E+02  2.603372273E+02  0.000000000E+00  0.00000E+00  9.000E+00
      25     1     1     2     0     0 -3.442268182E+01  2.187940100E+02 -9.414687477E+01  2.711906596E+02  1.250000000E+02  0.00000E+00  9.000E+00
      25     1     1     2     0     0 -6.427152596E+00 -2.316390471E+02  2.498305441E+02  3.629576520E+02  1.250000000E+02  0.00000E+00  9.000E+00
      21     1     1     2   511   501  4.084983441E+01  1.284503710E+01  6.163934099E-01  4.282620565E+01  7.595208250E-07  0.00000E+00  9.000E+00
#rwgt            1           1   2.7149867334185677E-002           5      174240           0
</event>
<event>
      5   9999  3.19816E-02  3.78818E+01 -1.00000E+00  1.46321E-01
       2    -1     0     0   502     0  0.000000000E+00  0.000000000E+00  2.914049316E+03  2.914049316E+03  0.000000000E+00  0.00000E+00  9.000E+00
      21    -1     0     0   501   502  0.000000000E+00  0.000000000E+00 -1.045732502E+03  1.045732502E+03  0.000000000E+00  0.00000E+00  9.000E+00
      25     1     1     2     0     0  5.797613114E+02 -9.527770000E+01 -5.540502993E+02  8.171889332E+02  1.250000000E+02  0.00000E+00  9.000E+00
      25     1     1     2     0     0 -5.924132150E+02  5.957113775E+01 -1.029172627E+02  6.170243924E+02  1.250000000E+02  0.00000E+00  9.000E+00
       2     1     1     2   501     0  1.265190360E+01  3.570656225E+01  2.525284376E+03  2.525568492E+03  4.315837288E-05  0.00000E+00  9.000E+00
#rwgt            1           1   3.0701655771663582E-002           5      174340           0
</event>
<event>
      5   9999  3.19816E-02  4.60391E+01 -1.00000E+00  1.41152E-01
      21    -1     0     0   502   511  0.000000000E+00  0.000000000E+00  4.178461676E+02  4.178461676E+02  0.000000000E+00  0.00000E+00  9.000E+00
      21    -1     0     0   501   502  0.000000000E+00  0.000000000E+00 -2.789759178E+02  2.789759178E+02  0.000000000E+00  0.00000E+00  9.000E+00
      25     1     1     2     0     0  1.916713614E+02  1.378061769E+02 -5.219814057E+01  2.721729212E+02  1.250000000E+02  0.00000E+00  9.000E+00
      25     1     1     2     0     0 -2.285306702E+02 -1.653923041E+02  1.030335513E+02  3.253026194E+02  1.250000000E+02  0.00000E+00  9.000E+00
      21     1     1     2   501   511  3.685930879E+01  2.758612724E+01  8.803483906E+01  9.934654473E+01  9.536743164E-07  0.00000E+00  9.000E+00
#rwgt            1           1   2.6182976060644934E-002           5      174509           0
</event>
<event>
      5   9999  3.19816E-02  1.10588E+02 -1.00000E+00  1.21894E-01
       2    -1     0     0   502     0  0.000000000E+00  0.000000000E+00  2.463574610E+03  2.463574610E+03  0.000000000E+00  0.00000E+00  9.000E+00
      21    -1     0     0   501   502  0.000000000E+00  0.000000000E+00 -1.494811311E+02  1.494811311E+02  0.000000000E+00  0.00000E+00  9.000E+00
      25     1     1     2     0     0 -2.202056473E+02 -2.853294983E+02  3.990231710E+02  5.520397999E+02  1.250000000E+02  0.00000E+00  9.000E+00
      25     1     1     2     0     0  2.969084377E+02  3.649932527E+02  7.724736963E+02  9.130801204E+02  1.250000000E+02  0.00000E+00  9.000E+00
       2     1     1     2   501     0 -7.670279038E+01 -7.966375437E+01  1.142596612E+03  1.147935821E+03  2.157918644E-05  0.00000E+00  9.000E+00
#rwgt            1           1   2.3586599261624968E-002           5      174581           0
</event>
<event>
      5   9999  3.19816E-02  3.35775E+01 -1.00000E+00  1.49717E-01
      21    -1     0     0   502   501  0.000000000E+00  0.000000000E+00  3.705231107E+02  3.705231107E+02  0.000000000E+00  0.00000E+00  9.000E+00
      21    -1     0     0   501   511  0.000000000E+00  0.000000000E+00 -7.800491460E+02  7.800491460E+02  0.000000000E+00  0.00000E+00  9.000E+00
      25     1     1     2     0     0 -2.429985251E+02  4.479218385E+02 -3.150123878E+02  6.119967819E+02  1.250000000E+02  0.00000E+00  9.000E+00
      25     1     1     2     0     0  2.257940220E+02 -4.190869101E+02 -7.029519065E+01  4.971752130E+02  1.250000000E+02  0.00000E+00  9.000E+00
      21     1     1     2   502   511  1.720450312E+01 -2.883492843E+01 -2.421845691E+01  4.140026184E+01  7.539457465E-07  0.00000E+00  9.000E+00
#rwgt            1           1   3.2621351722761115E-002           5      174634           0
</event>
<event>
      5   9999  3.19816E-02  1.72098E+02 -1.00000E+00  1.14076E-01
      21    -1     0     0   502   501  0.000000000E+00  0.000000000E+00  1.004820711E+03  1.004820711E+03  0.000000000E+00  0.00000E+00  9.000E+00
       2    -1     0     0   501     0  0.000000000E+00  0.000000000E+00 -2.014253379E+03  2.014253379E+03  0.000000000E+00  0.00000E+00  9.000E+00
      25     1     1     2     0     0  2.119509364E+02  4.054031279E+02  8.334827145E+02  9.589542904E+02  1.250000000E+02  0.00000E+00  9.000E+00
      25     1     1     2     0     0 -4.510288598E+01 -4.475860933E+02 -4.236356343E+02  6.304440752E+02  1.250000000E+02  0.00000E+00  9.000E+00
       2     1     1     2   502     0 -1.668480505E+02  4.218296541E+01 -1.419279748E+03  1.429675724E+03  2.642899792E-05  0.00000E+00  9.000E+00
#rwgt            1           1   3.0684635502970441E-002           5      174756           0
</event>
<event>
      5   9999  3.19816E-02  5.85970E+01 -1.00000E+00  1.35255E-01
      21    -1     0     0   511   501  0.000000000E+00  0.000000000E+00  1.869583016E+03  1.869583016E+03  0.000000000E+00  0.00000E+00  9.000E+00
      21    -1     0     0   501   502  0.000000000E+00  0.000000000E+00 -1.220115564E+02  1.220115564E+02  0.000000000E+00  0.00000E+00  9.000E+00
      25     1     1     2     0     0 -9.572837228E+01  2.180784621E+02  7.931545703E+01  2.804248181E+02  1.250000000E+02  0.00000E+00  9.000E+00
      25     1     1     2     0     0  1.362224098E+02 -2.604322294E+02  1.477067492E+03  1.511203119E+03  1.250000000E+02  0.00000E+00  9.000E+00
      21     1     1     2   511   502 -4.049403753E+01  4.235376734E+01  1.911885101E+02  1.999666349E+02  2.697398305E-06  0.00000E+00  9.000E+00
#rwgt            1           1   3.0677310331661985E-002           5      174856           0
</event>
<event>
      5   9999  3.19816E-02  1.07494E+02 -1.00000E+00  1.22433E-01
      21    -1     0     0   502   512  0.000000000E+00  0.000000000E+00  5.452272854E+02  5.452272854E+02  0.000000000E+00  0.00000E+00  9.000E+00
      21    -1     0     0   501   502  0.000000000E+00  0.000000000E+00 -1.685522590E+03  1.685522590E+03  0.000000000E+00  0.00000E+00  9.000E+00
      25     1     1     2     0     0  1.919624505E+02  3.154589877E+02 -1.580722180E+03  1.628088316E+03  1.250000000E+02  0.00000E+00  9.000E+00
      25     1     1     2     0     0 -1.140471859E+02 -2.414043284E+02  3.743111076E+02  4.764626068E+02  1.250000000E+02  0.00000E+00  9.000E+00
      21     1     1     2   501   512 -7.791526459E+01 -7.405465926E+01  6.611576723E+01  1.261989528E+02  9.536743164E-07  0.00000E+00  9.000E+00
#rwgt            2          11   7.0237515857048240E-003           5      175004           0
</event>
<event>
      5   9999  3.19816E-02  5.66089E+01 -1.00000E+00  1.36068E-01
      21    -1     0     0   502   501  0.000000000E+00  0.000000000E+00  3.120842204E+02  3.120842204E+02  0.000000000E+00  0.00000E+00  9.000E+00
      21    -1     0     0   501   511  0.000000000E+00  0.000000000E+00 -3.999279073E+02  3.999279073E+02  0.000000000E+00  0.00000E+00  9.000E+00
      25     1     1     2     0     0  3.451754172E+01 -2.338252620E+02  1.256870656E+02  2.954453456E+02  1.250000000E+02  0.00000E+00  9.000E+00
      25     1     1     2     0     0 -1.106855674E+01  1.823013674E+02 -2.858998535E+01  2.231561982E+02  1.250000000E+02  0.00000E+00  9.000E+00
      21     1     1     2   502   511 -2.344898498E+01  5.152389452E+01 -1.849407672E+02  1.934105839E+02  2.697398305E-06  0.00000E+00  9.000E+00
#rwgt            1           1   2.8567043792097589E-002           5      175039           0
</event>
<event>
      5   9999  3.19816E-02  1.70127E+01 -1.00000E+00  1.72382E-01
      21    -1     0     0   502   501  0.000000000E+00  0.000000000E+00  1.658541613E+02  1.658541613E+02  0.000000000E+00  0.00000E+00  9.000E+00
      21    -1     0     0   512   502  0.000000000E+00  0.000000000E+00 -1.261342463E+03  1.261342463E+03  0.000000000E+00  0.00000E+00  9.000E+00
      25     1     1     2     0     0  1.271158803E+01 -1.276823221E+02  1.059696301E+02  2.081319830E+02  1.250000000E+02  0.00000E+00  9.000E+00
      25     1     1     2     0     0 -2.889205776E+01  1.329382771E+02 -1.002562663E+03  1.019443098E+03  1.250000000E+02  0.00000E+00  9.000E+00
      21     1     1     2   512   501  1.618046973E+01 -5.255955072E+00 -1.988952687E+02  1.996215434E+02  2.697398305E-06  0.00000E+00  9.000E+00
#rwgt            1           1   2.9866053620508377E-002           5      175127           0
</event>
<event>
      5   9999  3.19816E-02  3.53384E+01 -1.00000E+00  1.48259E-01
      21    -1     0     0   502   501  0.000000000E+00  0.000000000E+00  3.323814776E+02  3.323814776E+02  0.000000000E+00  0.00000E+00  9.000E+00
      21    -1     0     0   501   511  0.000000000E+00  0.000000000E+00 -9.917385933E+02  9.917385933E+02  0.000000000E+00  0.00000E+00  9.000E+00
      25     1     1     2     0     0 -5.008964122E+02 -1.728964647E+02 -2.973201676E+02  6.203343335E+02  1.250000000E+02  0.00000E+00  9.000E+00
      25     1     1     2     0     0  5.287377706E+02  1.511327634E+02 -3.183408435E+02  6.475883221E+02  1.250000000E+02  0.00000E+00  9.000E+00
      21     1     1     2   502   511 -2.784135842E+01  2.176370127E+01 -4.369610462E+01  5.619741534E+01  4.768371582E-07  0.00000E+00  9.000E+00
#rwgt            1           1   3.0543508263833251E-002           5      175381           0
</event>
<event>
      5   9999  3.19816E-02  4.28746E+01 -1.00000E+00  1.42995E-01
      21    -1     0     0   512   501  0.000000000E+00  0.000000000E+00  2.393616406E+02  2.393616406E+02  0.000000000E+00  0.00000E+00  9.000E+00
      21    -1     0     0   501   502  0.000000000E+00  0.000000000E+00 -9.239203041E+02  9.239203041E+02  0.000000000E+00  0.00000E+00  9.000E+00
      25     1     1     2     0     0 -1.076221085E+02 -1.655101291E+02 -8.252925403E+02  8.577347481E+02  1.250000000E+02  0.00000E+00  9.000E+00
      25     1     1     2     0     0  1.145909241E+02  1.232056710E+02  6.664738195E+01  2.199490641E+02  1.250000000E+02  0.00000E+00  9.000E+00
      21     1     1     2   512   502 -6.968815609E+00  4.230445811E+01  7.408649491E+01  8.559813254E+01  1.348699152E-06  0.00000E+00  9.000E+00
#rwgt            1           1   2.8441245586122130E-002           5      175562           0
</event>
<event>
      5   9999  3.19816E-02  1.48002E+02 -1.00000E+00  1.16625E-01
      21    -1     0     0   502   501  0.000000000E+00  0.000000000E+00  5.038955902E+02  5.038955902E+02  0.000000000E+00  0.00000E+00  9.000E+00
      21    -1     0     0   501   511  0.000000000E+00  0.000000000E+00 -1.112108263E+03  1.112108263E+03  0.000000000E+00  0.00000E+00  9.000E+00
      25     1     1     2     0     0  4.454888861E+02  3.438349606E+02 -2.922105170E+02  6.462931332E+02  1.250000000E+02  0.00000E+00  9.000E+00
      25     1     1     2     0     0 -3.003602731E+02 -3.148127179E+02  1.530336251E+02  4.778782600E+02  1.250000000E+02  0.00000E+00  9.000E+00
      21     1     1     2   502   511 -1.451286130E+02 -2.902224270E+01 -4.690357804E+02  4.918324595E+02  5.394796609E-06  0.00000E+00  9.000E+00
#rwgt            1           1   2.9210615819344643E-002           5      175651           0
</event>
<event>
      5   9999  3.19816E-02  1.03633E+03 -1.00000E+00  9.06207E-02
      21    -1     0     0   502   501  0.000000000E+00  0.000000000E+00  1.918476712E+03  1.918476712E+03  0.000000000E+00  0.00000E+00  9.000E+00
       1    -1     0     0   501     0  0.000000000E+00  0.000000000E+00 -1.812185775E+03  1.812185775E+03  0.000000000E+00  0.00000E+00  9.000E+00
      25     1     1     2     0     0  7.712101697E-01  1.660621337E+02  9.406521865E+02  9.633424952E+02  1.250000000E+02  0.00000E+00  9.000E+00
      25     1     1     2     0     0  8.433493529E+02  4.351408609E+02  4.983064720E+02  1.079129297E+03  1.250000000E+02  0.00000E+00  9.000E+00
       1     1     1     2   502     0 -8.441205631E+02 -6.012029946E+02 -1.332667721E+03  1.688190695E+03  1.525878906E-05  0.00000E+00  9.000E+00
#rwgt            1           1   2.9424925051775921E-002           5      175739           0
</event>
<event>
      5   9999  3.19816E-02  2.18457E+01 -1.00000E+00  1.63267E-01
      21    -1     0     0   502   511  0.000000000E+00  0.000000000E+00  7.510191406E+02  7.510191406E+02  0.000000000E+00  0.00000E+00  9.000E+00
      21    -1     0     0   501   502  0.000000000E+00  0.000000000E+00 -1.115062792E+03  1.115062792E+03  0.000000000E+00  0.00000E+00  9.000E+00
      25     1     1     2     0     0  3.237335740E+02 -1.959588227E+02  6.288003517E+02  7.444583061E+02  1.250000000E+02  0.00000E+00  9.000E+00
      25     1     1     2     0     0 -3.253892349E+02  2.177416869E+02 -1.012186768E+03  1.092445262E+03  1.250000000E+02  0.00000E+00  9.000E+00
      21     1     1     2   501   511  1.655660919E+00 -2.178286418E+01  1.934276535E+01  2.917836453E+01  5.331201500E-07  0.00000E+00  9.000E+00
#rwgt            1           1   1.9161974247518331E-002           5      175768           0
</event>
<event>
      5   9999  3.19816E-02  6.70586E+01 -1.00000E+00  1.32172E-01
      21    -1     0     0   502   501  0.000000000E+00  0.000000000E+00  5.316770377E+01  5.316770377E+01  0.000000000E+00  0.00000E+00  9.000E+00
      21    -1     0     0   512   502  0.000000000E+00  0.000000000E+00 -1.520642595E+03  1.520642595E+03  0.000000000E+00  0.00000E+00  9.000E+00
      25     1     1     2     0     0  5.734557441E+01  3.286967253E+01 -1.270144214E+02  1.900699700E+02  1.250000000E+02  0.00000E+00  9.000E+00
      25     1     1     2     0     0 -1.161203272E+02 -5.836751765E-01 -3.340499288E+02  3.750981551E+02  1.250000000E+02  0.00000E+00  9.000E+00
      21     1     1     2   512   501  5.877475275E+01 -3.228599735E+01 -1.006410541E+03  1.008642173E+03  0.000000000E+00  0.00000E+00  9.000E+00
#rwgt            1           1   2.1341067460538165E-002           5      175906           0
</event>
<event>
      5   9999  3.19816E-02  4.94622E+01 -1.00000E+00  1.39344E-01
      21    -1     0     0   502   501  0.000000000E+00  0.000000000E+00  3.494472944E+02  3.494472944E+02  0.000000000E+00  0.00000E+00  9.000E+00
       2    -1     0     0   501     0  0.000000000E+00  0.000000000E+00 -4.743569951E+02  4.743569951E+02  0.000000000E+00  0.00000E+00  9.000E+00
      25     1     1     2     0     0  2.357773386E+02 -1.745765973E+02  1.707415016E+02  3.617258660E+02  1.250000000E+02  0.00000E+00  9.000E+00
      25     1     1     2     0     0 -1.863259433E+02  1.756118382E+02 -2.983450387E+02  4.125428911E+02  1.250000000E+02  0.00000E+00  9.000E+00
       2     1     1     2   502     0 -4.945139528E+01 -1.035240893E+00  2.693836376E+00  4.953553244E+01  8.539288510E-07  0.00000E+00  9.000E+00
#rwgt            1           1   2.8148222870509471E-002           5      175976           0
</event>
<event>
      5   9999  3.19816E-02  3.36511E+01 -1.00000E+00  1.49654E-01
      21    -1     0     0   502   511  0.000000000E+00  0.000000000E+00  2.632111161E+03  2.632111161E+03  0.000000000E+00  0.00000E+00  9.000E+00
      21    -1     0     0   501   502  0.000000000E+00  0.000000000E+00 -6.367089323E+01  6.367089323E+01  0.000000000E+00  0.00000E+00  9.000E+00
      25     1     1     2     0     0  3.278792792E+02 -1.257256454E+02  9.979419346E+02  1.065281589E+03  1.250000000E+02  0.00000E+00  9.000E+00
      25     1     1     2     0     0 -3.594401002E+02  1.374009146E+02  1.448278335E+03  1.503732468E+03  1.250000000E+02  0.00000E+00  9.000E+00
      21     1     1     2   501   511  3.156082096E+01 -1.167526924E+01  1.222199979E+02  1.267679977E+02  1.348699152E-06  0.00000E+00  9.000E+00
#rwgt            1           1   7.0183449254405908E-002           5      176093           0
</event>
<event>
      5   9999  3.19816E-02  6.21213E+01 -1.00000E+00  1.33902E-01
      21    -1     0     0   502   501  0.000000000E+00  0.000000000E+00  1.058244633E+03  1.058244633E+03  0.000000000E+00  0.00000E+00  9.000E+00
      21    -1     0     0   512   502  0.000000000E+00  0.000000000E+00 -8.239984903E+01  8.239984903E+01  0.000000000E+00  0.00000E+00  9.000E+00
      25     1     1     2     0     0  2.050718805E+02 -2.450308343E+01  6.547030749E+02  6.977936612E+02  1.250000000E+02  0.00000E+00  9.000E+00
      25     1     1     2     0     0 -1.901121481E+02  8.479624766E+01  2.558614676E+02  3.527366200E+02  1.250000000E+02  0.00000E+00  9.000E+00
      21     1     1     2   512   501 -1.495973244E+01 -6.029316423E+01  6.528024097E+01  9.011420037E+01  0.000000000E+00  0.00000E+00  9.000E+00
#rwgt            1           1   2.6394487365250782E-002           5      176214           0
</event>
<event>
      5   9999  3.19816E-02  4.74404E+01 -1.00000E+00  1.40390E-01
      21    -1     0     0   511   501  0.000000000E+00  0.000000000E+00  2.027219119E+02  2.027219119E+02  0.000000000E+00  0.00000E+00  9.000E+00
      21    -1     0     0   501   502  0.000000000E+00  0.000000000E+00 -2.967568369E+02  2.967568369E+02  0.000000000E+00  0.00000E+00  9.000E+00
      25     1     1     2     0     0 -1.366247950E+02  6.934419276E+01 -1.319830982E+02  2.377382803E+02  1.250000000E+02  0.00000E+00  9.000E+00
      25     1     1     2     0     0  1.136539469E+02 -2.783601802E+01 -3.496168274E+01  1.747552082E+02  1.250000000E+02  0.00000E+00  9.000E+00
      21     1     1     2   511   502  2.297084816E+01 -4.150817474E+01  7.290985593E+01  8.698526040E+01  9.536743164E-07  0.00000E+00  9.000E+00
#rwgt            1           1   2.7713927726832319E-002           5      176256           0
</event>
<event>
      5   9999  3.19816E-02  5.56444E+01 -1.00000E+00  1.36476E-01
      21    -1     0     0   502   501  0.000000000E+00  0.000000000E+00  1.486662150E+03  1.486662150E+03  0.000000000E+00  0.00000E+00  9.000E+00
      21    -1     0     0   501   512  0.000000000E+00  0.000000000E+00 -3.892279344E+02  3.892279344E+02  0.000000000E+00  0.00000E+00  9.000E+00
      25     1     1     2     0     0 -3.901186673E+02 -6.143465661E+02  7.653628731E+02  1.063494055E+03  1.250000000E+02  0.00000E+00  9.000E+00
      25     1     1     2     0     0  3.488958825E+02  5.769703408E+02  3.092870316E+02  7.522676245E+02  1.250000000E+02  0.00000E+00  9.000E+00
      21     1     1     2   502   512  4.122278484E+01  3.737622535E+01  2.278431068E+01  6.012840448E+01  6.743495762E-07  0.00000E+00  9.000E+00
#rwgt            1           1   2.9938032129830813E-002           5      176329           0
</event>
<event>
      5   9999  3.19816E-02  2.10298E+01 -1.00000E+00  1.64590E-01
      21    -1     0     0   502   501  0.000000000E+00  0.000000000E+00  3.411891882E+02  3.411891882E+02  0.000000000E+00  0.00000E+00  9.000E+00
      21    -1     0     0   511   502  0.000000000E+00  0.000000000E+00 -1.252405764E+03  1.252405764E+03  0.000000000E+00  0.00000E+00  9.000E+00
      25     1     1     2     0     0 -2.179661243E+02 -2.174099725E+02  1.173406837E+02  3.523778704E+02  1.250000000E+02  0.00000E+00  9.000E+00
      25     1     1     2     0     0  2.072798654E+02  1.992976982E+02 -1.252014530E+02  3.376165264E+02  1.250000000E+02  0.00000E+00  9.000E+00
      21     1     1     2   511   501  1.068625892E+01  1.811227435E+01 -9.033558068E+02  9.036005558E+02  1.868812365E-05  0.00000E+00  9.000E+00
#rwgt            1           1   2.7335465077790343E-002           5      176452           0
</event>
<event>
      5   9999  3.19816E-02  2.79616E+01 -1.00000E+00  1.55193E-01
      21    -1     0     0   502   501  0.000000000E+00  0.000000000E+00  5.132038484E+02  5.132038484E+02  0.000000000E+00  0.00000E+00  9.000E+00
      21    -1     0     0   512   502  0.000000000E+00  0.000000000E+00 -5.999535211E+02  5.999535211E+02  0.000000000E+00  0.00000E+00  9.000E+00
      25     1     1     2     0     0 -1.303974996E+02 -2.726978950E+02  4.015766030E+02  5.179347622E+02  1.250000000E+02  0.00000E+00  9.000E+00
      25     1     1     2     0     0  1.031222914E+02  2.665404344E+02 -4.559515497E+02  5.524444097E+02  1.250000000E+02  0.00000E+00  9.000E+00
      21     1     1     2   512   501  2.727520820E+01  6.157460623E+00 -3.237472598E+01  4.277819755E+01  6.743495762E-07  0.00000E+00  9.000E+00
#rwgt            1           1   2.3795136550255214E-002           5      176550           0
</event>
<event>
      5   9999  3.19816E-02  1.69960E+01 -1.00000E+00  1.72420E-01
       1    -1     0     0   502     0  0.000000000E+00  0.000000000E+00  1.098770881E+03  1.098770881E+03  0.000000000E+00  0.00000E+00  9.000E+00
      21    -1     0     0   501   502  0.000000000E+00  0.000000000E+00 -6.397716296E+01  6.397716296E+01  0.000000000E+00  0.00000E+00  9.000E+00
      25     1     1     2     0     0  4.773895421E+00 -7.995254708E+01  9.676747820E+02  9.789967741E+02  1.250000000E+02  0.00000E+00  9.000E+00
      25     1     1     2     0     0  9.236088511E+00  8.957458661E+01  6.036832969E+01  1.654637336E+02  1.250000000E+02  0.00000E+00  9.000E+00
       1     1     1     2   501     0 -1.400998393E+01 -9.622039538E+00  6.750606138E+00  1.828753613E+01  0.000000000E+00  0.00000E+00  9.000E+00
#rwgt            1           1   3.8898077874595836E-002           5      176702           0
</event>
<event>
      5   9999  3.19816E-02  2.24839E+01 -1.00000E+00  1.62281E-01
      21    -1     0     0   502   511  0.000000000E+00  0.000000000E+00  5.090513008E+02  5.090513008E+02  0.000000000E+00  0.00000E+00  9.000E+00
      21    -1     0     0   501   502  0.000000000E+00  0.000000000E+00 -2.955067959E+02  2.955067959E+02  0.000000000E+00  0.00000E+00  9.000E+00
      25     1     1     2     0     0 -9.534457318E+01 -2.503348322E+01 -8.663952994E+01  1.812420235E+02  1.250000000E+02  0.00000E+00  9.000E+00
      25     1     1     2     0     0  1.170176230E+02  1.904982106E+01 -1.152483719E+02  2.072756787E+02  1.250000000E+02  0.00000E+00  9.000E+00
      21     1     1     2   501   511 -2.167304977E+01  5.983662156E+00  4.154324068E+02  4.160403945E+02  5.394796609E-06  0.00000E+00  9.000E+00
#rwgt            1           1   2.4329125268130074E-002           5      176817           0
</event>
<event>
      5   9999  3.19816E-02  2.82718E+02 -1.00000E+00  1.06436E-01
      -3    -1     0     0     0   501  0.000000000E+00  0.000000000E+00  1.274780237E+03  1.274780237E+03  0.000000000E+00  0.00000E+00  9.000E+00
      21    -1     0     0   501   502  0.000000000E+00  0.000000000E+00 -2.198428236E+02  2.198428236E+02  0.000000000E+00  0.00000E+00  9.000E+00
      25     1     1     2     0     0 -3.158660049E+02 -2.067377882E+02  8.301586504E+02  9.204891259E+02  1.250000000E+02  0.00000E+00  9.000E+00
      25     1     1     2     0     0  6.948909190E+01  6.807257967E+01 -6.323599655E+01  1.705473578E+02  1.250000000E+02  0.00000E+00  9.000E+00
      -3     1     1     2     0   502  2.463769130E+02  1.386652086E+02  2.880147596E+02  4.035865769E+02  3.814697266E-06  0.00000E+00  9.000E+00
#rwgt            2           3   2.4936035753804895E-005           5      177000           0
</event>
<event>
      5   9999  3.19816E-02  8.19853E+01 -1.00000E+00  1.27836E-01
      21    -1     0     0   502   501  0.000000000E+00  0.000000000E+00  1.459305116E+02  1.459305116E+02  0.000000000E+00  0.00000E+00  9.000E+00
      -1    -1     0     0     0   502  0.000000000E+00  0.000000000E+00 -1.355975684E+03  1.355975684E+03  0.000000000E+00  0.00000E+00  9.000E+00
      25     1     1     2     0     0  1.832183351E+02 -3.047612936E+01 -1.558067834E+02  2.727608963E+02  1.250000000E+02  0.00000E+00  9.000E+00
      25     1     1     2     0     0 -1.800270576E+02 -5.144708200E+01 -6.197465428E+01  2.335003244E+02  1.250000000E+02  0.00000E+00  9.000E+00
      -1     1     1     2     0   501 -3.191277498E+00  8.192321136E+01 -9.922637345E+02  9.956449747E+02  1.525878906E-05  0.00000E+00  9.000E+00
#rwgt            1           1   2.7526906487195586E-002           5      177019           0
</event>
<event>
      5   9999  3.19816E-02  1.34034E+01 -1.00000E+00  1.82115E-01
      21    -1     0     0   502   501  0.000000000E+00  0.000000000E+00  3.732145884E+01  3.732145884E+01  0.000000000E+00  0.00000E+00  9.000E+00
      21    -1     0     0   511   502  0.000000000E+00  0.000000000E+00 -1.723539408E+03  1.723539408E+03  0.000000000E+00  0.00000E+00  9.000E+00
      25     1     1     2     0     0 -7.516023315E+00  1.775650668E+02 -1.106200052E+03  1.127337305E+03  1.250000000E+02  0.00000E+00  9.000E+00
      25     1     1     2     0     0  1.675393961E+01 -1.872765176E+02 -4.565375897E+02  5.093179354E+02  1.250000000E+02  0.00000E+00  9.000E+00
      21     1     1     2   511   501 -9.237916299E+00  9.711450832E+00 -1.234803069E+02  1.242056262E+02  1.348699152E-06  0.00000E+00  9.000E+00
#rwgt            1           1   3.3710838259834314E-002           5      177101           0
</event>
<event>
      5   9999  3.19816E-02  2.57221E+01 -1.00000E+00  1.57830E-01
      21    -1     0     0   502   512  0.000000000E+00  0.000000000E+00  2.625140933E+02  2.625140933E+02  0.000000000E+00  0.00000E+00  9.000E+00
      21    -1     0     0   501   502  0.000000000E+00  0.000000000E+00 -2.712153071E+02  2.712153071E+02  0.000000000E+00  0.00000E+00  9.000E+00
      25     1     1     2     0     0 -1.401513114E+01  2.095538331E+02  3.969560703E+01  2.476085097E+02  1.250000000E+02  0.00000E+00  9.000E+00
      25     1     1     2     0     0  3.905859311E+01 -2.036842255E+02 -7.050019446E+01  2.522064925E+02  1.250000000E+02  0.00000E+00  9.000E+00
      21     1     1     2   501   512 -2.504346196E+01 -5.869607611E+00  2.210337363E+01  3.391439822E+01  3.371747881E-07  0.00000E+00  9.000E+00
#rwgt            1           1   3.0552532990354132E-002           5      177258           0
</event>
<event>
      5   9999  3.19816E-02  8.80347E+01 -1.00000E+00  1.26369E-01
      21    -1     0     0   502   501  0.000000000E+00  0.000000000E+00  1.160918821E+02  1.160918821E+02  0.000000000E+00  0.00000E+00  9.000E+00
      21    -1     0     0   511   502  0.000000000E+00  0.000000000E+00 -1.744786880E+03  1.744786880E+03  0.000000000E+00  0.00000E+00  9.000E+00
      25     1     1     2     0     0 -3.537045055E+02 -1.048209654E+02 -3.628407767E+02  5.323276634E+02  1.250000000E+02  0.00000E+00  9.000E+00
      25     1     1     2     0     0  2.660100605E+02  9.708823663E+01 -8.822444702E+02  9.349694023E+02  1.250000000E+02  0.00000E+00  9.000E+00
      21     1     1     2   511   501  8.769444491E+01  7.732728791E+00 -3.836097506E+02  3.935816961E+02  5.394796609E-06  0.00000E+00  9.000E+00
#rwgt            1           1   2.9268149326224117E-002           5      177380           0
</event>
<event>
      5   9999  3.19816E-02  2.73525E+01 -1.00000E+00  1.55880E-01
      21    -1     0     0   502   512  0.000000000E+00  0.000000000E+00  4.438932950E+02  4.438932950E+02  0.000000000E+00  0.00000E+00  9.000E+00
      21    -1     0     0   501   502  0.000000000E+00  0.000000000E+00 -1.328592877E+02  1.328592877E+02  0.000000000E+00  0.00000E+00  9.000E+00
      25     1     1     2     0     0  1.247833769E+02 -1.011115616E+02  1.597863157E+01  2.041439583E+02  1.250000000E+02  0.00000E+00  9.000E+00
      25     1     1     2     0     0 -1.019132500E+02  1.161154468E+02  2.718170506E+02  3.367174134E+02  1.250000000E+02  0.00000E+00  9.000E+00
      21     1     1     2   501   512 -2.287012686E+01 -1.500388518E+01  2.323832507E+01  3.589121097E+01  6.743495762E-07  0.00000E+00  9.000E+00
#rwgt            1           1   3.0211119619982369E-002           5      177425           0
</event>
<event>
      5   9999  3.19816E-02  6.83078E+01 -1.00000E+00  1.31761E-01
      21    -1     0     0   511   501  0.000000000E+00  0.000000000E+00  1.459483339E+02  1.459483339E+02  0.000000000E+00  0.00000E+00  9.000E+00
      21    -1     0     0   501   502  0.000000000E+00  0.000000000E+00 -1.035575987E+03  1.035575987E+03  0.000000000E+00  0.00000E+00  9.000E+00
      25     1     1     2     0     0 -2.338906485E+02  1.397350897E+02 -7.691415007E+02  8.254903869E+02  1.250000000E+02  0.00000E+00  9.000E+00
      25     1     1     2     0     0  2.140471478E+02 -7.437312334E+01 -1.253557927E+02  2.875528086E+02  1.250000000E+02  0.00000E+00  9.000E+00
      21     1     1     2   511   502  1.984350065E+01 -6.536196639E+01  4.869640072E+00  6.848112560E+01  1.939671051E-06  0.00000E+00  9.000E+00
#rwgt            1           1   2.7816881168322732E-002           5      177572           0
</event>
<event>
      5   9999  3.19816E-02  2.79438E+01 -1.00000E+00  1.55213E-01
      21    -1     0     0   502   501  0.000000000E+00  0.000000000E+00  1.754124672E+03  1.754124672E+03  0.000000000E+00  0.00000E+00  9.000E+00
      21    -1     0     0   512   502  0.000000000E+00  0.000000000E+00 -7.009403021E+01  7.009403021E+01  0.000000000E+00  0.00000E+00  9.000E+00
      25     1     1     2     0     0  2.948642473E+02 -5.411764915E+01  5.780411480E+02  6.630461621E+02  1.250000000E+02  0.00000E+00  9.000E+00
      25     1     1     2     0     0 -2.686785437E+02  6.387285214E+01  1.084075269E+03  1.125660735E+03  1.250000000E+02  0.00000E+00  9.000E+00
      21     1     1     2   512   501 -2.618570356E+01 -9.755202984E+00  2.191422437E+01  3.551180488E+01  4.129530925E-07  0.00000E+00  9.000E+00
#rwgt            1           1   3.5344164073668270E-002           5      177627           0
</event>
<event>
      5   9999  3.19816E-02  6.28665E+01 -1.00000E+00  1.33629E-01
      21    -1     0     0   502   501  0.000000000E+00  0.000000000E+00  6.261423414E+02  6.261423414E+02  0.000000000E+00  0.00000E+00  9.000E+00
       2    -1     0     0   501     0  0.000000000E+00  0.000000000E+00 -1.120749043E+02  1.120749043E+02  0.000000000E+00  0.00000E+00  9.000E+00
      25     1     1     2     0     0  1.026317502E+02 -7.450545508E+01  3.880502012E+02  4.269570208E+02  1.250000000E+02  0.00000E+00  9.000E+00
      25     1     1     2     0     0 -4.118880599E+01  8.780794289E+01  1.717522171E+02  2.335178294E+02  1.250000000E+02  0.00000E+00  9.000E+00
       2     1     1     2   502     0 -6.144294422E+01 -1.330248782E+01 -4.573498104E+01  7.774239556E+01  9.536743164E-07  0.00000E+00  9.000E+00
#rwgt            1           1   2.6406496638732461E-002           5      177767           0
</event>
<event>
      5   9999  3.19816E-02  5.01352E+01 -1.00000E+00  1.39009E-01
      21    -1     0     0   511   501  0.000000000E+00  0.000000000E+00  1.191439231E+02  1.191439231E+02  0.000000000E+00  0.00000E+00  9.000E+00
      21    -1     0     0   501   502  0.000000000E+00  0.000000000E+00 -1.867156457E+03  1.867156457E+03  0.000000000E+00  0.00000E+00  9.000E+00
      25     1     1     2     0     0  2.968808876E+02 -1.062667883E+02 -2.094819226E+02  3.986710017E+02  1.250000000E+02  0.00000E+00  9.000E+00
      25     1     1     2     0     0 -2.557636432E+02  1.349532395E+02 -1.465925171E+03  1.499396220E+03  1.250000000E+02  0.00000E+00  9.000E+00
      21     1     1     2   511   502 -4.111724432E+01 -2.868645125E+01 -7.260544016E+01  8.823315821E+01  1.348699152E-06  0.00000E+00  9.000E+00
#rwgt            2          11   5.6919266653256461E-003           5      177826           0
</event>
<event>
      5   9999  3.19816E-02  1.37411E+02 -1.00000E+00  1.17923E-01
      21    -1     0     0   502   501  0.000000000E+00  0.000000000E+00  2.139347005E+03  2.139347005E+03  0.000000000E+00  0.00000E+00  9.000E+00
      21    -1     0     0   512   502  0.000000000E+00  0.000000000E+00 -2.707873173E+02  2.707873173E+02  0.000000000E+00  0.00000E+00  9.000E+00
      25     1     1     2     0     0 -1.467271494E+02  2.213394959E+02 -1.275545939E+02  3.200237542E+02  1.250000000E+02  0.00000E+00  9.000E+00
      25     1     1     2     0     0  6.598481571E+01 -1.101530534E+02  1.928783773E+03  1.937090481E+03  1.250000000E+02  0.00000E+00  9.000E+00
      21     1     1     2   512   501  8.074233371E+01 -1.111864425E+02  6.733050864E+01  1.530200864E+02  2.132480600E-06  0.00000E+00  9.000E+00
#rwgt            1           1   2.2179514772573520E-002           5      177846           0
</event>
<event>
      5   9999  3.19816E-02  6.72781E+01 -1.00000E+00  1.32099E-01
      21    -1     0     0   502   501  0.000000000E+00  0.000000000E+00  1.670154229E+03  1.670154229E+03  0.000000000E+00  0.00000E+00  9.000E+00
      21    -1     0     0   511   502  0.000000000E+00  0.000000000E+00 -9.781313651E+01  9.781313651E+01  0.000000000E+00  0.00000E+00  9.000E+00
      25     1     1     2     0     0 -9.949792929E+01  3.970916280E+01  9.322934532E+02  9.467168206E+02  1.250000000E+02  0.00000E+00  9.000E+00
      25     1     1     2     0     0  1.642035890E+02 -5.813522351E+01  6.994060084E+02  7.315301002E+02  1.250000000E+02  0.00000E+00  9.000E+00
      21     1     1     2   511   501 -6.470565969E+01  1.842606071E+01 -5.935836949E+01  8.972044436E+01  2.431401974E-06  0.00000E+00  9.000E+00
#rwgt            1           1   3.5360147522656614E-002           5      177970           0
</event>
<event>
      5   9999  3.19816E-02  5.20333E+02 -1.00000E+00  9.83627E-02
       1    -1     0     0   502     0  0.000000000E+00  0.000000000E+00  1.487274091E+03  1.487274091E+03  0.000000000E+00  0.00000E+00  9.000E+00
      21    -1     0     0   501   502  0.000000000E+00  0.000000000E+00 -3.463317897E+02  3.463317897E+02  0.000000000E+00  0.00000E+00  9.000E+00
      25     1     1     2     0     0  6.716294060E+00  5.002309497E+01 -1.396490939E+02  1.940986555E+02  1.250000000E+02  0.00000E+00  9.000E+00
      25     1     1     2     0     0  4.169715409E+02  2.520284171E+02  6.059817474E+02  7.875420415E+02  1.250000000E+02  0.00000E+00  9.000E+00
       1     1     1     2   501     0 -4.236878350E+02 -3.020515121E+02  6.746096481E+02  8.519651840E+02  0.000000000E+00  0.00000E+00  9.000E+00
#rwgt            2          17   4.6764711369201058E-004           5      178065           0
</event>
<event>
      5   9999  3.19816E-02  7.88304E+01 -1.00000E+00  1.28660E-01
      21    -1     0     0   511   501  0.000000000E+00  0.000000000E+00  1.465394459E+02  1.465394459E+02  0.000000000E+00  0.00000E+00  9.000E+00
      21    -1     0     0   501   502  0.000000000E+00  0.000000000E+00 -8.940237279E+02  8.940237279E+02  0.000000000E+00  0.00000E+00  9.000E+00
      25     1     1     2     0     0 -1.248550999E+02 -2.341647434E+02 -3.593119169E+02  4.638447764E+02  1.250000000E+02  0.00000E+00  9.000E+00
      25     1     1     2     0     0  2.036818155E+02  2.349312676E+02 -3.628347460E+02  4.939160206E+02  1.250000000E+02  0.00000E+00  9.000E+00
      21     1     1     2   511   502 -7.882671567E+01 -7.665242777E-01 -2.533761912E+01  8.280237682E+01  5.840038640E-07  0.00000E+00  9.000E+00
#rwgt            1           1   2.3658266106492336E-002           5      178129           0
</event>
<event>
      5   9999  3.19816E-02  4.95043E+02 -1.00000E+00  9.89751E-02
      21    -1     0     0   502   501  0.000000000E+00  0.000000000E+00  1.777543428E+02  1.777543428E+02  0.000000000E+00  0.00000E+00  9.000E+00
       2    -1     0     0   501     0  0.000000000E+00  0.000000000E+00 -3.169721906E+03  3.169721906E+03  0.000000000E+00  0.00000E+00  9.000E+00
      25     1     1     2     0     0  6.170865302E+01 -2.068596182E+02 -2.439693328E+02  3.489196109E+02  1.250000000E+02  0.00000E+00  9.000E+00
      25     1     1     2     0     0 -4.118791128E+02  5.567860049E+02 -1.548655312E+03  1.701062414E+03  1.250000000E+02  0.00000E+00  9.000E+00
       2     1     1     2   502     0  3.501704597E+02 -3.499263867E+02 -1.199342918E+03  1.297494225E+03  2.157918644E-05  0.00000E+00  9.000E+00
#rwgt            2          13   1.3069359382649960E-003           5      178210           0
</event>
<event>
      5   9999  3.19816E-02  2.20309E+02 -1.00000E+00  1.10140E-01
      21    -1     0     0   502   501  0.000000000E+00  0.000000000E+00  8.038940971E+02  8.038940971E+02  0.000000000E+00  0.00000E+00  9.000E+00
       2    -1     0     0   501     0  0.000000000E+00  0.000000000E+00 -3.435603411E+03  3.435603411E+03  0.000000000E+00  0.00000E+00  9.000E+00
      25     1     1     2     0     0  2.476911837E+02 -4.939480319E+01  7.238488915E+02  7.767708715E+02  1.250000000E+02  0.00000E+00  9.000E+00
      25     1     1     2     0     0 -3.244947307E+02  2.558824657E+02 -9.095412654E+02  1.006808313E+03  1.250000000E+02  0.00000E+00  9.000E+00
       2     1     1     2   502     0  7.680354703E+01 -2.064876625E+02 -2.446016940E+03  2.455918324E+03  4.315837288E-05  0.00000E+00  9.000E+00
#rwgt            1           1   3.3172327702710419E-002           5      178274           0
</event>
<event>
      5   9999  3.19816E-02  4.14827E+01 -1.00000E+00  1.43867E-01
      21    -1     0     0   511   501  0.000000000E+00  0.000000000E+00  3.073132245E+02  3.073132245E+02  0.000000000E+00  0.00000E+00  9.000E+00
      21    -1     0     0   501   502  0.000000000E+00  0.000000000E+00 -2.290981096E+03  2.290981096E+03  0.000000000E+00  0.00000E+00  9.000E+00
      25     1     1     2     0     0 -1.346775149E+02  3.070210226E+02 -2.100142676E+03  2.130404703E+03  1.250000000E+02  0.00000E+00  9.000E+00
      25     1     1     2     0     0  1.290879278E+02 -3.481253973E+02  1.447893382E+02  4.176648630E+02  1.250000000E+02  0.00000E+00  9.000E+00
      21     1     1     2   511   502  5.589587179E+00  4.110437467E+01 -2.831453420E+01  5.022475434E+01  1.066240300E-06  0.00000E+00  9.000E+00
#rwgt            1           1   2.5418680326147955E-002           5      178384           0
</event>
<event>
      5   9999  3.19816E-02  2.53590E+01 -1.00000E+00  1.58289E-01
       2    -1     0     0   502     0  0.000000000E+00  0.000000000E+00  8.706550364E+02  8.706550364E+02  0.000000000E+00  0.00000E+00  9.000E+00
      21    -1     0     0   501   502  0.000000000E+00  0.000000000E+00 -3.380970252E+02  3.380970252E+02  0.000000000E+00  0.00000E+00  9.000E+00
      25     1     1     2     0     0  1.356567906E+02 -1.802363592E+01  8.089330001E+01  2.022284408E+02  1.250000000E+02  0.00000E+00  9.000E+00
      25     1     1     2     0     0 -1.569592014E+02  4.265558225E+00 -2.408700363E+02  3.135247363E+02  1.250000000E+02  0.00000E+00  9.000E+00
       2     1     1     2   501     0  2.130241087E+01  1.375807770E+01  6.925347474E+02  6.929988844E+02  7.629394531E-06  0.00000E+00  9.000E+00
#rwgt            1           1   2.7823626292937286E-002           5      178533           0
</event>
<event>
      5   9999  3.19816E-02  4.08189E+02 -1.00000E+00  1.01421E-01
       2    -1     0     0   502     0  0.000000000E+00  0.000000000E+00  2.393661358E+03  2.393661358E+03  0.000000000E+00  0.00000E+00  9.000E+00
      21    -1     0     0   501   502  0.000000000E+00  0.000000000E+00 -1.901824637E+02  1.901824637E+02  0.000000000E+00  0.00000E+00  9.000E+00
      25     1     1     2     0     0  8.924617729E+01 -1.382711965E+02  3.700207288E+02  4.238208864E+02  1.250000000E+02  0.00000E+00  9.000E+00
      25     1     1     2     0     0  8.892347280E+00  5.344872627E+02  4.268948424E+02  6.954278642E+02  1.250000000E+02  0.00000E+00  9.000E+00
       2     1     1     2   501     0 -9.813852457E+01 -3.962160661E+02  1.406563323E+03  1.464595072E+03  2.642899792E-05  0.00000E+00  9.000E+00
#rwgt            1           1   2.5683216178086606E-002           5      178664           0
</event>
<event>
      5   9999  3.19816E-02  4.72216E+01 -1.00000E+00  1.40507E-01
      21    -1     0     0   502   511  0.000000000E+00  0.000000000E+00  2.428939438E+02  2.428939438E+02  0.000000000E+00  0.00000E+00  9.000E+00
      21    -1     0     0   501   502  0.000000000E+00  0.000000000E+00 -2.231776959E+02  2.231776959E+02  0.000000000E+00  0.00000E+00  9.000E+00
      25     1     1     2     0     0  1.310298994E+02  6.355329947E+01 -4.869211842E+01  1.979994414E+02  1.250000000E+02  0.00000E+00  9.000E+00
      25     1     1     2     0     0 -1.667048590E+02 -3.261497078E+01  4.626213538E+01  2.159153341E+02  1.250000000E+02  0.00000E+00  9.000E+00
      21     1     1     2   501   511  3.567495964E+01 -3.093832869E+01  2.214623098E+01  5.215686411E+01  8.259061849E-07  0.00000E+00  9.000E+00
#rwgt            1           1   2.6318565928042201E-002           5      178708           0
</event>
<event>
      5   9999  3.19816E-02  6.52314E+01 -1.00000E+00  1.32792E-01
      21    -1     0     0   502   512  0.000000000E+00  0.000000000E+00  1.191866224E+02  1.191866224E+02  0.000000000E+00  0.00000E+00  9.000E+00
      21    -1     0     0   501   502  0.000000000E+00  0.000000000E+00 -1.207333913E+03  1.207333913E+03  0.000000000E+00  0.00000E+00  9.000E+00
      25     1     1     2     0     0 -2.448122083E+02 -1.207180136E+02 -2.941549248E+02  4.203070020E+02  1.250000000E+02  0.00000E+00  9.000E+00
      25     1     1     2     0     0  2.962290718E+02  1.608608344E+02 -7.352061670E+02  8.184014778E+02  1.250000000E+02  0.00000E+00  9.000E+00
      21     1     1     2   501   512 -5.141686351E+01 -4.014282079E+01 -5.878619861E+01  8.781205533E+01  0.000000000E+00  0.00000E+00  9.000E+00
#rwgt            1           1   2.8626478377553520E-002           5      178790           0
</event>
<event>
      5   9999  3.19816E-02  9.21072E+01 -1.00000E+00  1.25455E-01
      21    -1     0     0   502   501  0.000000000E+00  0.000000000E+00  3.776010741E+03  3.776010741E+03  0.000000000E+00  0.00000E+00  9.000E+00
      21    -1     0     0   501   511  0.000000000E+00  0.000000000E+00 -1.131553528E+03  1.131553528E+03  0.000000000E+00  0.00000E+00  9.000E+00
      25     1     1     2     0     0  1.395769180E+03 -8.801001578E+02  1.967007516E+03  2.570504126E+03  1.250000000E+02  0.00000E+00  9.000E+00
      25     1     1     2     0     0 -1.344841779E+03  9.568473345E+02  1.045428634E+03  1.957728853E+03  1.250000000E+02  0.00000E+00  9.000E+00
      21     1     1     2   502   511 -5.092740052E+01 -7.674717675E+01 -3.679789376E+02  3.793312903E+02  7.629394531E-06  0.00000E+00  9.000E+00
#rwgt            1           1   1.8713034163460440E-002           5      178858           0
</event>
<event>
      5   9999  3.19816E-02  1.65083E+02 -1.00000E+00  1.14768E-01
      21    -1     0     0   512   501  0.000000000E+00  0.000000000E+00  3.220410688E+03  3.220410688E+03  0.000000000E+00  0.00000E+00  9.000E+00
      21    -1     0     0   501   502  0.000000000E+00  0.000000000E+00 -6.662148382E+01  6.662148382E+01  0.000000000E+00  0.00000E+00  9.000E+00
      25     1     1     2     0     0  1.625864639E+02  5.534424151E+01  1.905741027E+03  1.917543013E+03  1.250000000E+02  0.00000E+00  9.000E+00
      25     1     1     2     0     0 -3.161052725E+02 -1.160432086E+02  5.872872708E+02  6.884184106E+02  1.250000000E+02  0.00000E+00  9.000E+00
      21     1     1     2   512   502  1.535188086E+02  6.069896712E+01  6.607609063E+02  6.810707485E+02  1.078959322E-05  0.00000E+00  9.000E+00
#rwgt            1           1   8.6166739667648845E-002           5      178944           0
</event>
<event>
      5   9999  3.19816E-02  1.90370E+02 -1.00000E+00  1.12434E-01
      21    -1     0     0   502   501  0.000000000E+00  0.000000000E+00  1.137858573E+02  1.137858573E+02  0.000000000E+00  0.00000E+00  9.000E+00
      21    -1     0     0   501   511  0.000000000E+00  0.000000000E+00 -2.627008148E+03  2.627008148E+03  0.000000000E+00  0.00000E+00  9.000E+00
      25     1     1     2     0     0  7.221665498E+01 -1.409343135E+02 -1.002989794E+02  2.253055952E+02  1.250000000E+02  0.00000E+00  9.000E+00
      25     1     1     2     0     0 -2.622799263E+02  1.517289853E+02 -5.313959680E+02  6.243549628E+02  1.250000000E+02  0.00000E+00  9.000E+00
      21     1     1     2   502   511  1.900632713E+02 -1.079467184E+01 -1.881527343E+03  1.891133447E+03  3.051757812E-05  0.00000E+00  9.000E+00
#rwgt            1           1   3.3636793211077723E-002           5      178989           0
</event>
<event>
      5   9999  3.19816E-02  6.48925E+01 -1.00000E+00  1.32909E-01
      21    -1     0     0   502   501  0.000000000E+00  0.000000000E+00  5.067535512E+02  5.067535512E+02  0.000000000E+00  0.00000E+00  9.000E+00
      21    -1     0     0   512   502  0.000000000E+00  0.000000000E+00 -3.129572091E+02  3.129572091E+02  0.000000000E+00  0.00000E+00  9.000E+00
      25     1     1     2     0     0  3.930046841E+01 -1.408460651E+01  2.972126910E+02  3.251204187E+02  1.250000000E+02  0.00000E+00  9.000E+00
      25     1     1     2     0     0  1.354170763E+01  5.175082510E+01  1.676559637E+02  2.158588610E+02  1.250000000E+02  0.00000E+00  9.000E+00
      21     1     1     2   512   501 -5.284217603E+01 -3.766621859E+01 -2.710723126E+02  2.787314806E+02  7.629394531E-06  0.00000E+00  9.000E+00
#rwgt            1           1   7.0256619616308165E-003           5      179057           0
</event>
<event>
      5   9999  3.19816E-02  7.23686E+01 -1.00000E+00  1.30493E-01
      21    -1     0     0   511   501  0.000000000E+00  0.000000000E+00  2.924567274E+02  2.924567274E+02  0.000000000E+00  0.00000E+00  9.000E+00
      21    -1     0     0   501   502  0.000000000E+00  0.000000000E+00 -2.680531809E+03  2.680531809E+03  0.000000000E+00  0.00000E+00  9.000E+00
      25     1     1     2     0     0 -5.642784711E+02 -2.396016504E+02 -5.500210258E+02  8.330469811E+02  1.250000000E+02  0.00000E+00  9.000E+00
      25     1     1     2     0     0  5.078106967E+02  1.943402132E+02 -1.937908990E+03  2.016619963E+03  1.250000000E+02  0.00000E+00  9.000E+00
      21     1     1     2   511   502  5.646777436E+01  4.526143725E+01  9.985493410E+01  1.233215922E+02  3.303624740E-06  0.00000E+00  9.000E+00
#rwgt            1           1   2.4443575226467902E-002           5      179139           0
</event>
<event>
      5   9999  3.19816E-02  6.32070E+01 -1.00000E+00  1.33506E-01
       3    -1     0     0   502     0  0.000000000E+00  0.000000000E+00  1.656027692E+03  1.656027692E+03  0.000000000E+00  0.00000E+00  9.000E+00
      21    -1     0     0   501   502  0.000000000E+00  0.000000000E+00 -3.514102352E+01  3.514102352E+01  0.000000000E+00  0.00000E+00  9.000E+00
      25     1     1     2     0     0 -7.763023988E+01 -4.047795369E+01  1.812300628E+02  2.369266860E+02  1.250000000E+02  0.00000E+00  9.000E+00
      25     1     1     2     0     0  3.804217373E+01 -8.795916492E+00  1.168532592E+03  1.175847777E+03  1.250000000E+02  0.00000E+00  9.000E+00
       3     1     1     2   501     0  3.958806615E+01  4.927387018E+01  2.711240132E+02  2.783942524E+02  0.000000000E+00  0.00000E+00  9.000E+00
#rwgt            2          19   1.0600753274550346E-005           5      179440           0
</event>
<event>
      5   9999  3.19816E-02  5.76459E+01 -1.00000E+00  1.35639E-01
       2    -1     0     0   502     0  0.000000000E+00  0.000000000E+00  4.754657219E+02  4.754657219E+02  0.000000000E+00  0.00000E+00  9.000E+00
      21    -1     0     0   501   502  0.000000000E+00  0.000000000E+00 -1.805147498E+02  1.805147498E+02  0.000000000E+00  0.00000E+00  9.000E+00
      25     1     1     2     0     0 -1.933130670E+02 -2.347312500E+01  1.065045956E+02  2.547335046E+02  1.250000000E+02  0.00000E+00  9.000E+00
      25     1     1     2     0     0  1.881657692E+02 -3.394252305E+01  2.345668530E+02  3.274218381E+02  1.250000000E+02  0.00000E+00  9.000E+00
       2     1     1     2   501     0  5.147297778E+00  5.741564804E+01 -4.612047656E+01  7.382512901E+01  9.536743164E-07  0.00000E+00  9.000E+00
#rwgt            1           1   2.9528628175896646E-002           5      179459           0
</event>
<event>
      5   9999  3.19816E-02  7.81026E+01 -1.00000E+00  1.28856E-01
       2    -1     0     0   502     0  0.000000000E+00  0.000000000E+00  5.368061028E+02  5.368061028E+02  0.000000000E+00  0.00000E+00  9.000E+00
      21    -1     0     0   501   502  0.000000000E+00  0.000000000E+00 -1.357501991E+02  1.357501991E+02  0.000000000E+00  0.00000E+00  9.000E+00
      25     1     1     2     0     0 -6.492400414E+01  4.256357326E+01  2.162580732E+01  1.487261229E+02  1.250000000E+02  0.00000E+00  9.000E+00
      25     1     1     2     0     0  1.412967383E+02 -5.891045779E+01  7.804275303E+01  2.124873681E+02  1.250000000E+02  0.00000E+00  9.000E+00
       2     1     1     2   501     0 -7.637273419E+01  1.634688453E+01  3.013873434E+02  3.113428109E+02  3.814697266E-06  0.00000E+00  9.000E+00
#rwgt            1           1   2.3872134580977814E-002           5      179531           0
</event>
<event>
      5   9999  3.19816E-02  1.35136E+01 -1.00000E+00  1.81762E-01
      21    -1     0     0   502   511  0.000000000E+00  0.000000000E+00  6.099491729E+02  6.099491729E+02  0.000000000E+00  0.00000E+00  9.000E+00
      21    -1     0     0   501   502  0.000000000E+00  0.000000000E+00 -1.175571407E+03  1.175571407E+03  0.000000000E+00  0.00000E+00  9.000E+00
      25     1     1     2     0     0 -1.432866435E+02 -2.106443263E+02 -2.744342398E+02  3.947673320E+02  1.250000000E+02  0.00000E+00  9.000E+00
      25     1     1     2     0     0  1.320981171E+02  2.182229394E+02 -8.168923174E+02  8.648752639E+02  1.250000000E+02  0.00000E+00  9.000E+00
      21     1     1     2   501   511  1.118852637E+01 -7.578613110E+00  5.257043233E+02  5.258779840E+02  0.000000000E+00  0.00000E+00  9.000E+00
#rwgt            1           1   2.8805916444793630E-002           5      179588           0
</event>
<event>
      5   9999  3.19816E-02  9.27163E+01 -1.00000E+00  1.25323E-01
      21    -1     0     0   502   501  0.000000000E+00  0.000000000E+00  1.191086320E+03  1.191086320E+03  0.000000000E+00  0.00000E+00  9.000E+00
      21    -1     0     0   512   502  0.000000000E+00  0.000000000E+00 -2.050051997E+03  2.050051997E+03  0.000000000E+00  0.00000E+00  9.000E+00
      25     1     1     2     0     0  1.792457841E+02 -7.156213219E+02 -1.724680772E+03  1.879997790E+03  1.250000000E+02  0.00000E+00  9.000E+00
      25     1     1     2     0     0 -2.718584181E+02  7.200043572E+02  9.546971041E+02  1.232633293E+03  1.250000000E+02  0.00000E+00  9.000E+00
      21     1     1     2   512   501  9.261263408E+01 -4.383035339E+00 -8.898200995E+01  1.285072336E+02  1.651812370E-06  0.00000E+00  9.000E+00
#rwgt            1           1   3.1053122729935576E-002           5      179812           0
</event>
<event>
      5   9999  3.19816E-02  4.13211E+02 -1.00000E+00  1.01263E-01
       4    -1     0     0   502     0  0.000000000E+00  0.000000000E+00  1.671982162E+03  1.671982162E+03  0.000000000E+00  0.00000E+00  9.000E+00
      21    -1     0     0   501   502  0.000000000E+00  0.000000000E+00 -6.582561526E+02  6.582561526E+02  0.000000000E+00  0.00000E+00  9.000E+00
      25     1     1     2     0     0  6.170605459E+01  2.994925026E+02 -4.654037675E+02  5.707267850E+02  1.250000000E+02  0.00000E+00  9.000E+00
      25     1     1     2     0     0  2.925034647E+02 -8.670385702E+01  1.401977811E+02  3.582684099E+02  1.250000000E+02  0.00000E+00  9.000E+00
       4     1     1     2   501     0 -3.542095193E+02 -2.127886456E+02  1.338931996E+03  1.401243120E+03  2.157918644E-05  0.00000E+00  9.000E+00
#rwgt            2          20   3.3054277409313788E-005           5      179958           0
</event>
<event>
      5   9999  3.19816E-02  2.35832E+02 -1.00000E+00  1.09103E-01
      21    -1     0     0   502   501  0.000000000E+00  0.000000000E+00  5.662618839E+02  5.662618839E+02  0.000000000E+00  0.00000E+00  9.000E+00
      21    -1     0     0   511   502  0.000000000E+00  0.000000000E+00 -3.411975134E+02  3.411975134E+02  0.000000000E+00  0.00000E+00  9.000E+00
      25     1     1     2     0     0 -5.304504844E+00 -4.362162153E+01 -6.904151024E+01  1.494078772E+02  1.250000000E+02  0.00000E+00  9.000E+00
      25     1     1     2     0     0 -1.752556184E+02 -1.080842081E+02  4.248633491E+02  4.883959390E+02  1.250000000E+02  0.00000E+00  9.000E+00
      21     1     1     2   511   501  1.805601233E+02  1.517058297E+02 -1.307574683E+02  2.696555811E+02  4.264961200E-06  0.00000E+00  9.000E+00
#rwgt            2          11   3.8318929800162074E-003           5      180052           0
</event>
<event>
      5   9999  3.19816E-02  3.81787E+01 -1.00000E+00  1.46107E-01
      21    -1     0     0   512   501  0.000000000E+00  0.000000000E+00  2.693333733E+02  2.693333733E+02  0.000000000E+00  0.00000E+00  9.000E+00
      21    -1     0     0   501   502  0.000000000E+00  0.000000000E+00 -1.277795534E+03  1.277795534E+03  0.000000000E+00  0.00000E+00  9.000E+00
      25     1     1     2     0     0 -2.004275301E+02 -1.428945772E+02 -7.860424357E+02  8.331132970E+02  1.250000000E+02  0.00000E+00  9.000E+00
      25     1     1     2     0     0  2.324617595E+02  1.636651823E+02 -4.146345096E+02  5.180458842E+02  1.250000000E+02  0.00000E+00  9.000E+00
      21     1     1     2   512   502 -3.203422945E+01 -2.077060503E+01  1.922147850E+02  1.959697258E+02  4.672030912E-06  0.00000E+00  9.000E+00
#rwgt            1           1   3.3237335217588343E-002           5      180072           0
</event>
<event>
      5   9999  3.19816E-02  5.76621E+01 -1.00000E+00  1.35632E-01
      21    -1     0     0   502   511  0.000000000E+00  0.000000000E+00  5.664651483E+02  5.664651483E+02  0.000000000E+00  0.00000E+00  9.000E+00
      21    -1     0     0   501   502  0.000000000E+00  0.000000000E+00 -2.703190852E+02  2.703190852E+02  0.000000000E+00  0.00000E+00  9.000E+00
      25     1     1     2     0     0 -4.147638249E+01 -1.381232028E+02  1.721260499E+01  1.916235456E+02  1.250000000E+02  0.00000E+00  9.000E+00
      25     1     1     2     0     0  9.662003203E+01  1.549783324E+02 -1.133581273E+02  2.486539345E+02  1.250000000E+02  0.00000E+00  9.000E+00
      21     1     1     2   501   511 -5.514364954E+01 -1.685512956E+01  3.922915855E+02  3.965067534E+02  5.394796609E-06  0.00000E+00  9.000E+00
#rwgt            1           1   2.6513384325074787E-002           5      180213           0
</event>
<event>
      5   9999  3.19816E-02  1.03223E+02 -1.00000E+00  1.23212E-01
      21    -1     0     0   502   501  0.000000000E+00  0.000000000E+00  7.667201465E+02  7.667201465E+02  0.000000000E+00  0.00000E+00  9.000E+00
      21    -1     0     0   501   512  0.000000000E+00  0.000000000E+00 -3.343696399E+02  3.343696399E+02  0.000000000E+00  0.00000E+00  9.000E+00
      25     1     1     2     0     0  1.721629296E+02 -1.898400311E+02  5.625430421E+02  6.306813664E+02  1.250000000E+02  0.00000E+00  9.000E+00
      25     1     1     2     0     0 -1.360001805E+02  2.865208017E+02 -1.359818550E+02  3.670235466E+02  1.250000000E+02  0.00000E+00  9.000E+00
      21     1     1     2   502   512 -3.616274909E+01 -9.668077060E+01  5.789319479E+00  1.033848734E+02  1.140303997E-06  0.00000E+00  9.000E+00
#rwgt            1           1   2.7662526256905472E-002           5      180299           0
</event>
<event>
      5   9999  3.19816E-02  1.85619E+02 -1.00000E+00  1.12841E-01
      21    -1     0     0   502   501  0.000000000E+00  0.000000000E+00  6.239891031E+02  6.239891031E+02  0.000000000E+00  0.00000E+00  9.000E+00
       2    -1     0     0   501     0  0.000000000E+00  0.000000000E+00 -2.260480696E+03  2.260480696E+03  0.000000000E+00  0.00000E+00  9.000E+00
      25     1     1     2     0     0 -1.377626745E+02  9.077635225E+02 -1.291543027E+03  1.589566469E+03  1.250000000E+02  0.00000E+00  9.000E+00
      25     1     1     2     0     0 -1.738609350E+01 -1.009662554E+03 -1.548908025E+02  1.029240939E+03  1.250000000E+02  0.00000E+00  9.000E+00
       2     1     1     2   502     0  1.551487680E+02  1.018990317E+02 -1.900577631E+02  2.656623914E+02  6.031565972E-06  0.00000E+00  9.000E+00
#rwgt            1           1   2.9222211624587487E-002           5      180431           0
</event>
<event>
      5   9999  3.19816E-02  8.11189E+01 -1.00000E+00  1.28058E-01
      21    -1     0     0   502   501  0.000000000E+00  0.000000000E+00  1.313632921E+03  1.313632921E+03  0.000000000E+00  0.00000E+00  9.000E+00
      21    -1     0     0   501   511  0.000000000E+00  0.000000000E+00 -2.174231330E+02  2.174231330E+02  0.000000000E+00  0.00000E+00  9.000E+00
      25     1     1     2     0     0 -1.391892076E+02 -1.444567493E+02  1.215618743E+03  1.238384156E+03  1.250000000E+02  0.00000E+00  9.000E+00
      25     1     1     2     0     0  1.165407325E+02  6.656370328E+01 -1.014311685E+02  2.095847105E+02  1.250000000E+02  0.00000E+00  9.000E+00
      21     1     1     2   502   511  2.264847513E+01  7.789304604E+01 -1.797778641E+01  8.308718825E+01  5.331201500E-07  0.00000E+00  9.000E+00
#rwgt            1           1   2.3154879553795436E-002           5      180497           0
</event>
<event>
      5   9999  3.19816E-02  5.36672E+01 -1.00000E+00  1.37344E-01
      21    -1     0     0   502   501  0.000000000E+00  0.000000000E+00  9.060076002E+01  9.060076002E+01  0.000000000E+00  0.00000E+00  9.000E+00
      21    -1     0     0   501   512  0.000000000E+00  0.000000000E+00 -1.259776499E+03  1.259776499E+03  0.000000000E+00  0.00000E+00  9.000E+00
      25     1     1     2     0     0 -8.478929584E+00 -2.287358879E+02 -2.606554085E+02  3.687251560E+02  1.250000000E+02  0.00000E+00  9.000E+00
      25     1     1     2     0     0  4.462993198E+00  2.822526350E+02 -6.782050266E+02  7.451667776E+02  1.250000000E+02  0.00000E+00  9.000E+00
      21     1     1     2   502   512  4.015936386E+00 -5.351674707E+01 -2.303153038E+02  2.364853254E+02  3.814697266E-06  0.00000E+00  9.000E+00
#rwgt            1           1   2.2779658132427653E-002           5      180572           0
</event>
<event>
      5   9999  3.19816E-02  2.25519E+02 -1.00000E+00  1.09782E-01
      21    -1     0     0   511   501  0.000000000E+00  0.000000000E+00  1.122855454E+03  1.122855454E+03  0.000000000E+00  0.00000E+00  9.000E+00
      21    -1     0     0   501   502  0.000000000E+00  0.000000000E+00 -2.102157710E+02  2.102157710E+02  0.000000000E+00  0.00000E+00  9.000E+00
      25     1     1     2     0     0  7.637259196E+01 -3.580984554E+02  3.842435382E+02  5.452846718E+02  1.250000000E+02  0.00000E+00  9.000E+00
      25     1     1     2     0     0  1.495567069E+01  1.518990595E+02 -1.658951340E+01  1.979828486E+02  1.250000000E+02  0.00000E+00  9.000E+00
      21     1     1     2   511   502 -9.132826265E+01  2.061993959E+02  5.449856580E+02  5.898037045E+02  7.629394531E-06  0.00000E+00  9.000E+00
#rwgt            2          11   2.4354362593605496E-003           5      180780           0
</event>
<event>
      5   9999  3.19816E-02  1.61049E+02 -1.00000E+00  1.15183E-01
      21    -1     0     0   502   512  0.000000000E+00  0.000000000E+00  1.590016919E+03  1.590016919E+03  0.000000000E+00  0.00000E+00  9.000E+00
      21    -1     0     0   501   502  0.000000000E+00  0.000000000E+00 -5.589097229E+02  5.589097229E+02  0.000000000E+00  0.00000E+00  9.000E+00
      25     1     1     2     0     0 -2.208133683E+02  5.006520791E+01 -2.714972720E+02  3.749677818E+02  1.250000000E+02  0.00000E+00  9.000E+00
      25     1     1     2     0     0  3.616114992E+02 -1.282493359E+02 -5.462332419E+01  4.072093762E+02  1.250000000E+02  0.00000E+00  9.000E+00
      21     1     1     2   501   512 -1.407981310E+02  7.818412797E+01  1.357227792E+03  1.366749484E+03  2.157918644E-05  0.00000E+00  9.000E+00
#rwgt            1           1   2.8720728219670161E-002           5      180800           0
</event>
<event>
      5   9999  3.19816E-02  3.46111E+01 -1.00000E+00  1.48849E-01
      21    -1     0     0   502   501  0.000000000E+00  0.000000000E+00  4.486363375E+01  4.486363375E+01  0.000000000E+00  0.00000E+00  9.000E+00
      21    -1     0     0   511   502  0.000000000E+00  0.000000000E+00 -2.046893097E+03  2.046893097E+03  0.000000000E+00  0.00000E+00  9.000E+00
      25     1     1     2     0     0  1.205377572E+02  9.376178380E+01 -2.289986177E+02  3.023011577E+02  1.250000000E+02  0.00000E+00  9.000E+00
      25     1     1     2     0     0 -9.829156676E+01 -6.724703064E+01 -9.411557641E+02  9.568607880E+02  1.250000000E+02  0.00000E+00  9.000E+00
      21     1     1     2   511   501 -2.224619043E+01 -2.651475316E+01 -8.318750814E+02  8.325947851E+02  1.078959322E-05  0.00000E+00  9.000E+00
#rwgt            1           1   3.2258251712401230E-002           5      180840           0
</event>
<event>
      5   9999  3.19816E-02  4.16027E+01 -1.00000E+00  1.43790E-01
      21    -1     0     0   502   501  0.000000000E+00  0.000000000E+00  1.010654898E+03  1.010654898E+03  0.000000000E+00  0.00000E+00  9.000E+00
      21    -1     0     0   512   502  0.000000000E+00  0.000000000E+00 -8.060530928E+02  8.060530928E+02  0.000000000E+00  0.00000E+00  9.000E+00
      25     1     1     2     0     0 -3.631897986E+02 -1.830969875E+02  8.967284611E+02  9.925614689E+02  1.250000000E+02  0.00000E+00  9.000E+00
      25     1     1     2     0     0  3.253253833E+02  1.658612106E+02 -6.780856977E+02  7.802382711E+02  1.250000000E+02  0.00000E+00  9.000E+00
      21     1     1     2   512   501  3.786441530E+01  1.723577696E+01 -1.404095841E+01  4.390825055E+01  4.460403188E-07  0.00000E+00  9.000E+00
#rwgt            1           1   3.2694337663619032E-002           5      180978           0
</event>
<event>
      5   9999  3.19816E-02  2.93370E+01 -1.00000E+00  1.53717E-01
      21    -1     0     0   502   501  0.000000000E+00  0.000000000E+00  1.835349315E+03  1.835349315E+03  0.000000000E+00  0.00000E+00  9.000E+00
      21    -1     0     0   511   502  0.000000000E+00  0.000000000E+00 -1.288754892E+03  1.288754892E+03  0.000000000E+00  0.00000E+00  9.000E+00
      25     1     1     2     0     0 -1.746042457E+02  1.424855819E+03  8.112990281E+02  1.653641999E+03  1.250000000E+02  0.00000E+00  9.000E+00
      25     1     1     2     0     0  1.864458568E+02 -1.398014925E+03 -2.506616897E+02  1.437937436E+03  1.250000000E+02  0.00000E+00  9.000E+00
      21     1     1     2   511   501 -1.184161114E+01 -2.684089360E+01 -1.404291487E+01  3.252477182E+01  4.460403188E-07  0.00000E+00  9.000E+00
#rwgt            1           1   3.8607935303974064E-002           5      181132           0
</event>
<event>
      5   9999  3.19816E-02  1.35382E+02 -1.00000E+00  1.18186E-01
       2    -1     0     0   502     0  0.000000000E+00  0.000000000E+00  2.211119453E+03  2.211119453E+03  0.000000000E+00  0.00000E+00  9.000E+00
      21    -1     0     0   501   502  0.000000000E+00  0.000000000E+00 -1.657133681E+02  1.657133681E+02  0.000000000E+00  0.00000E+00  9.000E+00
      25     1     1     2     0     0  1.648254894E+02  2.634011294E+00  1.872580800E+03  1.883974053E+03  1.250000000E+02  0.00000E+00  9.000E+00
      25     1     1     2     0     0 -2.751303267E+02 -8.112663490E+01  6.450172079E+01  3.194740984E+02  1.250000000E+02  0.00000E+00  9.000E+00
       2     1     1     2   501     0  1.103048373E+02  7.849262361E+01  1.083235640E+02  1.733846695E+02  2.336015456E-06  0.00000E+00  9.000E+00
#rwgt            1           1   3.5612188137684443E-002           5      181398           0
</event>
<event>
      5   9999  3.19816E-02  4.21668E+01 -1.00000E+00  1.43433E-01
      21    -1     0     0   511   501  0.000000000E+00  0.000000000E+00  5.611310254E+02  5.611310254E+02  0.000000000E+00  0.00000E+00  9.000E+00
      21    -1     0     0   501   502  0.000000000E+00  0.000000000E+00 -7.734303093E+02  7.734303093E+02  0.000000000E+00  0.00000E+00  9.000E+00
      25     1     1     2     0     0  2.800101964E+02  4.441739789E+02 -2.550923365E+02  5.969868790E+02  1.250000000E+02  0.00000E+00  9.000E+00
      25     1     1     2     0     0 -2.819002298E+02 -4.862983685E+02 -1.037365289E+02  5.850983766E+02  1.250000000E+02  0.00000E+00  9.000E+00
      21     1     1     2   511   502  1.890033413E+00  4.212438966E+01  1.465295815E+02  1.524760790E+02  0.000000000E+00  0.00000E+00  9.000E+00
#rwgt            1           1   3.1251470708560020E-002           5      181561           0
</event>
<event>
      5   9999  3.19816E-02  4.02508E+01 -1.00000E+00  1.44672E-01
      21    -1     0     0   512   501  0.000000000E+00  0.000000000E+00  6.281472191E+02  6.281472191E+02  0.000000000E+00  0.00000E+00  9.000E+00
      21    -1     0     0   501   502  0.000000000E+00  0.000000000E+00 -1.569902097E+02  1.569902097E+02  0.000000000E+00  0.00000E+00  9.000E+00
      25     1     1     2     0     0  1.877838392E+02  2.089111816E+01 -6.208130900E+00  2.266335147E+02  1.250000000E+02  0.00000E+00  9.000E+00
      25     1     1     2     0     0 -1.761180460E+02 -5.941429953E+01  2.876997722E+02  3.646145692E+02  1.250000000E+02  0.00000E+00  9.000E+00
      21     1     1     2   512   502 -1.166579319E+01  3.852318137E+01  1.896653681E+02  1.938893450E+02  2.697398305E-06  0.00000E+00  9.000E+00
#rwgt            2          11   1.1908668420946484E-003           5      181699           0
</event>
<event>
      5   9999  3.19816E-02  2.01679E+02 -1.00000E+00  1.11516E-01
      21    -1     0     0   502   501  0.000000000E+00  0.000000000E+00  3.542970245E+03  3.542970245E+03  0.000000000E+00  0.00000E+00  9.000E+00
      -2    -1     0     0     0   502  0.000000000E+00  0.000000000E+00 -4.899443927E+02  4.899443927E+02  0.000000000E+00  0.00000E+00  9.000E+00
      25     1     1     2     0     0  4.169122048E+02  3.168523166E+02  6.634625725E+02  8.544113541E+02  1.250000000E+02  0.00000E+00  9.000E+00
      25     1     1     2     0     0 -2.733928278E+02 -4.585444041E+02  2.729073910E+03  2.783608452E+03  1.250000000E+02  0.00000E+00  9.000E+00
      -2     1     1     2     0   501 -1.435193770E+02  1.416920875E+02 -3.395106306E+02  3.948948309E+02  8.529922400E-06  0.00000E+00  9.000E+00
#rwgt            1           1   8.0644520098905846E-003           5      181719           0
</event>
<event>
      5   9999  3.19816E-02  1.36054E+02 -1.00000E+00  1.18098E-01
      21    -1     0     0   502   501  0.000000000E+00  0.000000000E+00  1.567309557E+03  1.567309557E+03  0.000000000E+00  0.00000E+00  9.000E+00
      21    -1     0     0   511   502  0.000000000E+00  0.000000000E+00 -4.724387976E+02  4.724387976E+02  0.000000000E+00  0.00000E+00  9.000E+00
      25     1     1     2     0     0 -4.996708639E+02 -4.477789608E+02  2.094561523E+02  7.139144554E+02  1.250000000E+02  0.00000E+00  9.000E+00
      25     1     1     2     0     0  5.254119595E+02  5.813759491E+02  8.865013042E+02  1.189775308E+03  1.250000000E+02  0.00000E+00  9.000E+00
      21     1     1     2   511   501 -2.574109559E+01 -1.335969883E+02 -1.086697160E+00  1.360585910E+02  3.565178722E-06  0.00000E+00  9.000E+00
#rwgt            1           1   2.0348718264228943E-002           5      181787           0
</event>
<event>
      5   9999  3.19816E-02  1.41124E+02 -1.00000E+00  1.17453E-01
      21    -1     0     0   502   512  0.000000000E+00  0.000000000E+00  1.601719523E+03  1.601719523E+03  0.000000000E+00  0.00000E+00  9.000E+00
      21    -1     0     0   501   502  0.000000000E+00  0.000000000E+00 -2.880132931E+02  2.880132931E+02  0.000000000E+00  0.00000E+00  9.000E+00
      25     1     1     2     0     0  2.376856550E+02  3.265081043E+02 -2.547229639E+01  4.235278629E+02  1.250000000E+02  0.00000E+00  9.000E+00
      25     1     1     2     0     0 -3.355190275E+02 -2.247998082E+02  1.180140901E+03  1.253581078E+03  1.250000000E+02  0.00000E+00  9.000E+00
      21     1     1     2   501   512  9.783337253E+01 -1.017082961E+02  1.590376250E+02  2.126238755E+02  1.907348633E-06  0.00000E+00  9.000E+00
#rwgt            1           1   2.9041255509090633E-002           5      181898           0
</event>
<event>
      5   9999  3.19816E-02  1.35709E+01 -1.00000E+00  1.81580E-01
      21    -1     0     0   511   501  0.000000000E+00  0.000000000E+00  1.862167639E+02  1.862167639E+02  0.000000000E+00  0.00000E+00  9.000E+00
      21    -1     0     0   501   502  0.000000000E+00  0.000000000E+00 -4.375517499E+02  4.375517499E+02  0.000000000E+00  0.00000E+00  9.000E+00
      25     1     1     2     0     0  9.276678612E+01  1.884729474E+02 -2.251876975E+02  3.323585829E+02  1.250000000E+02  0.00000E+00  9.000E+00
      25     1     1     2     0     0 -8.559524640E+01 -1.999942026E+02 -5.736389993E+01  2.573710246E+02  1.250000000E+02  0.00000E+00  9.000E+00
      21     1     1     2   511   502 -7.171539719E+00  1.152125519E+01  3.121661151E+01  3.403890623E+01  4.768371582E-07  0.00000E+00  9.000E+00
#rwgt            1           1   2.7043884063046929E-002           5      181979           0
</event>
<event>
      5   9999  3.19816E-02  1.08162E+02 -1.00000E+00  1.22315E-01
      21    -1     0     0   502   501  0.000000000E+00  0.000000000E+00  1.117081106E+03  1.117081106E+03  0.000000000E+00  0.00000E+00  9.000E+00
      21    -1     0     0   512   502  0.000000000E+00  0.000000000E+00 -5.286440258E+02  5.286440258E+02  0.000000000E+00  0.00000E+00  9.000E+00
      25     1     1     2     0     0 -1.287888968E+02  5.511424589E+02  7.474946640E+02  9.458952705E+02  1.250000000E+02  0.00000E+00  9.000E+00
      25     1     1     2     0     0  2.286377895E+02 -5.095589416E+02 -1.195119549E+02  5.846654266E+02  1.250000000E+02  0.00000E+00  9.000E+00
      21     1     1     2   512   501 -9.984889271E+01 -4.158351736E+01 -3.954562881E+01  1.151644348E+02  2.023048729E-06  0.00000E+00  9.000E+00
#rwgt            1           1   3.0292035417204734E-002           5      182192           0
</event>
<event>
      5   9999  3.19816E-02  1.03879E+01 -1.00000E+00  1.93866E-01
      21    -1     0     0   502   511  0.000000000E+00  0.000000000E+00  1.061576514E+03  1.061576514E+03  0.000000000E+00  0.00000E+00  9.000E+00
      21    -1     0     0   501   502  0.000000000E+00  0.000000000E+00 -5.819978559E+02  5.819978559E+02  0.000000000E+00  0.00000E+00  9.000E+00
      25     1     1     2     0     0  6.282833815E+02  2.522331290E+02  6.133628217E+02  9.220631811E+02  1.250000000E+02  0.00000E+00  9.000E+00
      25     1     1     2     0     0 -6.378059047E+02 -2.480822413E+02 -1.396884921E+02  7.095625732E+02  1.250000000E+02  0.00000E+00  9.000E+00
      21     1     1     2   501   511  9.522523132E+00 -4.150887737E+00  5.904328139E+00  1.194861526E+01  1.192092896E-07  0.00000E+00  9.000E+00
#rwgt            1           1   2.9369768158509512E-002           5      182284           0
</event>
<event>
      5   9999  3.19816E-02  1.07767E+01 -1.00000E+00  1.92075E-01
      21    -1     0     0   502   501  0.000000000E+00  0.000000000E+00  2.469235896E+02  2.469235896E+02  0.000000000E+00  0.00000E+00  9.000E+00
      21    -1     0     0   501   512  0.000000000E+00  0.000000000E+00 -1.258710339E+03  1.258710339E+03  0.000000000E+00  0.00000E+00  9.000E+00
      25     1     1     2     0     0 -1.789386584E+02 -2.561597600E+02 -1.006821485E+03  1.061579658E+03  1.250000000E+02  0.00000E+00  9.000E+00
      25     1     1     2     0     0  1.878113057E+02  2.500431770E+02  8.990634072E+01  3.485725563E+02  1.250000000E+02  0.00000E+00  9.000E+00
      21     1     1     2   502   512 -8.872647263E+00  6.116583064E+00 -9.487160519E+01  9.548171516E+01  1.348699152E-06  0.00000E+00  9.000E+00
#rwgt            1           1   3.4683419417004861E-002           5      182565           0
</event>
<event>
      5   9999  3.19816E-02  3.13284E+01 -1.00000E+00  1.51744E-01
      21    -1     0     0   511   501  0.000000000E+00  0.000000000E+00  7.352373708E+02  7.352373708E+02  0.000000000E+00  0.00000E+00  9.000E+00
      21    -1     0     0   501   502  0.000000000E+00  0.000000000E+00 -2.267778045E+02  2.267778045E+02  0.000000000E+00  0.00000E+00  9.000E+00
      25     1     1     2     0     0  2.106760816E+02 -2.577212388E+02  4.672115337E+01  3.586258698E+02  1.250000000E+02  0.00000E+00  9.000E+00
      25     1     1     2     0     0 -1.854257259E+02  2.762654412E+02  4.380788815E+02  5.641306589E+02  1.250000000E+02  0.00000E+00  9.000E+00
      21     1     1     2   511   502 -2.525035570E+01 -1.854420246E+01  2.365953139E+01  3.925864661E+01  6.743495762E-07  0.00000E+00  9.000E+00
#rwgt            1           1   2.5678569563147517E-002           5      182841           0
</event>
<event>
      5   9999  3.19816E-02  5.55129E+01 -1.00000E+00  1.36532E-01
      21    -1     0     0   502   501  0.000000000E+00  0.000000000E+00  3.162468123E+03  3.162468123E+03  0.000000000E+00  0.00000E+00  9.000E+00
      21    -1     0     0   512   502  0.000000000E+00  0.000000000E+00 -1.002611049E+03  1.002611049E+03  0.000000000E+00  0.00000E+00  9.000E+00
      25     1     1     2     0     0  7.389429213E+02  4.647583617E+02  5.249977731E+02  1.026296564E+03  1.250000000E+02  0.00000E+00  9.000E+00
      25     1     1     2     0     0 -7.482607129E+02 -5.194837310E+02  2.297069570E+03  2.474249593E+03  1.250000000E+02  0.00000E+00  9.000E+00
      21     1     1     2   512   501  9.317791613E+00  5.472536930E+01 -6.622102692E+02  6.645330149E+02  1.078959322E-05  0.00000E+00  9.000E+00
#rwgt            1           1   2.9540302221019790E-002           5      182962           0
</event>
<event>
      5   9999  3.19816E-02  5.36837E+02 -1.00000E+00  9.79828E-02
      21    -1     0     0   502   511  0.000000000E+00  0.000000000E+00  1.165479955E+03  1.165479955E+03  0.000000000E+00  0.00000E+00  9.000E+00
      21    -1     0     0   501   502  0.000000000E+00  0.000000000E+00 -7.387382316E+02  7.387382316E+02  0.000000000E+00  0.00000E+00  9.000E+00
      25     1     1     2     0     0 -2.054892765E+02 -1.280938528E+02  4.676536072E+02  5.412566621E+02  1.250000000E+02  0.00000E+00  9.000E+00
      25     1     1     2     0     0  1.251464889E+02  6.588845438E+02 -3.249087823E+02  7.556329814E+02  1.250000000E+02  0.00000E+00  9.000E+00
      21     1     1     2   501   511  8.034278767E+01 -5.307906910E+02  2.839968989E+02  6.073285435E+02  8.529922400E-06  0.00000E+00  9.000E+00
#rwgt            2          11   2.0795990620322518E-003           5      183139           0
</event>
<event>
      5   9999  3.19816E-02  1.13218E+01 -1.00000E+00  1.89724E-01
      -2    -1     0     0     0   501  0.000000000E+00  0.000000000E+00  6.630142384E+02  6.630142384E+02  0.000000000E+00  0.00000E+00  9.000E+00
      21    -1     0     0   501   502  0.000000000E+00  0.000000000E+00 -2.153792322E+02  2.153792322E+02  0.000000000E+00  0.00000E+00  9.000E+00
      25     1     1     2     0     0  1.431616140E+01 -2.384469833E+02 -2.191509069E+01  2.704943392E+02  1.250000000E+02  0.00000E+00  9.000E+00
      25     1     1     2     0     0 -2.247164192E+01  2.463001083E+02  2.089786293E+02  3.470818139E+02  1.250000000E+02  0.00000E+00  9.000E+00
      -2     1     1     2     0   502  8.155480517E+00 -7.853124984E+00  2.605714675E+02  2.608173175E+02  0.000000000E+00  0.00000E+00  9.000E+00
#rwgt            2           4   1.4424722523936097E-005           5      183219           0
</event>
<event>
      5   9999  3.19816E-02  3.65815E+01 -1.00000E+00  1.47288E-01
       2    -1     0     0   502     0  0.000000000E+00  0.000000000E+00  1.899645021E+03  1.899645021E+03  0.000000000E+00  0.00000E+00  9.000E+00
      21    -1     0     0   501   502  0.000000000E+00  0.000000000E+00 -1.078028529E+02  1.078028529E+02  0.000000000E+00  0.00000E+00  9.000E+00
      25     1     1     2     0     0 -1.502387297E+01  2.309640840E+02  1.850865025E+02  3.216397648E+02  1.250000000E+02  0.00000E+00  9.000E+00
      25     1     1     2     0     0 -2.014264826E+01 -2.208881551E+02  3.735734423E+02  4.520834216E+02  1.250000000E+02  0.00000E+00  9.000E+00
       2     1     1     2   501     0  3.516652124E+01 -1.007592892E+01  1.233182223E+03  1.233724687E+03  0.000000000E+00  0.00000E+00  9.000E+00
#rwgt            1           1   2.8669790073412797E-002           5      183238           0
</event>
<event>
      5   9999  3.19816E-02  1.78403E+02 -1.00000E+00  1.13485E-01
       2    -1     0     0   502     0  0.000000000E+00  0.000000000E+00  2.175216765E+03  2.175216765E+03  0.000000000E+00  0.00000E+00  9.000E+00
      21    -1     0     0   501   502  0.000000000E+00  0.000000000E+00 -3.383986612E+02  3.383986612E+02  0.000000000E+00  0.00000E+00  9.000E+00
      25     1     1     2     0     0 -6.261004888E+02  1.299413912E+02  9.926706728E+02  1.187394901E+03  1.250000000E+02  0.00000E+00  9.000E+00
      25     1     1     2     0     0  8.031730179E+02 -1.516921726E+02  5.903356546E+02  1.015981593E+03  1.250000000E+02  0.00000E+00  9.000E+00
       2     1     1     2   501     0 -1.770725292E+02  2.175078141E+01  2.538117766E+02  3.102389322E+02  2.697398305E-06  0.00000E+00  9.000E+00
#rwgt            2          18   1.1513575231624365E-003           5      183346           0
</event>
<event>
      5   9999  3.19816E-02  1.86844E+02 -1.00000E+00  1.12735E-01
       2    -1     0     0   502     0  0.000000000E+00  0.000000000E+00  9.290518667E+02  9.290518667E+02  0.000000000E+00  0.00000E+00  9.000E+00
      21    -1     0     0   501   502  0.000000000E+00  0.000000000E+00 -1.200527169E+03  1.200527169E+03  0.000000000E+00  0.00000E+00  9.000E+00
      25     1     1     2     0     0 -2.204642716E+01  3.712945654E+02 -7.517392827E+01  3.995269937E+02  1.250000000E+02  0.00000E+00  9.000E+00
      25     1     1     2     0     0 -7.825362192E+01 -5.289347512E+02 -8.711760432E+02  1.029790415E+03  1.250000000E+02  0.00000E+00  9.000E+00
       2     1     1     2   501     0  1.003000491E+02  1.576401858E+02  6.748746689E+02  7.002616274E+02  1.078959322E-05  0.00000E+00  9.000E+00
#rwgt            2          18   2.1164496039395727E-003           5      183410           0
</event>
<event>
      5   9999  3.19816E-02  6.67488E+01 -1.00000E+00  1.32275E-01
      21    -1     0     0   511   501  0.000000000E+00  0.000000000E+00  4.978134315E+02  4.978134315E+02  0.000000000E+00  0.00000E+00  9.000E+00
      21    -1     0     0   501   502  0.000000000E+00  0.000000000E+00 -7.981354295E+02  7.981354295E+02  0.000000000E+00  0.00000E+00  9.000E+00
      25     1     1     2     0     0  3.617669930E+02  3.260934969E+02  3.373341940E+00  5.028406362E+02  1.250000000E+02  0.00000E+00  9.000E+00
      25     1     1     2     0     0 -4.267961741E+02 -3.110400018E+02 -4.012330737E+02  6.749176515E+02  1.250000000E+02  0.00000E+00  9.000E+00
      21     1     1     2   511   502  6.502918108E+01 -1.505349515E+01  9.753773374E+01  1.181905733E+02  0.000000000E+00  0.00000E+00  9.000E+00
#rwgt            1           1   2.7495041986597288E-002           5      183459           0
</event>
<event>
      5   9999  3.19816E-02  1.72637E+02 -1.00000E+00  1.14025E-01
      21    -1     0     0   512   501  0.000000000E+00  0.000000000E+00  8.148558043E+02  8.148558043E+02  0.000000000E+00  0.00000E+00  9.000E+00
      21    -1     0     0   501   502  0.000000000E+00  0.000000000E+00 -3.670444032E+02  3.670444032E+02  0.000000000E+00  0.00000E+00  9.000E+00
      25     1     1     2     0     0 -3.879005815E+02 -8.238348583E+01  2.750176683E+02  4.985114018E+02  1.250000000E+02  0.00000E+00  9.000E+00
      25     1     1     2     0     0  3.148654027E+02  2.388101386E+02 -3.178911962E+01  4.156994735E+02  1.250000000E+02  0.00000E+00  9.000E+00
      21     1     1     2   512   502  7.303517876E+01 -1.564266528E+02  2.045828525E+02  2.676893322E+02  2.697398305E-06  0.00000E+00  9.000E+00
#rwgt            1           1   2.8087229586529171E-002           5      183591           0
</event>
<event>
      5   9999  3.19816E-02  2.55608E+01 -1.00000E+00  1.58033E-01
      21    -1     0     0   502   511  0.000000000E+00  0.000000000E+00  3.580692865E+02  3.580692865E+02  0.000000000E+00  0.00000E+00  9.000E+00
      21    -1     0     0   501   502  0.000000000E+00  0.000000000E+00 -7.625508328E+02  7.625508328E+02  0.000000000E+00  0.00000E+00  9.000E+00
      25     1     1     2     0     0 -1.873551147E+01  2.731791608E+02 -6.181609398E+02  6.875505951E+02  1.250000000E+02  0.00000E+00  9.000E+00
      25     1     1     2     0     0  1.970001738E+01 -2.987217539E+02  1.368537776E+02  3.521032993E+02  1.250000000E+02  0.00000E+00  9.000E+00
      21     1     1     2   501   511 -9.645059048E-01  2.554259309E+01  7.682561588E+01  8.096622499E+01  1.348699152E-06  0.00000E+00  9.000E+00
#rwgt            1           1   2.3771893849805641E-002           5      183665           0
</event>
<event>
      5   9999  3.19816E-02  3.35963E+01 -1.00000E+00  1.49701E-01
       2    -1     0     0   502     0  0.000000000E+00  0.000000000E+00  1.966651395E+03  1.966651395E+03  0.000000000E+00  0.00000E+00  9.000E+00
      21    -1     0     0   501   502  0.000000000E+00  0.000000000E+00 -4.452198564E+02  4.452198564E+02  0.000000000E+00  0.00000E+00  9.000E+00
      25     1     1     2     0     0  5.521400013E+02  2.509824791E+01  1.457837184E+02  5.851208385E+02  1.250000000E+02  0.00000E+00  9.000E+00
      25     1     1     2     0     0 -5.205726483E+02 -3.659674438E+01  9.415444629E+01  5.448167248E+02  1.250000000E+02  0.00000E+00  9.000E+00
       2     1     1     2   501     0 -3.156735297E+01  1.149849647E+01  1.281493374E+03  1.281933688E+03  1.525878906E-05  0.00000E+00  9.000E+00
#rwgt            1           1   2.9372201164501524E-002           5      183904           0
</event>
<event>
      5   9999  3.19816E-02  1.33427E+02 -1.00000E+00  1.18445E-01
      21    -1     0     0   502   501  0.000000000E+00  0.000000000E+00  5.618816579E+02  5.618816579E+02  0.000000000E+00  0.00000E+00  9.000E+00
      21    -1     0     0   501   511  0.000000000E+00  0.000000000E+00 -2.022131683E+02  2.022131683E+02  0.000000000E+00  0.00000E+00  9.000E+00
      25     1     1     2     0     0 -1.670073863E+02  3.608549996E+01  3.450690032E+02  4.048348396E+02  1.250000000E+02  0.00000E+00  9.000E+00
      25     1     1     2     0     0  3.406855625E+01 -4.749365282E+01  1.249171099E+02  1.861332800E+02  1.250000000E+02  0.00000E+00  9.000E+00
      21     1     1     2   502   511  1.329388301E+02  1.140815286E+01 -1.103176234E+02  1.731267066E+02  1.348699152E-06  0.00000E+00  9.000E+00
#rwgt            1           1   3.1404801728033879E-002           5      184096           0
</event>
<event>
      5   9999  3.19816E-02  5.33539E+01 -1.00000E+00  1.37486E-01
      21    -1     0     0   512   501  0.000000000E+00  0.000000000E+00  2.610892685E+02  2.610892685E+02  0.000000000E+00  0.00000E+00  9.000E+00
      21    -1     0     0   501   502  0.000000000E+00  0.000000000E+00 -6.616818490E+02  6.616818490E+02  0.000000000E+00  0.00000E+00  9.000E+00
      25     1     1     2     0     0 -1.433317086E+02 -2.578344154E+02 -3.658348856E+02  4.862948982E+02  1.250000000E+02  0.00000E+00  9.000E+00
      25     1     1     2     0     0  1.939504435E+02  2.746979721E+02 -7.878997248E+01  3.672990746E+02  1.250000000E+02  0.00000E+00  9.000E+00
      21     1     1     2   512   502 -5.061873491E+01 -1.686355672E+01  4.403227765E+01  6.917714466E+01  0.000000000E+00  0.00000E+00  9.000E+00
#rwgt            1           1   2.7384842930981340E-002           5      184143           0
</event>
<event>
      5   9999  3.19816E-02  6.11124E+01 -1.00000E+00  1.34278E-01
      21    -1     0     0   502   511  0.000000000E+00  0.000000000E+00  1.236878280E+03  1.236878280E+03  0.000000000E+00  0.00000E+00  9.000E+00
      21    -1     0     0   501   502  0.000000000E+00  0.000000000E+00 -4.219179187E+02  4.219179187E+02  0.000000000E+00  0.00000E+00  9.000E+00
      25     1     1     2     0     0 -1.747049161E+00  2.021521270E+02  9.315406375E+02  9.613851954E+02  1.250000000E+02  0.00000E+00  9.000E+00
      25     1     1     2     0     0  3.471797051E+01 -2.536073812E+02 -3.527807240E+02  4.534327740E+02  1.250000000E+02  0.00000E+00  9.000E+00
      21     1     1     2   501   511 -3.297092135E+01  5.145525427E+01  2.362004475E+02  2.439782290E+02  2.697398305E-06  0.00000E+00  9.000E+00
#rwgt            1           1   2.2349431470984785E-002           5      184251           0
</event>
<event>
      5   9999  3.19816E-02  5.75667E+00 -1.00000E+00  2.28301E-01
      21    -1     0     0   502   501  0.000000000E+00  0.000000000E+00  2.476445602E+02  2.476445602E+02  0.000000000E+00  0.00000E+00  9.000E+00
      21    -1     0     0   512   502  0.000000000E+00  0.000000000E+00 -2.010968068E+02  2.010968068E+02  0.000000000E+00  0.00000E+00  9.000E+00
      25     1     1     2     0     0 -1.357550882E+02  7.632813308E+00  6.307440616E+01  1.951693740E+02  1.250000000E+02  0.00000E+00  9.000E+00
      25     1     1     2     0     0  1.329804527E+02 -2.588945274E+00  4.804619204E+01  1.887430529E+02  1.250000000E+02  0.00000E+00  9.000E+00
      21     1     1     2   512   501  2.774635525E+00 -5.043868035E+00 -6.457284480E+01  6.482894024E+01  1.651812370E-06  0.00000E+00  9.000E+00
#rwgt            1           1   2.6293888472662511E-002           5      184425           0
</event>
<event>
      5   9999  3.19816E-02  2.20194E+01 -1.00000E+00  1.62994E-01
      21    -1     0     0   502   501  0.000000000E+00  0.000000000E+00  3.906833461E+02  3.906833461E+02  0.000000000E+00  0.00000E+00  9.000E+00
      21    -1     0     0   511   502  0.000000000E+00  0.000000000E+00 -6.648316438E+02  6.648316438E+02  0.000000000E+00  0.00000E+00  9.000E+00
      25     1     1     2     0     0 -3.164498320E+01  1.807259019E+02 -1.148009141E+02  2.499350045E+02  1.250000000E+02  0.00000E+00  9.000E+00
      25     1     1     2     0     0  1.899560957E+01 -1.987494320E+02  2.798725555E+02  3.658084433E+02  1.250000000E+02  0.00000E+00  9.000E+00
      21     1     1     2   511   501  1.264937363E+01  1.802353005E+01 -4.392199391E+02  4.397715421E+02  7.629394531E-06  0.00000E+00  9.000E+00
#rwgt            1           1   2.8255996671105479E-002           5      184635           0
</event>
<event>
      5   9999  3.19816E-02  1.11243E+01 -1.00000E+00  1.90556E-01
      21    -1     0     0   502   501  0.000000000E+00  0.000000000E+00  2.326134467E+02  2.326134467E+02  0.000000000E+00  0.00000E+00  9.000E+00
      21    -1     0     0   512   502  0.000000000E+00  0.000000000E+00 -1.823090937E+03  1.823090937E+03  0.000000000E+00  0.00000E+00  9.000E+00
      25     1     1     2     0     0  2.827216355E+02  1.843660383E+02 -1.229589136E+02  3.803501725E+02  1.250000000E+02  0.00000E+00  9.000E+00
      25     1     1     2     0     0 -2.742417149E+02 -1.915661236E+02 -2.029864802E+02  4.107731845E+02  1.250000000E+02  0.00000E+00  9.000E+00
      21     1     1     2   512   501 -8.479920594E+00  7.200085353E+00 -1.264532097E+03  1.264581027E+03  2.157918644E-05  0.00000E+00  9.000E+00
#rwgt            1           1   2.7953173763925858E-002           5      184835           0
</event>
<event>
      5   9999  3.19816E-02  1.05688E+02 -1.00000E+00  1.22757E-01
      21    -1     0     0   502   501  0.000000000E+00  0.000000000E+00  3.185150018E+02  3.185150018E+02  0.000000000E+00  0.00000E+00  9.000E+00
      21    -1     0     0   511   502  0.000000000E+00  0.000000000E+00 -2.250381756E+02  2.250381756E+02  0.000000000E+00  0.00000E+00  9.000E+00
      25     1     1     2     0     0 -3.156633916E+01 -1.741082218E+02  1.468827469E+02  2.617434775E+02  1.250000000E+02  0.00000E+00  9.000E+00
      25     1     1     2     0     0 -1.721715277E+01  8.035227963E+01  2.306116846E+01  1.513596270E+02  1.250000000E+02  0.00000E+00  9.000E+00
      21     1     1     2   511   501  4.878349194E+01  9.375594219E+01 -7.646708917E+01  1.304500729E+02  2.336015456E-06  0.00000E+00  9.000E+00
#rwgt            1           1   2.3803486949232205E-002           5      185131           0
</event>
<event>
      5   9999  3.19816E-02  1.42173E+02 -1.00000E+00  1.17323E-01
      21    -1     0     0   502   501  0.000000000E+00  0.000000000E+00  1.246639618E+03  1.246639618E+03  0.000000000E+00  0.00000E+00  9.000E+00
      21    -1     0     0   512   502  0.000000000E+00  0.000000000E+00 -4.349382128E+02  4.349382128E+02  0.000000000E+00  0.00000E+00  9.000E+00
      25     1     1     2     0     0  2.620453910E+02 -3.006364707E+02 -1.910892968E+02  4.595543426E+02  1.250000000E+02  0.00000E+00  9.000E+00
      25     1     1     2     0     0 -2.858241538E+02  1.604656959E+02  1.020159244E+03  1.078793107E+03  1.250000000E+02  0.00000E+00  9.000E+00
      21     1     1     2   512   501  2.377876277E+01  1.401707747E+02 -1.736854184E+01  1.432303805E+02  3.242843272E-06  0.00000E+00  9.000E+00
#rwgt            1           1   2.9192361837738441E-002           5      185194           0
</event>
<event>
      5   9999  3.19816E-02  7.88329E+01 -1.00000E+00  1.28659E-01
      21    -1     0     0   511   501  0.000000000E+00  0.000000000E+00  4.196567551E+02  4.196567551E+02  0.000000000E+00  0.00000E+00  9.000E+00
      21    -1     0     0   501   502  0.000000000E+00  0.000000000E+00 -1.394700975E+03  1.394700975E+03  0.000000000E+00  0.00000E+00  9.000E+00
      25     1     1     2     0     0 -2.130631916E+02  4.420981405E+02 -9.882196765E+01  5.159820450E+02  1.250000000E+02  0.00000E+00  9.000E+00
      25     1     1     2     0     0  2.197790800E+02 -5.206444187E+02 -9.977757765E+02  1.153496838E+03  1.250000000E+02  0.00000E+00  9.000E+00
      21     1     1     2   511   502 -6.715888422E+00  7.854627824E+01  1.215535246E+02  1.448788470E+02  2.336015456E-06  0.00000E+00  9.000E+00
#rwgt            1           1   3.2463750682383073E-002           5      185257           0
</event>
<event>
      5   9999  3.19816E-02  3.32403E+01 -1.00000E+00  1.50009E-01
      21    -1     0     0   502   501  0.000000000E+00  0.000000000E+00  7.594454780E+02  7.594454780E+02  0.000000000E+00  0.00000E+00  9.000E+00
      -2    -1     0     0     0   502  0.000000000E+00  0.000000000E+00 -4.566518497E+02  4.566518497E+02  0.000000000E+00  0.00000E+00  9.000E+00
      25     1     1     2     0     0 -1.218354484E+02 -8.688195217E+01  5.947928743E+01  2.038507683E+02  1.250000000E+02  0.00000E+00  9.000E+00
      25     1     1     2     0     0  1.096213491E+02  5.596706882E+01  6.147686456E+02  6.393079388E+02  1.250000000E+02  0.00000E+00  9.000E+00
      -2     1     1     2     0   501  1.221409930E+01  3.091488334E+01 -3.714543047E+02  3.729386206E+02  5.394796609E-06  0.00000E+00  9.000E+00
#rwgt            1           1   3.0792545440672729E-002           5      185376           0
</event>
<event>
      5   9999  3.19816E-02  1.57711E+02 -1.00000E+00  1.15537E-01
      21    -1     0     0   502   501  0.000000000E+00  0.000000000E+00  8.042924501E+02  8.042924501E+02  0.000000000E+00  0.00000E+00  9.000E+00
       1    -1     0     0   501     0  0.000000000E+00  0.000000000E+00 -5.801469126E+02  5.801469126E+02  0.000000000E+00  0.00000E+00  9.000E+00
      25     1     1     2     0     0 -3.887973789E+02  4.346065415E+02  1.307982609E+02  6.105566582E+02  1.250000000E+02  0.00000E+00  9.000E+00
      25     1     1     2     0     0  4.565003598E+02 -2.921672103E+02 -5.299106907E+01  5.587372465E+02  1.250000000E+02  0.00000E+00  9.000E+00
       1     1     1     2   502     0 -6.770298085E+01 -1.424393313E+02  1.463383457E+02  2.151454581E+02  2.697398305E-06  0.00000E+00  9.000E+00
#rwgt            2          12   3.7753716067495503E-005           5      185538           0
</event>
<event>
      5   9999  3.19816E-02  1.41978E+01 -1.00000E+00  1.79662E-01
      21    -1     0     0   502   501  0.000000000E+00  0.000000000E+00  9.232833408E+01  9.232833408E+01  0.000000000E+00  0.00000E+00  9.000E+00
      21    -1     0     0   511   502  0.000000000E+00  0.000000000E+00 -1.395644317E+03  1.395644317E+03  0.000000000E+00  0.00000E+00  9.000E+00
      25     1     1     2     0     0  7.414140597E+01  3.441866584E+01  2.251512088E+01  1.510414622E+02  1.250000000E+02  0.00000E+00  9.000E+00
      25     1     1     2     0     0 -6.568492088E+01 -2.301409012E+01 -9.387473444E+02  9.495871386E+02  1.250000000E+02  0.00000E+00  9.000E+00
      21     1     1     2   511   501 -8.456485096E+00 -1.140457571E+01 -3.870837598E+02  3.873440506E+02  5.394796609E-06  0.00000E+00  9.000E+00
#rwgt            1           1   2.8243296490046064E-002           5      185572           0
</event>
<event>
      5   9999  3.19816E-02  9.54996E+01 -1.00000E+00  1.24734E-01
      21    -1     0     0   502   501  0.000000000E+00  0.000000000E+00  4.392085236E+02  4.392085236E+02  0.000000000E+00  0.00000E+00  9.000E+00
      21    -1     0     0   512   502  0.000000000E+00  0.000000000E+00 -7.428749677E+02  7.428749677E+02  0.000000000E+00  0.00000E+00  9.000E+00
      25     1     1     2     0     0 -2.870020586E+02 -2.682564473E+01 -5.693636686E+02  6.502997647E+02  1.250000000E+02  0.00000E+00  9.000E+00
      25     1     1     2     0     0  2.567460541E+02 -6.375441132E+01  3.102053404E+02  4.264217566E+02  1.250000000E+02  0.00000E+00  9.000E+00
      21     1     1     2   512   501  3.025600444E+01  9.058005606E+01 -4.450811583E+01  1.053619701E+02  1.651812370E-06  0.00000E+00  9.000E+00
#rwgt            1           1   2.8338193777878950E-002           5      185774           0
</event>
<event>
      5   9999  3.19816E-02  3.89813E+01 -1.00000E+00  1.45538E-01
      21    -1     0     0   502   501  0.000000000E+00  0.000000000E+00  1.882866602E+02  1.882866602E+02  0.000000000E+00  0.00000E+00  9.000E+00
      21    -1     0     0   511   502  0.000000000E+00  0.000000000E+00 -4.091608767E+02  4.091608767E+02  0.000000000E+00  0.00000E+00  9.000E+00
      25     1     1     2     0     0 -1.302715349E+02  1.966854070E+02 -1.372324179E+02  3.001892048E+02  1.250000000E+02  0.00000E+00  9.000E+00
      25     1     1     2     0     0  1.397408338E+02 -1.588717310E+02 -6.591511172E+01  2.544357080E+02  1.250000000E+02  0.00000E+00  9.000E+00
      21     1     1     2   511   501 -9.469298830E+00 -3.781367599E+01 -1.772668696E+01  4.282262420E+01  1.039242493E-06  0.00000E+00  9.000E+00
#rwgt            1           1   2.6366764230396078E-002           5      185850           0
</event>
<event>
      5   9999  3.19816E-02  3.59215E+01 -1.00000E+00  1.47798E-01
      21    -1     0     0   502   501  0.000000000E+00  0.000000000E+00  3.401167883E+02  3.401167883E+02  0.000000000E+00  0.00000E+00  9.000E+00
      21    -1     0     0   501   512  0.000000000E+00  0.000000000E+00 -3.068979509E+02  3.068979509E+02  0.000000000E+00  0.00000E+00  9.000E+00
      25     1     1     2     0     0  5.833882142E+01 -2.270118213E+02  1.187055896E+02  2.909532644E+02  1.250000000E+02  0.00000E+00  9.000E+00
      25     1     1     2     0     0 -5.839048996E+01  2.629332690E+02 -4.236582803E+01  2.999386881E+02  1.250000000E+02  0.00000E+00  9.000E+00
      21     1     1     2   502   512  5.166854785E-02 -3.592144770E+01 -4.312092415E+01  5.612278659E+01  8.259061849E-07  0.00000E+00  9.000E+00
#rwgt            1           1   2.6913288832937605E-002           5      185918           0
</event>
<event>
      5   9999  3.19816E-02  2.79268E+01 -1.00000E+00  1.55232E-01
       2    -1     0     0   502     0  0.000000000E+00  0.000000000E+00  3.685653934E+03  3.685653934E+03  0.000000000E+00  0.00000E+00  9.000E+00
      21    -1     0     0   501   502  0.000000000E+00  0.000000000E+00 -5.746357174E+01  5.746357174E+01  0.000000000E+00  0.00000E+00  9.000E+00
      25     1     1     2     0     0 -3.228961786E+02 -1.430786911E+02  1.303242644E+03  1.356023541E+03  1.250000000E+02  0.00000E+00  9.000E+00
      25     1     1     2     0     0  3.500228495E+02  1.497156053E+02  1.268586389E+03  1.330363553E+03  1.250000000E+02  0.00000E+00  9.000E+00
       2     1     1     2   501     0 -2.712667088E+01 -6.636914237E+00  1.056361330E+03  1.056730412E+03  1.525878906E-05  0.00000E+00  9.000E+00
#rwgt            1           1   7.6934400699135458E-002           5      186024           0
</event>
<event>
      5   9999  3.19816E-02  5.04147E+01 -1.00000E+00  1.38871E-01
      21    -1     0     0   502   501  0.000000000E+00  0.000000000E+00  1.593623106E+02  1.593623106E+02  0.000000000E+00  0.00000E+00  9.000E+00
      21    -1     0     0   511   502  0.000000000E+00  0.000000000E+00 -6.731747886E+02  6.731747886E+02  0.000000000E+00  0.00000E+00  9.000E+00
      25     1     1     2     0     0 -1.869496568E+02  1.324979620E+02 -3.290804707E+02  4.200295708E+02  1.250000000E+02  0.00000E+00  9.000E+00
      25     1     1     2     0     0  2.041823867E+02 -1.798759463E+02 -1.033664958E+02  3.167892605E+02  1.250000000E+02  0.00000E+00  9.000E+00
      21     1     1     2   511   501 -1.723272993E+01  4.737798429E+01 -8.136551141E+01  9.571826797E+01  9.536743164E-07  0.00000E+00  9.000E+00
#rwgt            1           1   2.8276293800619898E-002           5      186202           0
</event>
<event>
      5   9999  3.19816E-02  8.79408E+01 -1.00000E+00  1.26391E-01
      21    -1     0     0   502   501  0.000000000E+00  0.000000000E+00  7.856880072E+02  7.856880072E+02  0.000000000E+00  0.00000E+00  9.000E+00
      21    -1     0     0   501   512  0.000000000E+00  0.000000000E+00 -1.193465608E+02  1.193465608E+02  0.000000000E+00  0.00000E+00  9.000E+00
      25     1     1     2     0     0  1.668116356E+02 -3.088718640E+01  4.132117045E+02  4.638416247E+02  1.250000000E+02  0.00000E+00  9.000E+00
      25     1     1     2     0     0 -2.405698274E+02 -1.700130117E+01  1.717907884E+02  3.214031130E+02  1.250000000E+02  0.00000E+00  9.000E+00
      21     1     1     2   502   512  7.375819173E+01  4.788848757E+01  8.133895351E+01  1.197898303E+02  9.536743164E-07  0.00000E+00  9.000E+00
#rwgt            2          11   3.2831006070727698E-003           5      186378           0
</event>
<event>
      5   9999  3.19816E-02  6.82415E+01 -1.00000E+00  1.31783E-01
      21    -1     0     0   502   501  0.000000000E+00  0.000000000E+00  6.653531512E+02  6.653531512E+02  0.000000000E+00  0.00000E+00  9.000E+00
      21    -1     0     0   511   502  0.000000000E+00  0.000000000E+00 -6.601354704E+02  6.601354704E+02  0.000000000E+00  0.00000E+00  9.000E+00
      25     1     1     2     0     0  2.539727546E+01 -1.034728597E+02  6.232358574E+02  6.445150023E+02  1.250000000E+02  0.00000E+00  9.000E+00
      25     1     1     2     0     0 -1.065983644E+01  1.701040066E+02 -3.983671525E+02  4.509660668E+02  1.250000000E+02  0.00000E+00  9.000E+00
      21     1     1     2   511   501 -1.473743902E+01 -6.663114686E+01 -2.196510240E+02  2.300075525E+02  3.814697266E-06  0.00000E+00  9.000E+00
#rwgt            1           1   3.0471010043211913E-002           5      186398           0
</event>
<event>
      5   9999  3.19816E-02  1.61380E+02 -1.00000E+00  1.15149E-01
      21    -1     0     0   502   501  0.000000000E+00  0.000000000E+00  1.705289041E+02  1.705289041E+02  0.000000000E+00  0.00000E+00  9.000E+00
       1    -1     0     0   501     0  0.000000000E+00  0.000000000E+00 -1.855270659E+03  1.855270659E+03  0.000000000E+00  0.00000E+00  9.000E+00
      25     1     1     2     0     0  1.036962926E+01  6.619703726E+01  1.085840994E+02  1.786199418E+02  1.250000000E+02  0.00000E+00  9.000E+00
      25     1     1     2     0     0  1.509036417E+02 -6.033702736E+01 -4.538014487E+02  4.979690962E+02  1.250000000E+02  0.00000E+00  9.000E+00
       1     1     1     2   502     0 -1.612732709E+02 -5.860009894E+00 -1.339524406E+03  1.349210525E+03  1.525878906E-05  0.00000E+00  9.000E+00
#rwgt            1           1   2.6681184327154082E-002           5      186532           0
</event>
<event>
      5   9999  3.19816E-02  5.74271E+01 -1.00000E+00  1.35728E-01
      21    -1     0     0   502   501  0.000000000E+00  0.000000000E+00  8.818073657E+01  8.818073657E+01  0.000000000E+00  0.00000E+00  9.000E+00
      21    -1     0     0   501   511  0.000000000E+00  0.000000000E+00 -8.135770449E+02  8.135770449E+02  0.000000000E+00  0.00000E+00  9.000E+00
      25     1     1     2     0     0  1.980562312E+02 -8.182214193E+00 -3.778553489E+02  4.446266794E+02  1.250000000E+02  0.00000E+00  9.000E+00
      25     1     1     2     0     0 -1.753367079E+02  6.092400243E+01 -2.051221735E+02  3.035700929E+02  1.250000000E+02  0.00000E+00  9.000E+00
      21     1     1     2   502   511 -2.271952328E+01 -5.274178823E+01 -1.424187859E+02  1.535610092E+02  1.907348633E-06  0.00000E+00  9.000E+00
#rwgt            1           1   2.7102105937536935E-002           5      186640           0
</event>
<event>
      5   9999  3.19816E-02  1.60378E+01 -1.00000E+00  1.74690E-01
      21    -1     0     0   502   501  0.000000000E+00  0.000000000E+00  2.495973294E+03  2.495973294E+03  0.000000000E+00  0.00000E+00  9.000E+00
      -3    -1     0     0     0   502  0.000000000E+00  0.000000000E+00 -3.340638466E+01  3.340638466E+01  0.000000000E+00  0.00000E+00  9.000E+00
      25     1     1     2     0     0  6.851789898E+01 -9.880647532E+01  1.850310768E+03  1.858422008E+03  1.250000000E+02  0.00000E+00  9.000E+00
      25     1     1     2     0     0 -5.857232265E+01  1.113880333E+02  6.254964768E+02  6.501606367E+02  1.250000000E+02  0.00000E+00  9.000E+00
      -3     1     1     2     0   501 -9.945576335E+00 -1.258155798E+01 -1.324033615E+01  2.079703323E+01  1.572478528E-06  0.00000E+00  9.000E+00
#rwgt            1           1   4.6301620029154694E-002           5      186704           0
</event>
<event>
      5   9999  3.19816E-02  1.72029E+02 -1.00000E+00  1.14083E-01
      21    -1     0     0   511   501  0.000000000E+00  0.000000000E+00  1.312943415E+03  1.312943415E+03  0.000000000E+00  0.00000E+00  9.000E+00
      21    -1     0     0   501   502  0.000000000E+00  0.000000000E+00 -4.522658306E+02  4.522658306E+02  0.000000000E+00  0.00000E+00  9.000E+00
      25     1     1     2     0     0 -1.815253806E+02  1.973080760E+02  7.143542154E+02  7.731810174E+02  1.250000000E+02  0.00000E+00  9.000E+00
      25     1     1     2     0     0  1.730323306E+02 -3.691273621E+02 -2.949057067E+02  5.184491998E+02  1.250000000E+02  0.00000E+00  9.000E+00
      21     1     1     2   511   502  8.493049991E+00  1.718192861E+02  4.412290757E+02  4.735790285E+02  5.394796609E-06  0.00000E+00  9.000E+00
#rwgt            2          11   3.1813479040508309E-003           5      186950           0
</event>
<event>
      5   9999  3.44647E-02  2.39252E+01 -1.00000E+00  1.60194E-01
      21    -1     0     0   502   501  0.000000000E+00  0.000000000E+00  4.193719705E+01  4.193719705E+01  0.000000000E+00  0.00000E+00  9.000E+00
      21    -1     0     0   512   502  0.000000000E+00  0.000000000E+00 -8.054162722E+02  8.054162722E+02  0.000000000E+00  0.00000E+00  9.000E+00
      25     1     1     2     0     0  4.172414250E+01 -9.087483392E+01 -3.555242936E+02  3.898995548E+02  1.250000000E+02  0.00000E+00  9.000E+00
      25     1     1     2     0     0 -2.347743553E+01  7.539995883E+01 -2.031659977E+02  2.512722954E+02  1.250000000E+02  0.00000E+00  9.000E+00
      21     1     1     2   512   501 -1.824670697E+01  1.547487509E+01 -2.047887838E+02  2.061816191E+02  0.000000000E+00  0.00000E+00  9.000E+00
#rwgt            1           1   8.8478574381104305E-002           5      186985           0
</event>
<event>
      5   9999  3.19816E-02  2.97679E+01 -1.00000E+00  1.53274E-01
      21    -1     0     0   502   501  0.000000000E+00  0.000000000E+00  1.556818374E+02  1.556818374E+02  0.000000000E+00  0.00000E+00  9.000E+00
      21    -1     0     0   501   511  0.000000000E+00  0.000000000E+00 -7.168380168E+02  7.168380168E+02  0.000000000E+00  0.00000E+00  9.000E+00
      25     1     1     2     0     0  1.041700925E+02  6.011799964E+00 -5.999234108E+02  6.216274196E+02  1.250000000E+02  0.00000E+00  9.000E+00
      25     1     1     2     0     0 -1.221399755E+02 -2.974386624E+01  8.445050812E+01  1.963663910E+02  1.250000000E+02  0.00000E+00  9.000E+00
      21     1     1     2   502   511  1.796988301E+01  2.373206627E+01 -4.568327672E+01  5.452604366E+01  6.743495762E-07  0.00000E+00  9.000E+00
#rwgt            1           1   2.5025997273043197E-002           5      187063           0
</event>
<event>
      5   9999  3.19816E-02  2.91347E+01 -1.00000E+00  1.53928E-01
      21    -1     0     0   502   501  0.000000000E+00  0.000000000E+00  2.109890482E+02  2.109890482E+02  0.000000000E+00  0.00000E+00  9.000E+00
      21    -1     0     0   501   512  0.000000000E+00  0.000000000E+00 -5.620812134E+02  5.620812134E+02  0.000000000E+00  0.00000E+00  9.000E+00
      25     1     1     2     0     0  9.994079424E+01  3.364908648E+01 -8.661471483E+00  1.637694857E+02  1.250000000E+02  0.00000E+00  9.000E+00
      25     1     1     2     0     0 -7.751701367E+01 -1.504794172E+01  9.183969518E+01  1.740541800E+02  1.250000000E+02  0.00000E+00  9.000E+00
      21     1     1     2   502   512 -2.242378057E+01 -1.860114475E+01 -4.342703889E+02  4.352465959E+02  5.394796609E-06  0.00000E+00  9.000E+00
#rwgt            1           1   2.6343570073929623E-002           5      187233           0
</event>
<event>
      5   9999  3.19816E-02  3.89557E+01 -1.00000E+00  1.45556E-01
      -4    -1     0     0     0   501  0.000000000E+00  0.000000000E+00  5.123114741E+02  5.123114741E+02  0.000000000E+00  0.00000E+00  9.000E+00
      21    -1     0     0   501   502  0.000000000E+00  0.000000000E+00 -2.327765085E+02  2.327765085E+02  0.000000000E+00  0.00000E+00  9.000E+00
      25     1     1     2     0     0  1.486286692E+02  9.385675486E+01 -1.467351577E+02  2.608750242E+02  1.250000000E+02  0.00000E+00  9.000E+00
      25     1     1     2     0     0 -1.191018828E+02 -6.844580344E+01  3.077100879E+02  3.594170067E+02  1.250000000E+02  0.00000E+00  9.000E+00
      -4     1     1     2     0   502 -2.952678635E+01 -2.541095141E+01  1.185600354E+02  1.247959517E+02  1.348699152E-06  0.00000E+00  9.000E+00
#rwgt            2           2   5.5888975031434466E-006           5      187370           0
</event>
<event>
      5   9999  3.19816E-02  7.95601E+01 -1.00000E+00  1.28465E-01
      21    -1     0     0   511   501  0.000000000E+00  0.000000000E+00  2.694172976E+02  2.694172976E+02  0.000000000E+00  0.00000E+00  9.000E+00
      21    -1     0     0   501   502  0.000000000E+00  0.000000000E+00 -1.045639209E+03  1.045639209E+03  0.000000000E+00  0.00000E+00  9.000E+00
      25     1     1     2     0     0  2.281055177E+02 -3.547185473E+02 -4.340363387E+02  6.179562430E+02  1.250000000E+02  0.00000E+00  9.000E+00
      25     1     1     2     0     0 -1.493881452E+02  3.431692855E+02 -4.265911443E+02  5.811084071E+02  1.250000000E+02  0.00000E+00  9.000E+00
      21     1     1     2   511   502 -7.871737249E+01  1.154926183E+01  8.440557177E+01  1.159918563E+02  9.536743164E-07  0.00000E+00  9.000E+00
#rwgt            1           1   2.8993470582110950E-002           5      187389           0
</event>
<event>
      5   9999  3.19816E-02  1.37424E+02 -1.00000E+00  1.17921E-01
      21    -1     0     0   502   512  0.000000000E+00  0.000000000E+00  1.040370879E+03  1.040370879E+03  0.000000000E+00  0.00000E+00  9.000E+00
      21    -1     0     0   501   502  0.000000000E+00  0.000000000E+00 -8.526285574E+02  8.526285574E+02  0.000000000E+00  0.00000E+00  9.000E+00
      25     1     1     2     0     0  5.350535892E+01 -8.058880898E+00 -3.131707653E+02  3.415094394E+02  1.250000000E+02  0.00000E+00  9.000E+00
      25     1     1     2     0     0 -1.847508817E+02  4.880176458E+01 -4.955330971E+02  5.456120883E+02  1.250000000E+02  0.00000E+00  9.000E+00
      21     1     1     2   501   512  1.312455228E+02 -4.074288368E+01  9.964461844E+02  1.005877909E+03  1.078959322E-05  0.00000E+00  9.000E+00
#rwgt            1           1   3.3101927565868133E-002           5      187554           0
</event>
<event>
      5   9999  3.19816E-02  6.39171E+01 -1.00000E+00  1.33252E-01
      21    -1     0     0   502   501  0.000000000E+00  0.000000000E+00  4.668636267E+02  4.668636267E+02  0.000000000E+00  0.00000E+00  9.000E+00
      21    -1     0     0   511   502  0.000000000E+00  0.000000000E+00 -5.539275154E+02  5.539275154E+02  0.000000000E+00  0.00000E+00  9.000E+00
      25     1     1     2     0     0 -1.082170145E+02  3.308322384E+01  3.684125523E+02  4.051644489E+02  1.250000000E+02  0.00000E+00  9.000E+00
      25     1     1     2     0     0  1.304575834E+02  2.683967803E+01 -2.967474835E+01  1.850544246E+02  1.250000000E+02  0.00000E+00  9.000E+00
      21     1     1     2   511   501 -2.224056888E+01 -5.992290187E+01 -4.258016927E+02  4.305722687E+02  5.394796609E-06  0.00000E+00  9.000E+00
#rwgt            1           1   2.6780886104856502E-002           5      187592           0
</event>
<event>
      5   9999  3.19816E-02  7.70409E+02 -1.00000E+00  9.37956E-02
      21    -1     0     0   502   501  0.000000000E+00  0.000000000E+00  1.033829880E+03  1.033829880E+03  0.000000000E+00  0.00000E+00  9.000E+00
       2    -1     0     0   501     0  0.000000000E+00  0.000000000E+00 -2.147479184E+03  2.147479184E+03  0.000000000E+00  0.00000E+00  9.000E+00
      25     1     1     2     0     0 -9.052391822E+02  2.668024164E+02  5.782195465E+02  1.113824201E+03  1.250000000E+02  0.00000E+00  9.000E+00
      25     1     1     2     0     0  1.511811075E+02 -1.089193441E+02 -1.831813569E+01  2.251215336E+02  1.250000000E+02  0.00000E+00  9.000E+00
       2     1     1     2   502     0  7.540580747E+02 -1.578830723E+02 -1.673550715E+03  1.842363330E+03  2.157918644E-05  0.00000E+00  9.000E+00
#rwgt            2          13   1.9341335804169998E-003           5      187780           0
</event>
<event>
      5   9999  3.19816E-02  3.61348E+02 -1.00000E+00  1.03031E-01
      21    -1     0     0   511   501  0.000000000E+00  0.000000000E+00  5.343002479E+02  5.343002479E+02  0.000000000E+00  0.00000E+00  9.000E+00
      21    -1     0     0   501   502  0.000000000E+00  0.000000000E+00 -9.039437275E+02  9.039437275E+02  0.000000000E+00  0.00000E+00  9.000E+00
      25     1     1     2     0     0  1.760417099E+02  5.547809690E+01 -5.012383400E+02  5.485739479E+02  1.250000000E+02  0.00000E+00  9.000E+00
      25     1     1     2     0     0 -3.005088442E+02 -3.947132124E+02  2.199928748E+01  5.120674312E+02  1.250000000E+02  0.00000E+00  9.000E+00
      21     1     1     2   511   502  1.244671343E+02  3.392351155E+02  1.095955729E+02  3.776025962E+02  5.223489356E-06  0.00000E+00  9.000E+00
#rwgt            2          11   3.0737860169041077E-003           5      187859           0
</event>
<event>
      5   9999  3.19816E-02  1.55310E+02 -1.00000E+00  1.15798E-01
      21    -1     0     0   502   501  0.000000000E+00  0.000000000E+00  2.242176062E+02  2.242176062E+02  0.000000000E+00  0.00000E+00  9.000E+00
      21    -1     0     0   512   502  0.000000000E+00  0.000000000E+00 -6.688183701E+02  6.688183701E+02  0.000000000E+00  0.00000E+00  9.000E+00
      25     1     1     2     0     0  1.526033787E+01 -1.205008680E+02 -3.028682924E+02  3.494388926E+02  1.250000000E+02  0.00000E+00  9.000E+00
      25     1     1     2     0     0 -1.466404395E+02  2.033282260E+02  6.250552519E+01  2.870152029E+02  1.250000000E+02  0.00000E+00  9.000E+00
      21     1     1     2   512   501  1.313801016E+02 -8.282735798E+01 -2.042379966E+02  2.565818808E+02  3.814697266E-06  0.00000E+00  9.000E+00
#rwgt            1           1   2.8170248284686616E-002           5      187879           0
</event>
<event>
      5   9999  3.19816E-02  6.83373E+01 -1.00000E+00  1.31752E-01
      21    -1     0     0   511   501  0.000000000E+00  0.000000000E+00  2.962480440E+02  2.962480440E+02  0.000000000E+00  0.00000E+00  9.000E+00
      21    -1     0     0   501   502  0.000000000E+00  0.000000000E+00 -4.096946782E+02  4.096946782E+02  0.000000000E+00  0.00000E+00  9.000E+00
      25     1     1     2     0     0 -2.261127900E+02  5.029854232E-01 -6.728948115E+01  2.669833723E+02  1.250000000E+02  0.00000E+00  9.000E+00
      25     1     1     2     0     0  1.950699430E+02  6.037667307E+01 -1.726555907E+02  2.951822798E+02  1.250000000E+02  0.00000E+00  9.000E+00
      21     1     1     2   511   502  3.104284696E+01 -6.087965850E+01  1.264984376E+02  1.437770701E+02  1.348699152E-06  0.00000E+00  9.000E+00
#rwgt            1           1   3.0956662675956047E-002           5      187954           0
</event>
<event>
      5   9999  3.19816E-02  3.71461E+01 -1.00000E+00  1.46862E-01
      21    -1     0     0   502   501  0.000000000E+00  0.000000000E+00  1.417312790E+03  1.417312790E+03  0.000000000E+00  0.00000E+00  9.000E+00
      21    -1     0     0   501   512  0.000000000E+00  0.000000000E+00 -3.146996363E+02  3.146996363E+02  0.000000000E+00  0.00000E+00  9.000E+00
      25     1     1     2     0     0  3.961462354E+01 -2.547747316E+01  1.224722363E+03  1.231985506E+03  1.250000000E+02  0.00000E+00  9.000E+00
      25     1     1     2     0     0 -7.435608331E+01  1.232971317E+01  1.593669205E+02  2.161103059E+02  1.250000000E+02  0.00000E+00  9.000E+00
      21     1     1     2   502   512  3.474145977E+01  1.314776000E+01 -2.814761296E+02  2.839166148E+02  8.529922400E-06  0.00000E+00  9.000E+00
#rwgt            1           1   3.7727034845623585E-002           5      188032           0
</event>
<event>
      5   9999  3.19816E-02  2.92515E+01 -1.00000E+00  1.53806E-01
      21    -1     0     0   502   511  0.000000000E+00  0.000000000E+00  1.396322813E+02  1.396322813E+02  0.000000000E+00  0.00000E+00  9.000E+00
      21    -1     0     0   501   502  0.000000000E+00  0.000000000E+00 -6.242141403E+02  6.242141403E+02  0.000000000E+00  0.00000E+00  9.000E+00
      25     1     1     2     0     0 -6.985663109E+01  7.264785278E+01  2.905821548E+01  1.631779376E+02  1.250000000E+02  0.00000E+00  9.000E+00
      25     1     1     2     0     0  4.066989829E+01 -7.459291701E+01 -5.403302433E+02  5.610703305E+02  1.250000000E+02  0.00000E+00  9.000E+00
      21     1     1     2   501   511  2.918673280E+01  1.945064229E+00  2.669016887E+01  3.959815351E+01  5.840038640E-07  0.00000E+00  9.000E+00
#rwgt            1           1   3.2592110411761320E-002           5      188090           0
</event>
<event>
      5   9999  3.19816E-02  2.46054E+02 -1.00000E+00  1.08467E-01
       2    -1     0     0   502     0  0.000000000E+00  0.000000000E+00  2.020739821E+02  2.020739821E+02  0.000000000E+00  0.00000E+00  9.000E+00
      21    -1     0     0   501   502  0.000000000E+00  0.000000000E+00 -6.634486605E+02  6.634486605E+02  0.000000000E+00  0.00000E+00  9.000E+00
      25     1     1     2     0     0 -2.152455870E+02 -2.297770292E+02 -2.472593376E+02  4.193928063E+02  1.250000000E+02  0.00000E+00  9.000E+00
      25     1     1     2     0     0  5.985865218E+01  3.899611757E+01 -6.128474244E+01  1.564754776E+02  1.250000000E+02  0.00000E+00  9.000E+00
       2     1     1     2   501     0  1.553869348E+02  1.907809117E+02 -1.528305983E+02  2.896543588E+02  6.325959759E-06  0.00000E+00  9.000E+00
#rwgt            2          18   9.6253727225743208E-005           5      188297           0
</event>
<event>
      5   9999  3.19816E-02  4.51888E+01 -1.00000E+00  1.41630E-01
      21    -1     0     0   502   501  0.000000000E+00  0.000000000E+00  4.538644737E+02  4.538644737E+02  0.000000000E+00  0.00000E+00  9.000E+00
      21    -1     0     0   511   502  0.000000000E+00  0.000000000E+00 -3.362151489E+02  3.362151489E+02  0.000000000E+00  0.00000E+00  9.000E+00
      25     1     1     2     0     0  3.148529959E+02 -5.074286081E+01  2.416152789E+02  4.191779932E+02  1.250000000E+02  0.00000E+00  9.000E+00
      25     1     1     2     0     0 -2.761710393E+02  2.738192475E+01 -1.086843727E+02  3.231988639E+02  1.250000000E+02  0.00000E+00  9.000E+00
      21     1     1     2   511   501 -3.868195660E+01  2.336093606E+01 -1.528158146E+01  4.770276545E+01  3.769728732E-07  0.00000E+00  9.000E+00
#rwgt            1           1   3.0168965699511888E-002           5      188346           0
</event>
<event>
      5   9999  3.19816E-02  7.42238E+01 -1.00000E+00  1.29945E-01
      21    -1     0     0   502   501  0.000000000E+00  0.000000000E+00  1.059441867E+02  1.059441867E+02  0.000000000E+00  0.00000E+00  9.000E+00
      21    -1     0     0   501   512  0.000000000E+00  0.000000000E+00 -1.418118618E+03  1.418118618E+03  0.000000000E+00  0.00000E+00  9.000E+00
      25     1     1     2     0     0 -3.164647873E+02 -8.096285848E+01 -3.686720929E+02  5.081821112E+02  1.250000000E+02  0.00000E+00  9.000E+00
      25     1     1     2     0     0  2.502686395E+02  1.145373377E+02 -7.653940150E+02  8.229253866E+02  1.250000000E+02  0.00000E+00  9.000E+00
      21     1     1     2   502   512  6.619614779E+01 -3.357447921E+01 -1.781083237E+02  1.929553073E+02  3.303624740E-06  0.00000E+00  9.000E+00
#rwgt            1           1   3.3774532162871428E-002           5      188474           0
</event>
<event>
      5   9999  3.19816E-02  1.74851E+02 -1.00000E+00  1.13815E-01
      21    -1     0     0   502   501  0.000000000E+00  0.000000000E+00  1.142430587E+03  1.142430587E+03  0.000000000E+00  0.00000E+00  9.000E+00
      21    -1     0     0   511   502  0.000000000E+00  0.000000000E+00 -1.314449526E+02  1.314449526E+02  0.000000000E+00  0.00000E+00  9.000E+00
      25     1     1     2     0     0  1.949192348E+02  8.503627070E+01  5.170162718E+02  5.728485845E+02  1.250000000E+02  0.00000E+00  9.000E+00
      25     1     1     2     0     0 -8.425606742E+01 -2.204116058E+02  4.458097441E+02  5.196649775E+02  1.250000000E+02  0.00000E+00  9.000E+00
      21     1     1     2   511   501 -1.106631673E+02  1.353753351E+02  4.815961802E+01  1.813619772E+02  3.873843386E-06  0.00000E+00  9.000E+00
#rwgt            1           1   2.8535756769609188E-002           5      188554           0
</event>
<event>
      5   9999  3.19816E-02  8.02688E+01 -1.00000E+00  1.28279E-01
      21    -1     0     0   502   512  0.000000000E+00  0.000000000E+00  2.148736882E+02  2.148736882E+02  0.000000000E+00  0.00000E+00  9.000E+00
      21    -1     0     0   501   502  0.000000000E+00  0.000000000E+00 -2.539254892E+03  2.539254892E+03  0.000000000E+00  0.00000E+00  9.000E+00
      25     1     1     2     0     0  2.385426666E+02  1.828749116E+02 -2.255881973E+03  2.279248629E+03  1.250000000E+02  0.00000E+00  9.000E+00
      25     1     1     2     0     0 -3.042021761E+02 -1.367023855E+02  1.832903515E+01  3.566335089E+02  1.250000000E+02  0.00000E+00  9.000E+00
      21     1     1     2   501   512  6.565950957E+01 -4.617252617E+01 -8.682826634E+01  1.182464427E+02  1.907348633E-06  0.00000E+00  9.000E+00
#rwgt            1           1   2.0248773031124677E-002           5      188600           0
</event>
<event>
      5   9999  3.19816E-02  1.01849E+01 -1.00000E+00  1.94842E-01
      21    -1     0     0   502   501  0.000000000E+00  0.000000000E+00  1.768387830E+02  1.768387830E+02  0.000000000E+00  0.00000E+00  9.000E+00
      21    -1     0     0   501   511  0.000000000E+00  0.000000000E+00 -5.251389165E+02  5.251389165E+02  0.000000000E+00  0.00000E+00  9.000E+00
      25     1     1     2     0     0  1.105825469E+02 -2.761686144E+01 -4.406331191E+02  4.719891274E+02  1.250000000E+02  0.00000E+00  9.000E+00
      25     1     1     2     0     0 -1.004980613E+02  2.619042047E+01  1.190120483E+02  2.014315420E+02  1.250000000E+02  0.00000E+00  9.000E+00
      21     1     1     2   502   511 -1.008448559E+01  1.426440969E+00 -2.667906270E+01  2.855703013E+01  0.000000000E+00  0.00000E+00  9.000E+00
#rwgt            1           1   3.1714952232109045E-002           5      188719           0
</event>
<event>
      5   9999  3.19816E-02  8.51139E+01 -1.00000E+00  1.27060E-01
      -2    -1     0     0     0   501  0.000000000E+00  0.000000000E+00  1.942247966E+02  1.942247966E+02  0.000000000E+00  0.00000E+00  9.000E+00
      21    -1     0     0   501   502  0.000000000E+00  0.000000000E+00 -7.877690548E+02  7.877690548E+02  0.000000000E+00  0.00000E+00  9.000E+00
      25     1     1     2     0     0  8.267716813E+01 -1.916427696E+02 -6.096409298E+02  6.563912923E+02  1.250000000E+02  0.00000E+00  9.000E+00
      25     1     1     2     0     0 -2.228201530E+01  1.316694734E+02 -7.788523773E+01  1.988075670E+02  1.250000000E+02  0.00000E+00  9.000E+00
      -2     1     1     2     0   502 -6.039515283E+01  5.997329622E+01  9.398190935E+01  1.267949921E+02  1.907348633E-06  0.00000E+00  9.000E+00
#rwgt            1           1   3.1196814483209604E-002           5      188955           0
</event>
<event>
      5   9999  3.19816E-02  1.96720E+02 -1.00000E+00  1.11910E-01
      21    -1     0     0   502   501  0.000000000E+00  0.000000000E+00  2.304194905E+02  2.304194905E+02  0.000000000E+00  0.00000E+00  9.000E+00
      21    -1     0     0   511   502  0.000000000E+00  0.000000000E+00 -7.246369210E+02  7.246369210E+02  0.000000000E+00  0.00000E+00  9.000E+00
      25     1     1     2     0     0 -6.414919817E+01  9.723674259E+01 -4.452596435E+02  4.769184981E+02  1.250000000E+02  0.00000E+00  9.000E+00
      25     1     1     2     0     0 -9.847173053E+01  1.345661782E+01  1.347705823E+02  2.089638058E+02  1.250000000E+02  0.00000E+00  9.000E+00
      21     1     1     2   511   501  1.626209287E+02 -1.106933604E+02 -1.837283694E+02  2.691741076E+02  3.814697266E-06  0.00000E+00  9.000E+00
#rwgt            1           1   3.1494683750760220E-002           5      189044           0
</event>
<event>
      5   9999  3.19816E-02  9.79638E+00 -1.00000E+00  1.96796E-01
      21    -1     0     0   512   501  0.000000000E+00  0.000000000E+00  1.634720448E+02  1.634720448E+02  0.000000000E+00  0.00000E+00  9.000E+00
      21    -1     0     0   501   502  0.000000000E+00  0.000000000E+00 -2.729003543E+02  2.729003543E+02  0.000000000E+00  0.00000E+00  9.000E+00
      25     1     1     2     0     0  5.017895653E+01  8.117997610E+01 -1.887466255E+02  2.456794758E+02  1.250000000E+02  0.00000E+00  9.000E+00
      25     1     1     2     0     0 -5.622464330E+01 -8.888832614E+01  7.232667245E+01  1.786574728E+02  1.250000000E+02  0.00000E+00  9.000E+00
      21     1     1     2   512   502  6.045686776E+00  7.708350033E+00  6.991643583E+00  1.203545050E+01  8.429369702E-08  0.00000E+00  9.000E+00
#rwgt            1           1   2.3215455173358799E-002           5      189116           0
</event>
<event>
      5   9999  3.19816E-02  8.17736E+01 -1.00000E+00  1.27890E-01
      21    -1     0     0   502   511  0.000000000E+00  0.000000000E+00  1.117346059E+02  1.117346059E+02  0.000000000E+00  0.00000E+00  9.000E+00
      21    -1     0     0   501   502  0.000000000E+00  0.000000000E+00 -1.226254995E+03  1.226254995E+03  0.000000000E+00  0.00000E+00  9.000E+00
      25     1     1     2     0     0 -1.829231910E+02 -4.032173876E+00 -5.639883854E+02  6.059579615E+02  1.250000000E+02  0.00000E+00  9.000E+00
      25     1     1     2     0     0  2.404084352E+02 -5.412593720E+01 -5.821181643E+02  6.443697619E+02  1.250000000E+02  0.00000E+00  9.000E+00
      21     1     1     2   501   511 -5.748524426E+01  5.815811107E+01  3.158616069E+01  8.766187734E+01  1.936921693E-06  0.00000E+00  9.000E+00
#rwgt            1           1   2.7964123889347849E-002           5      189263           0
</event>
<event>
      5   9999  3.19816E-02  3.18426E+01 -1.00000E+00  1.51263E-01
      21    -1     0     0   512   501  0.000000000E+00  0.000000000E+00  2.084235817E+03  2.084235817E+03  0.000000000E+00  0.00000E+00  9.000E+00
      21    -1     0     0   501   502  0.000000000E+00  0.000000000E+00 -9.534801305E+01  9.534801305E+01  0.000000000E+00  0.00000E+00  9.000E+00
      25     1     1     2     0     0  2.113817669E+01  2.194957698E+02  1.097957107E+02  2.762341644E+02  1.250000000E+02  0.00000E+00  9.000E+00
      25     1     1     2     0     0  5.879805988E+00 -2.363474684E+02  1.753891688E+03  1.774163394E+03  1.250000000E+02  0.00000E+00  9.000E+00
      21     1     1     2   512   502 -2.701798268E+01  1.685169857E+01  1.252004058E+02  1.291862715E+02  0.000000000E+00  0.00000E+00  9.000E+00
#rwgt            1           1   3.7687399701509409E-002           5      189345           0
</event>
<event>
      5   9999  3.19816E-02  1.06400E+02 -1.00000E+00  1.22628E-01
      21    -1     0     0   502   501  0.000000000E+00  0.000000000E+00  1.487111712E+02  1.487111712E+02  0.000000000E+00  0.00000E+00  9.000E+00
      21    -1     0     0   501   511  0.000000000E+00  0.000000000E+00 -8.135985525E+02  8.135985525E+02  0.000000000E+00  0.00000E+00  9.000E+00
      25     1     1     2     0     0  1.271235160E+02  9.848875848E+01 -2.773924499E+02  3.441394995E+02  1.250000000E+02  0.00000E+00  9.000E+00
      25     1     1     2     0     0 -2.319844776E+02 -8.045897479E+01 -7.137170077E+01  2.846214401E+02  1.250000000E+02  0.00000E+00  9.000E+00
      21     1     1     2   502   511  1.048609616E+02 -1.802978369E+01 -3.161232306E+02  3.335487840E+02  5.394796609E-06  0.00000E+00  9.000E+00
#rwgt            1           1   2.9231118317483974E-002           5      189471           0
</event>
<event>
      5   9999  3.19816E-02  1.42625E+02 -1.00000E+00  1.17268E-01
      21    -1     0     0   502   501  0.000000000E+00  0.000000000E+00  6.379832768E+02  6.379832768E+02  0.000000000E+00  0.00000E+00  9.000E+00
      21    -1     0     0   501   512  0.000000000E+00  0.000000000E+00 -1.984045411E+02  1.984045411E+02  0.000000000E+00  0.00000E+00  9.000E+00
      25     1     1     2     0     0  9.972901932E+01  1.656991000E+02  4.352481466E+02  4.924104164E+02  1.250000000E+02  0.00000E+00  9.000E+00
      25     1     1     2     0     0 -1.415589775E+02 -2.934567439E+01 -3.871591515E+01  1.949975251E+02  1.250000000E+02  0.00000E+00  9.000E+00
      21     1     1     2   502   512  4.182995816E+01 -1.363534256E+02  4.304650420E+01  1.489798765E+02  1.651812370E-06  0.00000E+00  9.000E+00
#rwgt            2          11   3.3867963462432997E-003           5      189536           0
</event>
<event>
      5   9999  3.19816E-02  4.47792E+01 -1.00000E+00  1.41864E-01
      21    -1     0     0   502   501  0.000000000E+00  0.000000000E+00  4.797668328E+02  4.797668328E+02  0.000000000E+00  0.00000E+00  9.000E+00
      21    -1     0     0   511   502  0.000000000E+00  0.000000000E+00 -3.052138830E+02  3.052138830E+02  0.000000000E+00  0.00000E+00  9.000E+00
      25     1     1     2     0     0 -5.324012209E+01  2.111593385E+02 -1.896786191E+02  3.146835798E+02  1.250000000E+02  0.00000E+00  9.000E+00
      25     1     1     2     0     0  1.431695396E+01 -1.890197361E+02  3.595868420E+02  4.252777124E+02  1.250000000E+02  0.00000E+00  9.000E+00
      21     1     1     2   511   501  3.892316813E+01 -2.213960239E+01  4.644726893E+00  4.501942357E+01  2.384185791E-07  0.00000E+00  9.000E+00
#rwgt            1           1   2.8797403284393189E-002           5      189571           0
</event>
<event>
      5   9999  3.19816E-02  1.67337E+01 -1.00000E+00  1.73023E-01
      21    -1     0     0   502   501  0.000000000E+00  0.000000000E+00  1.890067036E+02  1.890067036E+02  0.000000000E+00  0.00000E+00  9.000E+00
      21    -1     0     0   512   502  0.000000000E+00  0.000000000E+00 -4.939016823E+02  4.939016823E+02  0.000000000E+00  0.00000E+00  9.000E+00
      25     1     1     2     0     0  1.562948205E+02  7.838795618E+01 -3.651410032E+02  4.237047260E+02  1.250000000E+02  0.00000E+00  9.000E+00
      25     1     1     2     0     0 -1.398065653E+02 -8.124344338E+01  9.136365584E+01  2.238720402E+02  1.250000000E+02  0.00000E+00  9.000E+00
      21     1     1     2   512   501 -1.648825525E+01  2.855487202E+00 -3.111763139E+01  3.533161972E+01  0.000000000E+00  0.00000E+00  9.000E+00
#rwgt            1           1   2.7954831412496994E-002           5      189740           0
</event>
<event>
      5   9999  3.19816E-02  3.55575E+01 -1.00000E+00  1.48084E-01
      21    -1     0     0   511   501  0.000000000E+00  0.000000000E+00  3.352148696E+03  3.352148696E+03  0.000000000E+00  0.00000E+00  9.000E+00
      21    -1     0     0   501   502  0.000000000E+00  0.000000000E+00 -4.645138676E+01  4.645138676E+01  0.000000000E+00  0.00000E+00  9.000E+00
      25     1     1     2     0     0  7.343139712E+00 -2.758675076E+01  2.987927913E+03  2.990677710E+03  1.250000000E+02  0.00000E+00  9.000E+00
      25     1     1     2     0     0 -3.205370508E+01  2.018734144E+00  5.096434424E+01  1.387583499E+02  1.250000000E+02  0.00000E+00  9.000E+00
      21     1     1     2   511   502  2.471056537E+01  2.556801662E+01  2.668050522E+02  2.691640233E+02  3.814697266E-06  0.00000E+00  9.000E+00
#rwgt            1           1   3.3558528187380220E-002           5      189938           0
</event>
<event>
      5   9999  3.19816E-02  3.78482E+01 -1.00000E+00  1.46345E-01
       1    -1     0     0   502     0  0.000000000E+00  0.000000000E+00  8.166915940E+02  8.166915940E+02  0.000000000E+00  0.00000E+00  9.000E+00
      21    -1     0     0   501   502  0.000000000E+00  0.000000000E+00 -3.986442204E+02  3.986442204E+02  0.000000000E+00  0.00000E+00  9.000E+00
      25     1     1     2     0     0  2.899691486E+02  1.571432470E+02 -1.897605498E+02  4.005123887E+02  1.250000000E+02  0.00000E+00  9.000E+00
      25     1     1     2     0     0 -3.231889608E+02 -1.390068561E+02  2.373091315E+02  4.423964674E+02  1.250000000E+02  0.00000E+00  9.000E+00
       1     1     1     2   501     0  3.321981220E+01 -1.813639089E+01  3.704987918E+02  3.724269584E+02  5.394796609E-06  0.00000E+00  9.000E+00
#rwgt            1           1   2.7245574023959784E-002           5      190106           0
</event>
<event>
      5   9999  3.19816E-02  1.64023E+01 -1.00000E+00  1.73803E-01
      21    -1     0     0   511   501  0.000000000E+00  0.000000000E+00  1.372036795E+03  1.372036795E+03  0.000000000E+00  0.00000E+00  9.000E+00
      21    -1     0     0   501   502  0.000000000E+00  0.000000000E+00 -2.787701578E+02  2.787701578E+02  0.000000000E+00  0.00000E+00  9.000E+00
      25     1     1     2     0     0 -5.937294724E+02  6.862454742E+01  4.776888829E+02  7.752649120E+02  1.250000000E+02  0.00000E+00  9.000E+00
      25     1     1     2     0     0  5.844284401E+02 -8.213480401E+01  5.823493896E+02  8.384858611E+02  1.250000000E+02  0.00000E+00  9.000E+00
      21     1     1     2   511   502  9.301032258E+00  1.351025659E+01  3.322836491E+01  3.705617990E+01  6.743495762E-07  0.00000E+00  9.000E+00
#rwgt            1           1   3.0785627634184590E-002           5      190207           0
</event>
<event>
      5   9999  3.19816E-02  3.70756E+01 -1.00000E+00  1.46915E-01
      21    -1     0     0   502   501  0.000000000E+00  0.000000000E+00  1.103868787E+03  1.103868787E+03  0.000000000E+00  0.00000E+00  9.000E+00
      21    -1     0     0   512   502  0.000000000E+00  0.000000000E+00 -2.856001302E+02  2.856001302E+02  0.000000000E+00  0.00000E+00  9.000E+00
      25     1     1     2     0     0  1.252807419E+01 -4.975116446E+02  2.535364693E+02  5.723465126E+02  1.250000000E+02  0.00000E+00  9.000E+00
      25     1     1     2     0     0 -1.691972254E+01  5.343262368E+02  5.503125062E+02  7.773414043E+02  1.250000000E+02  0.00000E+00  9.000E+00
      21     1     1     2   512   501  4.391648352E+00 -3.681459217E+01  1.441968112E+01  3.978100018E+01  2.384185791E-07  0.00000E+00  9.000E+00
#rwgt            1           1   2.8296998345186133E-002           5      190456           0
</event>
<event>
      5   9999  3.19816E-02  9.39049E+01 -1.00000E+00  1.25069E-01
      21    -1     0     0   502   501  0.000000000E+00  0.000000000E+00  1.835101968E+02  1.835101968E+02  0.000000000E+00  0.00000E+00  9.000E+00
      21    -1     0     0   511   502  0.000000000E+00  0.000000000E+00 -7.945316782E+02  7.945316782E+02  0.000000000E+00  0.00000E+00  9.000E+00
      25     1     1     2     0     0 -1.080158229E+02 -2.047704760E+01 -5.488477482E+02  5.735377740E+02  1.250000000E+02  0.00000E+00  9.000E+00
      25     1     1     2     0     0  1.654330443E+02 -5.382904689E+01  8.455028612E+01  2.303028643E+02  1.250000000E+02  0.00000E+00  9.000E+00
      21     1     1     2   511   501 -5.741722139E+01  7.430609449E+01 -1.467240193E+02  1.742012366E+02  3.303624740E-06  0.00000E+00  9.000E+00
#rwgt            1           1   2.5632232366026707E-002           5      190556           0
</event>
<event>
      5   9999  3.19816E-02  2.44619E+02 -1.00000E+00  1.08554E-01
      21    -1     0     0   502   512  0.000000000E+00  0.000000000E+00  4.746888020E+02  4.746888020E+02  0.000000000E+00  0.00000E+00  9.000E+00
      21    -1     0     0   501   502  0.000000000E+00  0.000000000E+00 -1.103376668E+03  1.103376668E+03  0.000000000E+00  0.00000E+00  9.000E+00
      25     1     1     2     0     0  5.699061835E+00 -3.320259012E+01 -8.912688075E+02  9.006219954E+02  1.250000000E+02  0.00000E+00  9.000E+00
      25     1     1     2     0     0 -1.564011621E+01 -2.112146727E+02 -7.810352048E+01  2.580337403E+02  1.250000000E+02  0.00000E+00  9.000E+00
      21     1     1     2   501   512  9.941054375E+00  2.444172628E+02  3.406844618E+02  4.194097346E+02  6.607249480E-06  0.00000E+00  9.000E+00
#rwgt            2          11   7.6775008241586236E-003           5      190682           0
</event>
<event>
      5   9999  3.19816E-02  4.72197E+01 -1.00000E+00  1.40508E-01
      21    -1     0     0   511   501  0.000000000E+00  0.000000000E+00  9.687592763E+01  9.687592763E+01  0.000000000E+00  0.00000E+00  9.000E+00
      21    -1     0     0   501   502  0.000000000E+00  0.000000000E+00 -1.328096050E+03  1.328096050E+03  0.000000000E+00  0.00000E+00  9.000E+00
      25     1     1     2     0     0  2.227689692E+02 -4.647029761E+01 -7.941360429E+02  8.355013805E+02  1.250000000E+02  0.00000E+00  9.000E+00
      25     1     1     2     0     0 -2.598476478E+02  1.723209779E+01 -4.550131218E+02  5.389616743E+02  1.250000000E+02  0.00000E+00  9.000E+00
      21     1     1     2   511   502  3.707867868E+01  2.923819983E+01  1.792904227E+01  5.050892296E+01  1.118282261E-06  0.00000E+00  9.000E+00
#rwgt            1           1   2.3651466391125021E-002           5      190702           0
</event>
<event>
      5   9999  3.19816E-02  2.87246E+02 -1.00000E+00  1.06209E-01
      21    -1     0     0   502   512  0.000000000E+00  0.000000000E+00  9.580218890E+02  9.580218890E+02  0.000000000E+00  0.00000E+00  9.000E+00
      21    -1     0     0   501   502  0.000000000E+00  0.000000000E+00 -6.260003944E+02  6.260003944E+02  0.000000000E+00  0.00000E+00  9.000E+00
      25     1     1     2     0     0  3.136939794E+02  3.225460115E+02 -2.721446485E+02  5.404882533E+02  1.250000000E+02  0.00000E+00  9.000E+00
      25     1     1     2     0     0 -4.932696191E+02 -9.835229577E+01  2.180263132E+02  5.622708995E+02  1.250000000E+02  0.00000E+00  9.000E+00
      21     1     1     2   501   512  1.795756397E+02 -2.241937157E+02  3.861398300E+02  4.812631306E+02  5.394796609E-06  0.00000E+00  9.000E+00
#rwgt            2          11   2.9541260515073466E-003           5      190845           0
</event>
<event>
      5   9999  3.19816E-02  1.10053E+02 -1.00000E+00  1.21985E-01
      21    -1     0     0   502   511  0.000000000E+00  0.000000000E+00  2.739158233E+02  2.739158233E+02  0.000000000E+00  0.00000E+00  9.000E+00
      21    -1     0     0   501   502  0.000000000E+00  0.000000000E+00 -1.836655949E+03  1.836655949E+03  0.000000000E+00  0.00000E+00  9.000E+00
      25     1     1     2     0     0  1.114427882E+01  5.866877720E+02 -7.953295161E+02  9.962433317E+02  1.250000000E+02  0.00000E+00  9.000E+00
      25     1     1     2     0     0 -6.371843559E+01 -6.833711122E+02 -6.524478761E+02  9.551802694E+02  1.250000000E+02  0.00000E+00  9.000E+00
      21     1     1     2   501   511  5.257415677E+01  9.668334022E+01 -1.149627331E+02  1.591481707E+02  0.000000000E+00  0.00000E+00  9.000E+00
#rwgt            1           1   2.8667032092102574E-002           5      190865           0
</event>
<event>
      5   9999  3.19816E-02  7.57069E+01 -1.00000E+00  1.29520E-01
      21    -1     0     0   502   501  0.000000000E+00  0.000000000E+00  5.252626395E+02  5.252626395E+02  0.000000000E+00  0.00000E+00  9.000E+00
      21    -1     0     0   501   512  0.000000000E+00  0.000000000E+00 -3.218919088E+02  3.218919088E+02  0.000000000E+00  0.00000E+00  9.000E+00
      25     1     1     2     0     0 -2.688651670E+02 -1.805674522E+02  5.731585699E+00  3.472044555E+02  1.250000000E+02  0.00000E+00  9.000E+00
      25     1     1     2     0     0  1.963786727E+02  2.024132379E+02  2.587694402E+02  4.026441669E+02  1.250000000E+02  0.00000E+00  9.000E+00
      21     1     1     2   502   512  7.248649432E+01 -2.184578567E+01 -6.113029519E+01  9.730592583E+01  6.743495762E-07  0.00000E+00  9.000E+00
#rwgt            1           1   2.4396611769781640E-002           5      190993           0
</event>
<event>
      5   9999  3.19816E-02  9.53688E+01 -1.00000E+00  1.24761E-01
      21    -1     0     0   511   501  0.000000000E+00  0.000000000E+00  6.611651473E+02  6.611651473E+02  0.000000000E+00  0.00000E+00  9.000E+00
      21    -1     0     0   501   502  0.000000000E+00  0.000000000E+00 -1.154713672E+03  1.154713672E+03  0.000000000E+00  0.00000E+00  9.000E+00
      25     1     1     2     0     0  7.437752783E+02  1.127392699E+02 -8.928658265E+01  7.677948303E+02  1.250000000E+02  0.00000E+00  9.000E+00
      25     1     1     2     0     0 -7.037036066E+02 -1.992810122E+02 -5.140533149E+02  9.026558028E+02  1.250000000E+02  0.00000E+00  9.000E+00
      21     1     1     2   511   502 -4.007167167E+01  8.654174234E+01  1.097913724E+02  1.454281867E+02  1.348699152E-06  0.00000E+00  9.000E+00
#rwgt            1           1   3.2127527131356734E-002           5      191089           0
</event>
<event>
      5   9999  3.19816E-02  1.47715E+01 -1.00000E+00  1.78014E-01
      21    -1     0     0   502   501  0.000000000E+00  0.000000000E+00  1.103291614E+02  1.103291614E+02  0.000000000E+00  0.00000E+00  9.000E+00
      21    -1     0     0   501   512  0.000000000E+00  0.000000000E+00 -1.229355459E+03  1.229355459E+03  0.000000000E+00  0.00000E+00  9.000E+00
      25     1     1     2     0     0 -1.735760046E+02 -2.773035049E+01 -8.115196159E+01  2.304522566E+02  1.250000000E+02  0.00000E+00  9.000E+00
      25     1     1     2     0     0  1.612687880E+02  1.956160364E+01 -2.593679903E+02  3.305858931E+02  1.250000000E+02  0.00000E+00  9.000E+00
      21     1     1     2   502   512  1.230721665E+01  8.168746843E+00 -7.785063457E+02  7.786464706E+02  0.000000000E+00  0.00000E+00  9.000E+00
#rwgt            1           1   2.8751305265255496E-002           5      191215           0
</event>
<event>
      5   9999  3.19816E-02  1.40985E+01 -1.00000E+00  1.79957E-01
      21    -1     0     0   502   511  0.000000000E+00  0.000000000E+00  4.258252267E+02  4.258252267E+02  0.000000000E+00  0.00000E+00  9.000E+00
      21    -1     0     0   501   502  0.000000000E+00  0.000000000E+00 -3.935540546E+02  3.935540546E+02  0.000000000E+00  0.00000E+00  9.000E+00
      25     1     1     2     0     0  1.887699559E+02  3.228849389E+02  1.611240420E+01  3.946813773E+02  1.250000000E+02  0.00000E+00  9.000E+00
      25     1     1     2     0     0 -2.010295526E+02 -3.298470631E+02  3.907420571E+00  4.060199921E+02  1.250000000E+02  0.00000E+00  9.000E+00
      21     1     1     2   501   511  1.225959664E+01  6.962124177E+00  1.225134736E+01  1.867791195E+01  1.685873940E-07  0.00000E+00  9.000E+00
#rwgt            1           1   2.8055165387376995E-002           5      191396           0
</event>
<event>
      5   9999  3.19816E-02  5.67398E+02 -1.00000E+00  9.73165E-02
       2    -1     0     0   502     0  0.000000000E+00  0.000000000E+00  3.034813779E+03  3.034813779E+03  0.000000000E+00  0.00000E+00  9.000E+00
      21    -1     0     0   501   502  0.000000000E+00  0.000000000E+00 -3.072839453E+02  3.072839453E+02  0.000000000E+00  0.00000E+00  9.000E+00
      25     1     1     2     0     0 -2.029933828E+02 -3.183052493E+02  2.358800644E+02  4.623731718E+02  1.250000000E+02  0.00000E+00  9.000E+00
      25     1     1     2     0     0  9.449897051E+01 -2.386235394E+02 -3.730291437E+01  2.879023383E+02  1.250000000E+02  0.00000E+00  9.000E+00
       2     1     1     2   501     0  1.084944122E+02  5.569287888E+02  2.528952684E+03  2.591822214E+03  3.051757812E-05  0.00000E+00  9.000E+00
#rwgt            1           1   2.8955720830535152E-002           5      191638           0
</event>
<event>
      5   9999  3.19816E-02  5.67768E+01 -1.00000E+00  1.35997E-01
      21    -1     0     0   502   501  0.000000000E+00  0.000000000E+00  9.894530157E+02  9.894530157E+02  0.000000000E+00  0.00000E+00  9.000E+00
      21    -1     0     0   501   511  0.000000000E+00  0.000000000E+00 -4.578652621E+02  4.578652621E+02  0.000000000E+00  0.00000E+00  9.000E+00
      25     1     1     2     0     0  3.592697892E+02  2.424539587E+02 -4.207463662E+01  4.530496425E+02  1.250000000E+02  0.00000E+00  9.000E+00
      25     1     1     2     0     0 -4.123569726E+02 -2.223204369E+02  7.024407957E+02  8.535295666E+02  1.250000000E+02  0.00000E+00  9.000E+00
      21     1     1     2   502   511  5.308718346E+01 -2.013352182E+01 -1.287784054E+02  1.407390687E+02  1.907348633E-06  0.00000E+00  9.000E+00
#rwgt            1           1   2.7808194374886987E-002           5      191682           0
</event>
<event>
      5   9999  3.19816E-02  3.47454E+02 -1.00000E+00  1.03560E-01
       1    -1     0     0   502     0  0.000000000E+00  0.000000000E+00  2.066040587E+02  2.066040587E+02  0.000000000E+00  0.00000E+00  9.000E+00
      21    -1     0     0   501   502  0.000000000E+00  0.000000000E+00 -9.493289519E+02  9.493289519E+02  0.000000000E+00  0.00000E+00  9.000E+00
      25     1     1     2     0     0  2.047830860E+02  1.145388938E+02 -3.111304739E+01  2.676719863E+02  1.250000000E+02  0.00000E+00  9.000E+00
      25     1     1     2     0     0  8.024259616E+01  8.416825863E+01 -3.340861436E+02  3.751822508E+02  1.250000000E+02  0.00000E+00  9.000E+00
       1     1     1     2   501     0 -2.850256822E+02 -1.987071524E+02 -3.775257023E+02  5.130787735E+02  7.629394531E-06  0.00000E+00  9.000E+00
#rwgt            2          17   6.4519996587261686E-005           5      191851           0
</event>
<event>
      5   9999  3.19816E-02  1.99774E+02 -1.00000E+00  1.11666E-01
      21    -1     0     0   502   511  0.000000000E+00  0.000000000E+00  9.754355895E+02  9.754355895E+02  0.000000000E+00  0.00000E+00  9.000E+00
      21    -1     0     0   501   502  0.000000000E+00  0.000000000E+00 -3.331516211E+02  3.331516211E+02  0.000000000E+00  0.00000E+00  9.000E+00
      25     1     1     2     0     0 -3.813183365E+02  1.062154019E+02  5.753471840E+02  7.094608991E+02  1.250000000E+02  0.00000E+00  9.000E+00
      25     1     1     2     0     0  1.842781920E+02 -1.391551408E+02 -1.514693839E+02  3.031345898E+02  1.250000000E+02  0.00000E+00  9.000E+00
      21     1     1     2   501   511  1.970401445E+02  3.293973893E+01  2.184061683E+02  2.959917217E+02  4.672030912E-06  0.00000E+00  9.000E+00
#rwgt            2          11   3.7934355249828349E-003           5      191885           0
</event>
<event>
      5   9999  3.19816E-02  1.79762E+01 -1.00000E+00  1.70285E-01
      21    -1     0     0   502   501  0.000000000E+00  0.000000000E+00  3.293904749E+02  3.293904749E+02  0.000000000E+00  0.00000E+00  9.000E+00
      21    -1     0     0   501   512  0.000000000E+00  0.000000000E+00 -1.602167321E+02  1.602167321E+02  0.000000000E+00  0.00000E+00  9.000E+00
      25     1     1     2     0     0 -8.193657901E+01  9.273330927E+01  2.283452920E+02  2.882353934E+02  1.250000000E+02  0.00000E+00  9.000E+00
      25     1     1     2     0     0  8.675640446E+01 -7.541535388E+01 -3.878851540E+01  1.741944266E+02  1.250000000E+02  0.00000E+00  9.000E+00
      21     1     1     2   502   512 -4.819825449E+00 -1.731795539E+01 -2.038303382E+01  2.717738700E+01  4.768371582E-07  0.00000E+00  9.000E+00
#rwgt            1           1   2.7171371896739824E-002           5      191905           0
</event>
<event>
      5   9999  3.19816E-02  4.90694E+01 -1.00000E+00  1.39543E-01
      21    -1     0     0   511   501  0.000000000E+00  0.000000000E+00  1.240420135E+03  1.240420135E+03  0.000000000E+00  0.00000E+00  9.000E+00
      21    -1     0     0   501   502  0.000000000E+00  0.000000000E+00 -1.484525346E+02  1.484525346E+02  0.000000000E+00  0.00000E+00  9.000E+00
      25     1     1     2     0     0  9.241068967E+01  5.022688439E+01 -8.582099443E+01  1.845337871E+02  1.250000000E+02  0.00000E+00  9.000E+00
      25     1     1     2     0     0 -1.266231950E+02 -8.540232579E+01  1.026192038E+03  1.044998607E+03  1.250000000E+02  0.00000E+00  9.000E+00
      21     1     1     2   511   502  3.421250530E+01  3.517544140E+01  1.515965570E+02  1.593402752E+02  2.697398305E-06  0.00000E+00  9.000E+00
#rwgt            1           1   2.8926516405902953E-002           5      192020           0
</event>
<event>
      5   9999  3.19816E-02  1.35599E+01 -1.00000E+00  1.81615E-01
      21    -1     0     0   502   512  0.000000000E+00  0.000000000E+00  3.475355977E+02  3.475355977E+02  0.000000000E+00  0.00000E+00  9.000E+00
      21    -1     0     0   501   502  0.000000000E+00  0.000000000E+00 -2.060767853E+02  2.060767853E+02  0.000000000E+00  0.00000E+00  9.000E+00
      25     1     1     2     0     0 -1.513089732E+02  1.231269455E+02  4.585379094E+01  2.361825993E+02  1.250000000E+02  0.00000E+00  9.000E+00
      25     1     1     2     0     0  1.431989655E+02 -1.339943041E+02  1.214953536E+01  2.328798584E+02  1.250000000E+02  0.00000E+00  9.000E+00
      21     1     1     2   501   512  8.110007697E+00  1.086735853E+01  8.345548605E+01  8.454992524E+01  9.536743164E-07  0.00000E+00  9.000E+00
#rwgt            1           1   2.7099213436986378E-002           5      192095           0
</event>
<event>
      5   9999  3.19816E-02  1.26852E+02 -1.00000E+00  1.19354E-01
       2    -1     0     0   502     0  0.000000000E+00  0.000000000E+00  1.252299357E+03  1.252299357E+03  0.000000000E+00  0.00000E+00  9.000E+00
      21    -1     0     0   501   502  0.000000000E+00  0.000000000E+00 -4.121891508E+02  4.121891508E+02  0.000000000E+00  0.00000E+00  9.000E+00
      25     1     1     2     0     0 -2.851527816E+02  2.242388871E+02 -7.084527622E+01  3.901784726E+02  1.250000000E+02  0.00000E+00  9.000E+00
      25     1     1     2     0     0  4.056565289E+02 -1.846132001E+02  1.267717614E+02  4.799326334E+02  1.250000000E+02  0.00000E+00  9.000E+00
       2     1     1     2   501     0 -1.205037473E+02 -3.962568702E+01  7.841837209E+02  7.943774017E+02  1.078959322E-05  0.00000E+00  9.000E+00
#rwgt            1           1   2.5067358159101050E-002           5      192266           0
</event>
<event>
      5   9999  3.19816E-02  5.03898E+00 -1.00000E+00  2.37929E-01
      21    -1     0     0   502   511  0.000000000E+00  0.000000000E+00  1.192596906E+03  1.192596906E+03  0.000000000E+00  0.00000E+00  9.000E+00
      21    -1     0     0   501   502  0.000000000E+00  0.000000000E+00 -8.410175250E+01  8.410175250E+01  0.000000000E+00  0.00000E+00  9.000E+00
      25     1     1     2     0     0 -1.167163766E+02  6.362098459E+01  5.346504191E+01  1.901416655E+02  1.250000000E+02  0.00000E+00  9.000E+00
      25     1     1     2     0     0  1.217500373E+02 -6.338961627E+01  5.312871663E+02  5.627898081E+02  1.250000000E+02  0.00000E+00  9.000E+00
      21     1     1     2   501   511 -5.033660717E+00 -2.313683248E-01  5.237429458E+02  5.237671854E+02  7.629394531E-06  0.00000E+00  9.000E+00
#rwgt            1           1   2.8564967480239869E-002           5      192337           0
</event>
<event>
      5   9999  3.19816E-02  3.94052E+01 -1.00000E+00  1.45245E-01
      21    -1     0     0   502   512  0.000000000E+00  0.000000000E+00  3.198872855E+01  3.198872855E+01  0.000000000E+00  0.00000E+00  9.000E+00
      21    -1     0     0   501   502  0.000000000E+00  0.000000000E+00 -2.933410095E+03  2.933410095E+03  0.000000000E+00  0.00000E+00  9.000E+00
      25     1     1     2     0     0 -8.727364462E+00 -2.195907405E+02 -8.353338336E+02  8.727564803E+02  1.250000000E+02  0.00000E+00  9.000E+00
      25     1     1     2     0     0  4.622855294E+01  2.074899300E+02 -2.003929560E+03  2.019046267E+03  1.250000000E+02  0.00000E+00  9.000E+00
      21     1     1     2   501   512 -3.750118848E+01  1.210081048E+01 -6.215797333E+01  7.359607599E+01  1.168007728E-06  0.00000E+00  9.000E+00
#rwgt            1           1   3.5188103676917312E-002           5      192591           0
</event>
<event>
      5   9999  3.19816E-02  3.76190E+01 -1.00000E+00  1.46513E-01
      21    -1     0     0   502   501  0.000000000E+00  0.000000000E+00  9.487125274E+02  9.487125274E+02  0.000000000E+00  0.00000E+00  9.000E+00
      21    -1     0     0   511   502  0.000000000E+00  0.000000000E+00 -1.188022278E+03  1.188022278E+03  0.000000000E+00  0.00000E+00  9.000E+00
      25     1     1     2     0     0 -6.048247283E+02  3.097560861E+01 -8.741266045E+02  1.070744956E+03  1.250000000E+02  0.00000E+00  9.000E+00
      25     1     1     2     0     0  5.814018731E+02 -6.041299393E+01  7.417538890E+02  9.526288363E+02  1.250000000E+02  0.00000E+00  9.000E+00
      21     1     1     2   511   501  2.342285519E+01  2.943738532E+01 -1.069370349E+02  1.133610128E+02  1.348699152E-06  0.00000E+00  9.000E+00
#rwgt            1           1   3.7047366624321003E-002           5      192681           0
</event>
<event>
      5   9999  3.19816E-02  8.48731E+00 -1.00000E+00  2.04369E-01
      21    -1     0     0   502   501  0.000000000E+00  0.000000000E+00  1.524738219E+02  1.524738219E+02  0.000000000E+00  0.00000E+00  9.000E+00
      21    -1     0     0   512   502  0.000000000E+00  0.000000000E+00 -1.968816066E+03  1.968816066E+03  0.000000000E+00  0.00000E+00  9.000E+00
      25     1     1     2     0     0 -3.351346513E+02  1.442887618E+02 -1.751469876E+02  4.235988061E+02  1.250000000E+02  0.00000E+00  9.000E+00
      25     1     1     2     0     0  3.372597979E+02 -1.360718172E+02 -1.282946220E+03  1.339341523E+03  1.250000000E+02  0.00000E+00  9.000E+00
      21     1     1     2   512   501 -2.125146582E+00 -8.216944672E+00 -3.582490365E+02  3.583495592E+02  3.814697266E-06  0.00000E+00  9.000E+00
#rwgt            1           1   2.9299096899703260E-002           5      192842           0
</event>
<event>
      5   9999  3.19816E-02  3.73077E+02 -1.00000E+00  1.02604E-01
      21    -1     0     0   502   501  0.000000000E+00  0.000000000E+00  1.501210659E+03  1.501210659E+03  0.000000000E+00  0.00000E+00  9.000E+00
      21    -1     0     0   501   511  0.000000000E+00  0.000000000E+00 -1.170041123E+03  1.170041123E+03  0.000000000E+00  0.00000E+00  9.000E+00
      25     1     1     2     0     0 -5.936259582E+02 -2.830150967E+02 -1.020246804E+02  6.771435288E+02  1.250000000E+02  0.00000E+00  9.000E+00
      25     1     1     2     0     0  9.633775213E+02  3.327161113E+02  9.214240343E+02  1.379653402E+03  1.250000000E+02  0.00000E+00  9.000E+00
      21     1     1     2   502   511 -3.697515631E+02 -4.970101457E+01 -4.882298176E+02  6.144548511E+02  5.394796609E-06  0.00000E+00  9.000E+00
#rwgt            1           1   1.5777900877816720E-002           5      193201           0
</event>
<event>
      5   9999  3.19816E-02  9.02120E+02 -1.00000E+00  9.20781E-02
      21    -1     0     0   502   512  0.000000000E+00  0.000000000E+00  4.811671507E+02  4.811671507E+02  0.000000000E+00  0.00000E+00  9.000E+00
      21    -1     0     0   501   502  0.000000000E+00  0.000000000E+00 -2.288098561E+03  2.288098561E+03  0.000000000E+00  0.00000E+00  9.000E+00
      25     1     1     2     0     0  4.724609574E+02  1.784863601E+02 -1.555303622E+02  5.430390691E+02  1.250000000E+02  0.00000E+00  9.000E+00
      25     1     1     2     0     0  3.077484346E+02  2.743861677E+02 -1.068709409E+03  1.152285412E+03  1.250000000E+02  0.00000E+00  9.000E+00
      21     1     1     2   501   512 -7.802093920E+02 -4.528725278E+02 -5.826916388E+02  1.073941231E+03  1.868812365E-05  0.00000E+00  9.000E+00
#rwgt            2          11   1.0138149507798104E-003           5      193239           0
</event>
<event>
      5   9999  3.19816E-02  5.14729E+01 -1.00000E+00  1.38360E-01
      21    -1     0     0   502   511  0.000000000E+00  0.000000000E+00  1.307525214E+03  1.307525214E+03  0.000000000E+00  0.00000E+00  9.000E+00
      21    -1     0     0   501   502  0.000000000E+00  0.000000000E+00 -2.020974139E+03  2.020974139E+03  0.000000000E+00  0.00000E+00  9.000E+00
      25     1     1     2     0     0 -6.098408631E+02  2.113796270E+02  6.849086742E+02  9.493745925E+02  1.250000000E+02  0.00000E+00  9.000E+00
      25     1     1     2     0     0  6.214546555E+02 -1.612340793E+02 -1.830539513E+03  1.943888430E+03  1.250000000E+02  0.00000E+00  9.000E+00
      21     1     1     2   501   511 -1.161379242E+01 -5.014554763E+01  4.321819148E+02  4.352363307E+02  1.078959322E-05  0.00000E+00  9.000E+00
#rwgt            2          11   1.4619743200876185E-002           5      193319           0
</event>
<event>
      5   9999  3.19816E-02  9.43569E+01 -1.00000E+00  1.24973E-01
      21    -1     0     0   502   512  0.000000000E+00  0.000000000E+00  2.261814902E+02  2.261814902E+02  0.000000000E+00  0.00000E+00  9.000E+00
      21    -1     0     0   501   502  0.000000000E+00  0.000000000E+00 -7.264083783E+02  7.264083783E+02  0.000000000E+00  0.00000E+00  9.000E+00
      25     1     1     2     0     0  7.470514742E+01  2.833856535E+01 -2.723241683E+00  1.483790733E+02  1.250000000E+02  0.00000E+00  9.000E+00
      25     1     1     2     0     0 -5.139061241E+01 -1.197697205E+02 -6.221783310E+02  6.478554287E+02  1.250000000E+02  0.00000E+00  9.000E+00
      21     1     1     2   501   512 -2.331453501E+01  9.143115519E+01  1.246746845E+02  1.563553665E+02  3.015782986E-06  0.00000E+00  9.000E+00
#rwgt            1           1   2.8106143378411785E-002           5      193339           0
</event>
<event>
      5   9999  3.19816E-02  1.21474E+01 -1.00000E+00  1.86472E-01
      21    -1     0     0   502   501  0.000000000E+00  0.000000000E+00  1.151251940E+02  1.151251940E+02  0.000000000E+00  0.00000E+00  9.000E+00
      21    -1     0     0   501   511  0.000000000E+00  0.000000000E+00 -4.551093833E+02  4.551093833E+02  0.000000000E+00  0.00000E+00  9.000E+00
      25     1     1     2     0     0 -6.017587364E+00 -3.827021050E+01 -3.858465437E+02  4.074351183E+02  1.250000000E+02  0.00000E+00  9.000E+00
      25     1     1     2     0     0  1.333547598E+01  2.857447841E+01  6.163417842E+01  1.428919441E+02  1.250000000E+02  0.00000E+00  9.000E+00
      21     1     1     2   502   511 -7.317888619E+00  9.695732092E+00 -1.577182405E+01  1.990751488E+01  2.384185791E-07  0.00000E+00  9.000E+00
#rwgt            1           1   2.7696633354353479E-002           5      193389           0
</event>
<event>
      5   9999  3.19816E-02  4.16698E+01 -1.00000E+00  1.43747E-01
       2    -1     0     0   502     0  0.000000000E+00  0.000000000E+00  8.898578076E+02  8.898578076E+02  0.000000000E+00  0.00000E+00  9.000E+00
      21    -1     0     0   501   502  0.000000000E+00  0.000000000E+00 -4.357906283E+02  4.357906283E+02  0.000000000E+00  0.00000E+00  9.000E+00
      25     1     1     2     0     0 -1.748386805E+02 -2.657160094E+02  3.314538119E+02  4.760884280E+02  1.250000000E+02  0.00000E+00  9.000E+00
      25     1     1     2     0     0  2.131356231E+02  2.821390406E+02 -2.653164735E+02  4.593985885E+02  1.250000000E+02  0.00000E+00  9.000E+00
       2     1     1     2   501     0 -3.829694258E+01 -1.642303117E+01  3.879298408E+02  3.901614193E+02  5.394796609E-06  0.00000E+00  9.000E+00
#rwgt            1           1   2.7893852634991428E-002           5      193634           0
</event>
<event>
      5   9999  3.19816E-02  3.87794E+02 -1.00000E+00  1.02092E-01
       2    -1     0     0   502     0  0.000000000E+00  0.000000000E+00  2.482958576E+03  2.482958576E+03  0.000000000E+00  0.00000E+00  9.000E+00
      21    -1     0     0   501   502  0.000000000E+00  0.000000000E+00 -2.141131806E+02  2.141131806E+02  0.000000000E+00  0.00000E+00  9.000E+00
      25     1     1     2     0     0 -1.683623675E+02  2.359459946E+02  6.152711972E+02  6.915200975E+02  1.250000000E+02  0.00000E+00  9.000E+00
      25     1     1     2     0     0 -1.834173831E+02 -7.274411305E+01 -6.605553292E+01  2.427384927E+02  1.250000000E+02  0.00000E+00  9.000E+00
       2     1     1     2   501     0  3.517797506E+02 -1.632018815E+02  1.719629731E+03  1.762813166E+03  2.157918644E-05  0.00000E+00  9.000E+00
#rwgt            1           1   2.7165243776828607E-002           5      193784           0
</event>
<event>
      5   9999  3.19816E-02  5.64790E+01 -1.00000E+00  1.36122E-01
      21    -1     0     0   502   501  0.000000000E+00  0.000000000E+00  9.826604539E+01  9.826604539E+01  0.000000000E+00  0.00000E+00  9.000E+00
      21    -1     0     0   501   511  0.000000000E+00  0.000000000E+00 -1.251989142E+03  1.251989142E+03  0.000000000E+00  0.00000E+00  9.000E+00
      25     1     1     2     0     0 -2.146470580E+02  1.487180101E+02 -4.337696393E+02  5.215088743E+02  1.250000000E+02  0.00000E+00  9.000E+00
      25     1     1     2     0     0  1.845988749E+02 -1.965404776E+02 -3.715434913E+02  4.757882616E+02  1.250000000E+02  0.00000E+00  9.000E+00
      21     1     1     2   502   511  3.004818310E+01  4.782246743E+01 -3.484099656E+02  3.529580511E+02  3.814697266E-06  0.00000E+00  9.000E+00
#rwgt            1           1   3.2240201080244328E-002           5      193819           0
</event>
<event>
      5   9999  3.19816E-02  2.96163E+02 -1.00000E+00  1.05774E-01
      21    -1     0     0   502   512  0.000000000E+00  0.000000000E+00  8.739970576E+02  8.739970576E+02  0.000000000E+00  0.00000E+00  9.000E+00
      21    -1     0     0   501   502  0.000000000E+00  0.000000000E+00 -3.279570010E+02  3.279570010E+02  0.000000000E+00  0.00000E+00  9.000E+00
      25     1     1     2     0     0 -5.519201751E+01  7.862166833E+00 -1.721012485E+02  2.198904550E+02  1.250000000E+02  0.00000E+00  9.000E+00
      25     1     1     2     0     0  3.371080917E+02 -9.861410708E+01  4.252171023E+02  5.655096743E+02  1.250000000E+02  0.00000E+00  9.000E+00
      21     1     1     2   501   512 -2.819160742E+02  9.075194025E+01  2.929242027E+02  4.165539294E+02  3.814697266E-06  0.00000E+00  9.000E+00
#rwgt            2          11   3.0980286164876795E-003           5      193912           0
</event>
<event>
      5   9999  3.19816E-02  1.43106E+01 -1.00000E+00  1.79330E-01
      21    -1     0     0   502   501  0.000000000E+00  0.000000000E+00  1.591566093E+03  1.591566093E+03  0.000000000E+00  0.00000E+00  9.000E+00
      21    -1     0     0   501   511  0.000000000E+00  0.000000000E+00 -1.020696800E+02  1.020696800E+02  0.000000000E+00  0.00000E+00  9.000E+00
      25     1     1     2     0     0  1.125278177E+02  4.820294085E+00  1.280296959E+03  1.291305947E+03  1.250000000E+02  0.00000E+00  9.000E+00
      25     1     1     2     0     0 -1.268215454E+02 -5.515142980E+00  2.790266168E+02  3.310513164E+02  1.250000000E+02  0.00000E+00  9.000E+00
      21     1     1     2   502   511  1.429372780E+01  6.948488953E-01 -6.982716224E+01  7.127851048E+01  2.861022949E-06  0.00000E+00  9.000E+00
#rwgt            1           1   3.0577326375038953E-002           5      193932           0
</event>
<event>
      5   9999  3.19816E-02  2.62452E+01 -1.00000E+00  1.57186E-01
      21    -1     0     0   512   501  0.000000000E+00  0.000000000E+00  3.270371199E+02  3.270371199E+02  0.000000000E+00  0.00000E+00  9.000E+00
      21    -1     0     0   501   502  0.000000000E+00  0.000000000E+00 -5.793179750E+02  5.793179750E+02  0.000000000E+00  0.00000E+00  9.000E+00
      25     1     1     2     0     0 -9.068225526E+00 -4.014915584E+01  5.302592362E+01  1.418835297E+02  1.250000000E+02  0.00000E+00  9.000E+00
      25     1     1     2     0     0 -1.617048889E+01  4.734771879E+01 -5.256250403E+02  5.425955899E+02  1.250000000E+02  0.00000E+00  9.000E+00
      21     1     1     2   512   502  2.523871442E+01 -7.198562953E+00  2.203182616E+02  2.218759753E+02  3.814697266E-06  0.00000E+00  9.000E+00
#rwgt            1           1   2.8115761601424486E-002           5      194076           0
</event>
<event>
      5   9999  3.19816E-02  3.20128E+01 -1.00000E+00  1.51106E-01
      21    -1     0     0   502   501  0.000000000E+00  0.000000000E+00  1.485532912E+01  1.485532912E+01  0.000000000E+00  0.00000E+00  9.000E+00
       2    -1     0     0   501     0  0.000000000E+00  0.000000000E+00 -2.102806641E+03  2.102806641E+03  0.000000000E+00  0.00000E+00  9.000E+00
      25     1     1     2     0     0  1.509163721E+01  6.389348647E+01 -6.597953479E+02  6.747333075E+02  1.250000000E+02  0.00000E+00  9.000E+00
      25     1     1     2     0     0 -3.134466062E+01 -9.147355315E+01 -1.337147702E+03  1.346454187E+03  1.250000000E+02  0.00000E+00  9.000E+00
       2     1     1     2   502     0  1.625302341E+01  2.758006668E+01 -9.100826199E+01  9.647447641E+01  1.348699152E-06  0.00000E+00  9.000E+00
#rwgt            1           1  0.16454937573997200                5      194243           0
</event>
<event>
      5   9999  3.19816E-02  6.58558E+01 -1.00000E+00  1.32577E-01
       2    -1     0     0   502     0  0.000000000E+00  0.000000000E+00  1.673071528E+03  1.673071528E+03  0.000000000E+00  0.00000E+00  9.000E+00
      21    -1     0     0   501   502  0.000000000E+00  0.000000000E+00 -2.353569319E+02  2.353569319E+02  0.000000000E+00  0.00000E+00  9.000E+00
      25     1     1     2     0     0  1.386281704E+02  3.599435025E+02  1.034804152E+03  1.111405294E+03  1.250000000E+02  0.00000E+00  9.000E+00
      25     1     1     2     0     0 -2.019143494E+02 -3.417268394E+02  2.877141414E+01  4.171323909E+02  1.250000000E+02  0.00000E+00  9.000E+00
       2     1     1     2   501     0  6.328617892E+01 -1.821666312E+01  3.741390300E+02  3.798907751E+02  5.394796609E-06  0.00000E+00  9.000E+00
#rwgt            1           1   3.1185619833229955E-002           5      194308           0
</event>
<event>
      5   9999  3.19816E-02  9.59093E+01 -1.00000E+00  1.24649E-01
      21    -1     0     0   502   501  0.000000000E+00  0.000000000E+00  5.604597238E+02  5.604597238E+02  0.000000000E+00  0.00000E+00  9.000E+00
      21    -1     0     0   511   502  0.000000000E+00  0.000000000E+00 -1.893918362E+03  1.893918362E+03  0.000000000E+00  0.00000E+00  9.000E+00
      25     1     1     2     0     0 -9.088570798E+02 -4.240074979E+02 -8.405336411E+02  1.314505744E+03  1.250000000E+02  0.00000E+00  9.000E+00
      25     1     1     2     0     0  8.224632035E+02  3.823578750E+02 -3.789010228E+02  9.908754971E+02  1.250000000E+02  0.00000E+00  9.000E+00
      21     1     1     2   511   501  8.639387631E+01  4.164962297E+01 -1.140239746E+02  1.489968447E+02  0.000000000E+00  0.00000E+00  9.000E+00
#rwgt            1           1   4.1729305755606828E-002           5      194457           0
</event>
<event>
      5   9999  3.19816E-02  2.09718E+01 -1.00000E+00  1.64687E-01
      21    -1     0     0   512   501  0.000000000E+00  0.000000000E+00  6.979085069E+02  6.979085069E+02  0.000000000E+00  0.00000E+00  9.000E+00
      21    -1     0     0   501   502  0.000000000E+00  0.000000000E+00 -3.497463750E+02  3.497463750E+02  0.000000000E+00  0.00000E+00  9.000E+00
      25     1     1     2     0     0  9.932928472E+00 -3.356079541E+02 -1.294832659E+02  3.809491804E+02  1.250000000E+02  0.00000E+00  9.000E+00
      25     1     1     2     0     0  5.205635163E+00  3.501213493E+02  2.736887524E+02  4.616736847E+02  1.250000000E+02  0.00000E+00  9.000E+00
      21     1     1     2   512   502 -1.513856363E+01 -1.451339522E+01  2.039566453E+02  2.050320168E+02  0.000000000E+00  0.00000E+00  9.000E+00
#rwgt            1           1   2.8097504653338545E-002           5      194568           0
</event>
<event>
      5   9999  3.19816E-02  1.36404E+02  7.55638E-03  1.18053E-01
       2    -1     0     0   501     0  0.000000000E+00  0.000000000E+00  2.410739895E+03  2.410739895E+03  0.000000000E+00  0.00000E+00  9.000E+00
      -2    -1     0     0     0   502  0.000000000E+00  0.000000000E+00 -1.078532989E+02  1.078532989E+02  0.000000000E+00  0.00000E+00  9.000E+00
      25     1     1     2     0     0 -1.441151812E+02 -3.322847385E+01  1.238660330E+03  1.253705599E+03  1.250000000E+02  0.00000E+00  9.000E+00
      25     1     1     2     0     0  2.747788204E+02  7.238422063E+01  1.083531408E+03  1.127123856E+03  1.250000000E+02  0.00000E+00  9.000E+00
      21     1     1     2   501   502 -1.306636392E+02 -3.915574678E+01 -1.930514163E+01  1.377637384E+02  3.724217260E-06  0.00000E+00  9.000E+00
#rwgt            3           7   2.2063100318056697E-004           5      194730           0
</event>
<event>
      5   9999  3.19816E-02  2.73212E+02 -1.00000E+00  1.06929E-01
      21    -1     0     0   502   501  0.000000000E+00  0.000000000E+00  1.752950370E+03  1.752950370E+03  0.000000000E+00  0.00000E+00  9.000E+00
      21    -1     0     0   511   502  0.000000000E+00  0.000000000E+00 -2.852883144E+02  2.852883144E+02  0.000000000E+00  0.00000E+00  9.000E+00
      25     1     1     2     0     0 -2.055892009E+02 -4.311912923E+02  1.389472922E+02  5.129563335E+02  1.250000000E+02  0.00000E+00  9.000E+00
      25     1     1     2     0     0  2.295657791E+02  1.590335063E+02  1.169934781E+03  1.209282636E+03  1.250000000E+02  0.00000E+00  9.000E+00
      21     1     1     2   511   501 -2.397657821E+01  2.721577860E+02  1.587799827E+02  3.159997147E+02  7.629394531E-06  0.00000E+00  9.000E+00
#rwgt            2          11   4.3212162741440999E-003           5      194824           0
</event>
<event>
      5   9999  3.19816E-02  2.41908E+01 -1.00000E+00  1.59829E-01
      21    -1     0     0   512   501  0.000000000E+00  0.000000000E+00  3.307481410E+02  3.307481410E+02  0.000000000E+00  0.00000E+00  9.000E+00
      21    -1     0     0   501   502  0.000000000E+00  0.000000000E+00 -1.500644065E+03  1.500644065E+03  0.000000000E+00  0.00000E+00  9.000E+00
      25     1     1     2     0     0 -2.314390960E+02 -4.859181922E+01 -1.106409237E+03  1.138284507E+03  1.250000000E+02  0.00000E+00  9.000E+00
      25     1     1     2     0     0  2.164651570E+02  6.759118139E+01 -3.333818798E+02  4.221305601E+02  1.250000000E+02  0.00000E+00  9.000E+00
      21     1     1     2   512   502  1.497393899E+01 -1.899936217E+01  2.698951927E+02  2.709771386E+02  3.814697266E-06  0.00000E+00  9.000E+00
#rwgt            1           1   3.1581620605846281E-002           5      194859           0
</event>
<event>
      5   9999  3.19816E-02  3.03099E+01 -1.00000E+00  1.52730E-01
      21    -1     0     0   502   501  0.000000000E+00  0.000000000E+00  1.189904223E+03  1.189904223E+03  0.000000000E+00  0.00000E+00  9.000E+00
      21    -1     0     0   501   511  0.000000000E+00  0.000000000E+00 -8.693212449E+01  8.693212449E+01  0.000000000E+00  0.00000E+00  9.000E+00
      25     1     1     2     0     0 -8.651997752E+01 -2.269105501E+02  5.261040934E+02  5.927770419E+02  1.250000000E+02  0.00000E+00  9.000E+00
      25     1     1     2     0     0  5.836604970E+01  2.381376467E+02  5.899969807E+02  6.510280883E+02  1.250000000E+02  0.00000E+00  9.000E+00
      21     1     1     2   502   511  2.815392783E+01 -1.122709664E+01 -1.312897522E+01  3.303121768E+01  7.907449699E-07  0.00000E+00  9.000E+00
#rwgt            2          11   1.7167023299397982E-003           5      195076           0
</event>
<event>
      5   9999  3.19816E-02  5.04005E+02 -1.00000E+00  9.87537E-02
      21    -1     0     0   502   501  0.000000000E+00  0.000000000E+00  4.061973403E+02  4.061973403E+02  0.000000000E+00  0.00000E+00  9.000E+00
      21    -1     0     0   501   512  0.000000000E+00  0.000000000E+00 -2.258935713E+03  2.258935713E+03  0.000000000E+00  0.00000E+00  9.000E+00
      25     1     1     2     0     0 -1.809115652E+02  2.076378316E+02 -2.781933861E+02  4.109245960E+02  1.250000000E+02  0.00000E+00  9.000E+00
      25     1     1     2     0     0  3.185739338E+02  2.772024488E+02  1.439478211E+02  4.633319804E+02  1.250000000E+02  0.00000E+00  9.000E+00
      21     1     1     2   502   512 -1.376623685E+02 -4.848402804E+02 -1.718492808E+03  1.790876477E+03  0.000000000E+00  0.00000E+00  9.000E+00
#rwgt            2          11   1.1022126214336263E-003           5      195576           0
</event>
<event>
      5   9999  3.19816E-02  1.53731E+02 -1.00000E+00  1.15972E-01
      -2    -1     0     0     0   501  0.000000000E+00  0.000000000E+00  3.516024629E+02  3.516024629E+02  0.000000000E+00  0.00000E+00  9.000E+00
      21    -1     0     0   501   502  0.000000000E+00  0.000000000E+00 -3.349002312E+02  3.349002312E+02  0.000000000E+00  0.00000E+00  9.000E+00
      25     1     1     2     0     0 -9.462449798E+01 -9.976233934E+00 -4.476132377E+01  1.633459426E+02  1.250000000E+02  0.00000E+00  9.000E+00
      25     1     1     2     0     0  2.368276885E+02  6.838402418E+01 -1.058315682E+02  2.959544722E+02  1.250000000E+02  0.00000E+00  9.000E+00
      -2     1     1     2     0   502 -1.422031905E+02 -5.840779025E+01  1.672951236E+02  2.272022794E+02  1.907348633E-06  0.00000E+00  9.000E+00
#rwgt            2           4   8.7017368472373921E-005           5      195671           0
</event>
<event>
      5   9999  3.19816E-02  3.34530E+01 -1.00000E+00  1.49825E-01
      21    -1     0     0   511   501  0.000000000E+00  0.000000000E+00  3.161830614E+02  3.161830614E+02  0.000000000E+00  0.00000E+00  9.000E+00
      21    -1     0     0   501   502  0.000000000E+00  0.000000000E+00 -1.939553221E+02  1.939553221E+02  0.000000000E+00  0.00000E+00  9.000E+00
      25     1     1     2     0     0 -1.312945763E+02  1.991919508E+01 -8.976164983E+01  2.032663127E+02  1.250000000E+02  0.00000E+00  9.000E+00
      25     1     1     2     0     0  1.210413721E+02 -5.176214517E+01  1.462816252E+02  2.331386869E+02  1.250000000E+02  0.00000E+00  9.000E+00
      21     1     1     2   511   502  1.025320420E+01  3.184295009E+01  6.570776391E+01  7.373338392E+01  9.536743164E-07  0.00000E+00  9.000E+00
#rwgt            1           1   2.7623682124096844E-002           5      195690           0
</event>
<event>
      5   9999  3.19816E-02  1.07063E+02 -1.00000E+00  1.22509E-01
      21    -1     0     0   502   501  0.000000000E+00  0.000000000E+00  7.709573567E+02  7.709573567E+02  0.000000000E+00  0.00000E+00  9.000E+00
       2    -1     0     0   501     0  0.000000000E+00  0.000000000E+00 -1.281310807E+03  1.281310807E+03  0.000000000E+00  0.00000E+00  9.000E+00
      25     1     1     2     0     0  2.066746680E+01  2.303210251E+02 -2.679378869E+02  3.753540063E+02  1.250000000E+02  0.00000E+00  9.000E+00
      25     1     1     2     0     0  5.894587907E+01 -1.587382432E+02  6.987085628E+02  7.297198793E+02  1.250000000E+02  0.00000E+00  9.000E+00
       2     1     1     2   502     0 -7.961334587E+01 -7.158278190E+01 -9.411241266E+02  9.471942784E+02  1.868812365E-05  0.00000E+00  9.000E+00
#rwgt            1           1   2.9390196877457829E-002           5      195818           0
</event>
<event>
      5   9999  3.19816E-02  5.28173E+01 -1.00000E+00  1.37731E-01
      21    -1     0     0   502   501  0.000000000E+00  0.000000000E+00  3.702702136E+01  3.702702136E+01  0.000000000E+00  0.00000E+00  9.000E+00
      21    -1     0     0   501   511  0.000000000E+00  0.000000000E+00 -3.437549744E+03  3.437549744E+03  0.000000000E+00  0.00000E+00  9.000E+00
      25     1     1     2     0     0  2.081373024E+02  1.902165189E+02 -1.747000274E+03  1.774017593E+03  1.250000000E+02  0.00000E+00  9.000E+00
      25     1     1     2     0     0 -1.950797800E+02 -1.390386864E+02 -7.806759190E+02  8.261160738E+02  1.250000000E+02  0.00000E+00  9.000E+00
      21     1     1     2   502   511 -1.305752238E+01 -5.117783248E+01 -8.728465294E+02  8.744430989E+02  1.525878906E-05  0.00000E+00  9.000E+00
#rwgt            1           1   7.2170073840135393E-002           5      195877           0
</event>
<event>
      5   9999  3.19816E-02  2.58521E+02 -1.00000E+00  1.07735E-01
      21    -1     0     0   502   501  0.000000000E+00  0.000000000E+00  4.680225635E+02  4.680225635E+02  0.000000000E+00  0.00000E+00  9.000E+00
      21    -1     0     0   512   502  0.000000000E+00  0.000000000E+00 -3.362080527E+02  3.362080527E+02  0.000000000E+00  0.00000E+00  9.000E+00
      25     1     1     2     0     0  3.913610689E+01  1.232239608E+00 -1.335254188E+02  1.870486321E+02  1.250000000E+02  0.00000E+00  9.000E+00
      25     1     1     2     0     0  1.690005217E+02 -1.545691790E+02  2.449135211E+02  3.578553343E+02  1.250000000E+02  0.00000E+00  9.000E+00
      21     1     1     2   512   501 -2.081366286E+02  1.533369394E+02  2.042640853E+01  2.593266498E+02  5.550597537E-06  0.00000E+00  9.000E+00
#rwgt            1           1   2.8427010188700075E-002           5      195955           0
</event>
<event>
      5   9999  3.19816E-02  5.76453E+02 -1.00000E+00  9.71277E-02
      21    -1     0     0   502   501  0.000000000E+00  0.000000000E+00  5.432203494E+02  5.432203494E+02  0.000000000E+00  0.00000E+00  9.000E+00
       2    -1     0     0   501     0  0.000000000E+00  0.000000000E+00 -1.078932878E+03  1.078932878E+03  0.000000000E+00  0.00000E+00  9.000E+00
      25     1     1     2     0     0 -5.599419467E+01  2.833053649E+02 -8.035557044E+01  3.247757647E+02  1.250000000E+02  0.00000E+00  9.000E+00
      25     1     1     2     0     0  1.694551034E+02  2.818709066E+02  2.157206479E+02  4.127064792E+02  1.250000000E+02  0.00000E+00  9.000E+00
       2     1     1     2   502     0 -1.134609087E+02 -5.651762715E+02 -6.710776058E+02  8.846709833E+02  1.078959322E-05  0.00000E+00  9.000E+00
#rwgt            1           1   3.0418801981824353E-002           5      195987           0
</event>
<event>
      5   9999  3.19816E-02  5.34985E+01 -1.00000E+00  1.37420E-01
      21    -1     0     0   502   501  0.000000000E+00  0.000000000E+00  2.336773139E+02  2.336773139E+02  0.000000000E+00  0.00000E+00  9.000E+00
      21    -1     0     0   511   502  0.000000000E+00  0.000000000E+00 -6.696710429E+02  6.696710429E+02  0.000000000E+00  0.00000E+00  9.000E+00
      25     1     1     2     0     0  1.164004777E+02 -2.725041164E+02 -2.902718694E+02  4.332324120E+02  1.250000000E+02  0.00000E+00  9.000E+00
      25     1     1     2     0     0 -1.511138848E+02  3.132112769E+02 -6.797740317E+01  3.757427810E+02  1.250000000E+02  0.00000E+00  9.000E+00
      21     1     1     2   511   501  3.471340710E+01 -4.070716051E+01 -7.774445646E+01  9.437316387E+01  1.651812370E-06  0.00000E+00  9.000E+00
#rwgt            1           1   2.5593159708713273E-002           5      196046           0
</event>
<event>
      5   9999  3.19816E-02  7.68603E+01 -1.00000E+00  1.29197E-01
      21    -1     0     0   512   501  0.000000000E+00  0.000000000E+00  3.683030564E+02  3.683030564E+02  0.000000000E+00  0.00000E+00  9.000E+00
      21    -1     0     0   501   502  0.000000000E+00  0.000000000E+00 -1.123739881E+03  1.123739881E+03  0.000000000E+00  0.00000E+00  9.000E+00
      25     1     1     2     0     0  1.291912556E+01  5.540871197E+02 -2.804655694E+02  6.336129542E+02  1.250000000E+02  0.00000E+00  9.000E+00
      25     1     1     2     0     0 -7.114197443E+01 -6.042628402E+02 -4.743709213E+02  7.815673557E+02  1.250000000E+02  0.00000E+00  9.000E+00
      21     1     1     2   512   502  5.822284886E+01  5.017572042E+01 -6.003334035E-01  7.686262713E+01  9.471912300E-07  0.00000E+00  9.000E+00
#rwgt            1           1   2.0709781920584373E-002           5      196134           0
</event>
<event>
      5   9999  3.19816E-02  2.07445E+01 -1.00000E+00  1.65070E-01
      21    -1     0     0   502   501  0.000000000E+00  0.000000000E+00  3.679948202E+02  3.679948202E+02  0.000000000E+00  0.00000E+00  9.000E+00
      21    -1     0     0   501   511  0.000000000E+00  0.000000000E+00 -4.143549379E+02  4.143549379E+02  0.000000000E+00  0.00000E+00  9.000E+00
      25     1     1     2     0     0  3.208049203E+02 -2.806084021E+01 -1.872764349E+02  3.929385075E+02  1.250000000E+02  0.00000E+00  9.000E+00
      25     1     1     2     0     0 -3.014886650E+02  3.562496907E+01  1.562662762E+02  3.636051466E+02  1.250000000E+02  0.00000E+00  9.000E+00
      21     1     1     2   502   511 -1.931625532E+01 -7.564128860E+00 -1.534995895E+01  2.580610402E+01  5.331201500E-07  0.00000E+00  9.000E+00
#rwgt            1           1   3.0561557968443884E-002           5      196243           0
</event>
<event>
      5   9999  3.19816E-02  3.09731E+02 -1.00000E+00  1.05144E-01
      21    -1     0     0   512   501  0.000000000E+00  0.000000000E+00  9.416967455E+02  9.416967455E+02  0.000000000E+00  0.00000E+00  9.000E+00
      21    -1     0     0   501   502  0.000000000E+00  0.000000000E+00 -3.881463064E+02  3.881463064E+02  0.000000000E+00  0.00000E+00  9.000E+00
      25     1     1     2     0     0 -2.307753567E+02  2.185597494E+02 -3.619801831E+01  3.434544014E+02  1.250000000E+02  0.00000E+00  9.000E+00
      25     1     1     2     0     0  3.599896986E+02  6.293078133E+01  8.703677291E+01  3.959207827E+02  1.250000000E+02  0.00000E+00  9.000E+00
      21     1     1     2   512   502 -1.292143419E+02 -2.814905308E+02  5.027116846E+02  5.904678678E+02  5.394796609E-06  0.00000E+00  9.000E+00
#rwgt            1           1   2.7295390551419316E-002           5      196381           0
</event>
<event>
      5   9999  3.19816E-02  8.76067E+00 -1.00000E+00  2.02643E-01
      21    -1     0     0   511   501  0.000000000E+00  0.000000000E+00  3.342694677E+02  3.342694677E+02  0.000000000E+00  0.00000E+00  9.000E+00
      21    -1     0     0   501   502  0.000000000E+00  0.000000000E+00 -4.610505296E+02  4.610505296E+02  0.000000000E+00  0.00000E+00  9.000E+00
      25     1     1     2     0     0  1.396852150E+02 -2.169571723E+02 -1.168925530E+02  3.096308170E+02  1.250000000E+02  0.00000E+00  9.000E+00
      25     1     1     2     0     0 -1.386548972E+02  2.082573004E+02 -1.687103641E+02  3.266258879E+02  1.250000000E+02  0.00000E+00  9.000E+00
      21     1     1     2   511   502 -1.030317742E+00  8.699871971E+00  1.588218552E+02  1.590632925E+02  1.907348633E-06  0.00000E+00  9.000E+00
#rwgt            1           1   3.1235325327874829E-002           5      196438           0
</event>
<event>
      5   9999  3.19816E-02  5.64596E+01 -1.00000E+00  1.36130E-01
       2    -1     0     0   502     0  0.000000000E+00  0.000000000E+00  1.294658946E+03  1.294658946E+03  0.000000000E+00  0.00000E+00  9.000E+00
      21    -1     0     0   501   502  0.000000000E+00  0.000000000E+00 -1.436180259E+02  1.436180259E+02  0.000000000E+00  0.00000E+00  9.000E+00
      25     1     1     2     0     0 -1.430019498E+02 -1.331591465E+02  4.177008440E+02  4.777864701E+02  1.250000000E+02  0.00000E+00  9.000E+00
      25     1     1     2     0     0  9.540057647E+01  1.635202680E+02  1.892573187E+00  2.268672075E+02  1.250000000E+02  0.00000E+00  9.000E+00
       2     1     1     2   501     0  4.760137330E+01 -3.036112142E+01  7.314475024E+02  7.336232938E+02  1.078959322E-05  0.00000E+00  9.000E+00
#rwgt            1           1   2.6040128221438197E-002           5      196634           0
</event>
<event>
      5   9999  3.19816E-02  5.93073E+01 -1.00000E+00  1.34973E-01
      21    -1     0     0   502   501  0.000000000E+00  0.000000000E+00  1.233089059E+02  1.233089059E+02  0.000000000E+00  0.00000E+00  9.000E+00
       1    -1     0     0   501     0  0.000000000E+00  0.000000000E+00 -1.237339782E+03  1.237339782E+03  0.000000000E+00  0.00000E+00  9.000E+00
      25     1     1     2     0     0 -1.825188595E+02  1.026941786E+02 -1.942969799E+02  3.118261451E+02  1.250000000E+02  0.00000E+00  9.000E+00
      25     1     1     2     0     0  1.409404132E+02 -1.449858658E+02 -1.594793077E+02  2.862581893E+02  1.250000000E+02  0.00000E+00  9.000E+00
       1     1     1     2   502     0  4.157844623E+01  4.229168722E+01 -7.602545882E+02  7.625643533E+02  0.000000000E+00  0.00000E+00  9.000E+00
#rwgt            1           1   3.0332582980934816E-002           5      196694           0
</event>
<event>
      5   9999  3.19816E-02  1.65634E+01 -1.00000E+00  1.73421E-01
      21    -1     0     0   502   501  0.000000000E+00  0.000000000E+00  9.856728743E+01  9.856728743E+01  0.000000000E+00  0.00000E+00  9.000E+00
      21    -1     0     0   501   511  0.000000000E+00  0.000000000E+00 -5.810858053E+02  5.810858053E+02  0.000000000E+00  0.00000E+00  9.000E+00
      25     1     1     2     0     0 -3.429623826E+01 -1.050693222E+02 -7.167318897E+00  1.670094755E+02  1.250000000E+02  0.00000E+00  9.000E+00
      25     1     1     2     0     0  1.776534011E+01  1.061068968E+02 -3.583938852E+02  3.945192744E+02  1.250000000E+02  0.00000E+00  9.000E+00
      21     1     1     2   502   511  1.653089814E+01 -1.037574618E+00 -1.169573137E+02  1.181243429E+02  1.348699152E-06  0.00000E+00  9.000E+00
#rwgt            1           1   2.8925727605797553E-002           5      196849           0
</event>
<event>
      5   9999  3.19816E-02  6.21167E+01 -1.00000E+00  1.33904E-01
      21    -1     0     0   502   501  0.000000000E+00  0.000000000E+00  5.709911639E+02  5.709911639E+02  0.000000000E+00  0.00000E+00  9.000E+00
      21    -1     0     0   501   512  0.000000000E+00  0.000000000E+00 -8.290540887E+02  8.290540887E+02  0.000000000E+00  0.00000E+00  9.000E+00
      25     1     1     2     0     0 -3.224739111E+02  5.713408438E+02 -1.402264055E+02  6.824281852E+02  1.250000000E+02  0.00000E+00  9.000E+00
      25     1     1     2     0     0  3.578019895E+02 -5.202486489E+02 -9.145681641E+01  6.501309634E+02  1.250000000E+02  0.00000E+00  9.000E+00
      21     1     1     2   502   512 -3.532807845E+01 -5.109219494E+01 -2.637970284E+01  6.748610399E+01  1.469710828E-06  0.00000E+00  9.000E+00
#rwgt            1           1   2.9763354244168271E-002           5      197037           0
</event>
<event>
      5   9999  3.19816E-02  2.34458E+01 -1.00000E+00  1.60868E-01
      21    -1     0     0   511   501  0.000000000E+00  0.000000000E+00  7.820265972E+02  7.820265972E+02  0.000000000E+00  0.00000E+00  9.000E+00
      21    -1     0     0   501   502  0.000000000E+00  0.000000000E+00 -6.963791998E+01  6.963791998E+01  0.000000000E+00  0.00000E+00  9.000E+00
      25     1     1     2     0     0 -2.346520472E+01 -1.514057244E+02  1.558714112E+02  2.517840464E+02  1.250000000E+02  0.00000E+00  9.000E+00
      25     1     1     2     0     0  2.203139038E-01  1.544682200E+02  5.177806862E+02  5.546010444E+02  1.250000000E+02  0.00000E+00  9.000E+00
      21     1     1     2   511   502  2.324489082E+01 -3.062495612E+00  3.873657988E+01  4.527942633E+01  6.743495762E-07  0.00000E+00  9.000E+00
#rwgt            1           1   3.1082865944737640E-002           5      197171           0
</event>
<event>
      5   9999  3.19816E-02  5.26874E+01 -1.00000E+00  1.37791E-01
      21    -1     0     0   502   512  0.000000000E+00  0.000000000E+00  1.626235157E+02  1.626235157E+02  0.000000000E+00  0.00000E+00  9.000E+00
      21    -1     0     0   501   502  0.000000000E+00  0.000000000E+00 -1.944956926E+03  1.944956926E+03  0.000000000E+00  0.00000E+00  9.000E+00
      25     1     1     2     0     0  4.968786160E+01  2.805279591E+01 -1.872511599E+03  1.877546412E+03  1.250000000E+02  0.00000E+00  9.000E+00
      25     1     1     2     0     0 -3.067102082E+01  2.108292164E+01  1.130473077E+02  1.725974938E+02  1.250000000E+02  0.00000E+00  9.000E+00
      21     1     1     2   501   512 -1.901684078E+01 -4.913571755E+01 -2.286911895E+01  5.743653518E+01  6.743495762E-07  0.00000E+00  9.000E+00
#rwgt            1           1   2.9489281438611063E-002           5      197297           0
</event>
<event>
      5   9999  3.19816E-02  9.26506E+00 -1.00000E+00  1.99669E-01
      21    -1     0     0   502   501  0.000000000E+00  0.000000000E+00  9.217912849E+01  9.217912849E+01  0.000000000E+00  0.00000E+00  9.000E+00
      21    -1     0     0   501   511  0.000000000E+00  0.000000000E+00 -3.325093615E+02  3.325093615E+02  0.000000000E+00  0.00000E+00  9.000E+00
      25     1     1     2     0     0  6.910446506E+01 -1.699444957E-01 -4.940202281E+00  1.429155750E+02  1.250000000E+02  0.00000E+00  9.000E+00
      25     1     1     2     0     0 -7.385908194E+01  8.121989002E+00 -2.244124339E+02  2.674080612E+02  1.250000000E+02  0.00000E+00  9.000E+00
      21     1     1     2   502   511  4.754616879E+00 -7.952044506E+00 -1.097759677E+01  1.436485379E+01  2.384185791E-07  0.00000E+00  9.000E+00
#rwgt            1           1   3.2293922249640089E-002           5      197421           0
</event>
<event>
      5   9999  3.19816E-02  1.36381E+01 -1.00000E+00  1.81369E-01
      21    -1     0     0   502   512  0.000000000E+00  0.000000000E+00  2.908470567E+02  2.908470567E+02  0.000000000E+00  0.00000E+00  9.000E+00
      21    -1     0     0   501   502  0.000000000E+00  0.000000000E+00 -4.176535462E+02  4.176535462E+02  0.000000000E+00  0.00000E+00  9.000E+00
      25     1     1     2     0     0  1.206077433E+02 -1.283523323E+02 -6.502775852E+01  2.255530056E+02  1.250000000E+02  0.00000E+00  9.000E+00
      25     1     1     2     0     0 -1.226787079E+02  1.148724326E+02 -2.317810595E+02  3.123991049E+02  1.250000000E+02  0.00000E+00  9.000E+00
      21     1     1     2   501   512  2.070964604E+00  1.347989971E+01  1.700023285E+02  1.705484925E+02  0.000000000E+00  0.00000E+00  9.000E+00
#rwgt            1           1   2.7535596587992942E-002           5      197635           0
</event>
<event>
      5   9999  3.19816E-02  7.34387E+01 -1.00000E+00  1.30175E-01
      21    -1     0     0   502   501  0.000000000E+00  0.000000000E+00  8.733824906E+02  8.733824906E+02  0.000000000E+00  0.00000E+00  9.000E+00
      21    -1     0     0   501   511  0.000000000E+00  0.000000000E+00 -1.883911968E+02  1.883911968E+02  0.000000000E+00  0.00000E+00  9.000E+00
      25     1     1     2     0     0  8.154847682E+01 -1.665658959E+01  6.999886351E+02  7.159166748E+02  1.250000000E+02  0.00000E+00  9.000E+00
      25     1     1     2     0     0 -1.168727236E+02  8.104165775E+01  9.636678804E+01  2.124583292E+02  1.250000000E+02  0.00000E+00  9.000E+00
      21     1     1     2   502   511  3.532424682E+01 -6.438506815E+01 -1.113641294E+02  1.333986834E+02  3.015782986E-06  0.00000E+00  9.000E+00
#rwgt            1           1   2.9838713291002808E-002           5      197753           0
</event>
<event>
      5   9999  3.19816E-02  2.32884E+02 -1.00000E+00  1.09293E-01
      21    -1     0     0   502   501  0.000000000E+00  0.000000000E+00  8.097158505E+02  8.097158505E+02  0.000000000E+00  0.00000E+00  9.000E+00
      21    -1     0     0   512   502  0.000000000E+00  0.000000000E+00 -7.397769481E+02  7.397769481E+02  0.000000000E+00  0.00000E+00  9.000E+00
      25     1     1     2     0     0 -1.299261004E+02 -1.618497625E+02  3.629694173E+02  4.364034087E+02  1.250000000E+02  0.00000E+00  9.000E+00
      25     1     1     2     0     0  1.383330400E+01  3.637344791E+02  2.922040357E+02  4.832207881E+02  1.250000000E+02  0.00000E+00  9.000E+00
      21     1     1     2   512   501  1.160927964E+02 -2.018847166E+02 -5.852345507E+02  6.298686018E+02  7.629394531E-06  0.00000E+00  9.000E+00
#rwgt            1           1   2.1246551414369375E-002           5      197838           0
</event>
<event>
      5   9999  3.19816E-02  4.89877E+01 -1.00000E+00  1.39584E-01
      21    -1     0     0   502   501  0.000000000E+00  0.000000000E+00  1.770101981E+03  1.770101981E+03  0.000000000E+00  0.00000E+00  9.000E+00
      21    -1     0     0   511   502  0.000000000E+00  0.000000000E+00 -4.839047312E+02  4.839047312E+02  0.000000000E+00  0.00000E+00  9.000E+00
      25     1     1     2     0     0  6.836080689E+01  3.861421567E+02  1.587699697E+03  1.640181177E+03  1.250000000E+02  0.00000E+00  9.000E+00
      25     1     1     2     0     0 -1.127524303E+02 -4.068586785E+02 -1.674026962E+02  4.710581254E+02  1.250000000E+02  0.00000E+00  9.000E+00
      21     1     1     2   511   501  4.439162341E+01  2.071652180E+01 -1.340997503E+02  1.427674106E+02  1.907348633E-06  0.00000E+00  9.000E+00
#rwgt            1           1   3.8860552076955240E-002           5      197884           0
</event>
<event>
      5   9999  3.19816E-02  6.87076E+01 -1.00000E+00  1.31632E-01
      21    -1     0     0   502   501  0.000000000E+00  0.000000000E+00  4.310387977E+02  4.310387977E+02  0.000000000E+00  0.00000E+00  9.000E+00
      21    -1     0     0   512   502  0.000000000E+00  0.000000000E+00 -1.070035018E+03  1.070035018E+03  0.000000000E+00  0.00000E+00  9.000E+00
      25     1     1     2     0     0 -1.940600679E+02  4.064768006E+01 -4.473385056E+01  2.386161378E+02  1.250000000E+02  0.00000E+00  9.000E+00
      25     1     1     2     0     0  1.737514905E+02 -1.062852796E+02  2.898582590E+02  3.756713343E+02  1.250000000E+02  0.00000E+00  9.000E+00
      21     1     1     2   512   501  2.030857740E+01  6.563759957E+01 -8.841206289E+02  8.867863436E+02  1.525878906E-05  0.00000E+00  9.000E+00
#rwgt            1           1   3.1029527343289787E-002           5      197997           0
</event>
<event>
      5   9999  3.19816E-02  6.16449E+01 -1.00000E+00  1.34079E-01
      21    -1     0     0   502   511  0.000000000E+00  0.000000000E+00  3.189639682E+02  3.189639682E+02  0.000000000E+00  0.00000E+00  9.000E+00
      21    -1     0     0   501   502  0.000000000E+00  0.000000000E+00 -2.621872662E+02  2.621872662E+02  0.000000000E+00  0.00000E+00  9.000E+00
      25     1     1     2     0     0  1.161889544E+01 -6.554842036E+01  2.122963515E+02  2.551986187E+02  1.250000000E+02  0.00000E+00  9.000E+00
      25     1     1     2     0     0 -7.087696750E+01  8.253579461E+01 -1.925506589E+02  2.540402688E+02  1.250000000E+02  0.00000E+00  9.000E+00
      21     1     1     2   501   511  5.925807206E+01 -1.698737424E+01  3.703100938E+01  7.191234695E+01  8.259061849E-07  0.00000E+00  9.000E+00
#rwgt            1           1   2.6595122740282171E-002           5      198089           0
</event>
<event>
      5   9999  3.19816E-02  2.77561E+02 -1.00000E+00  1.06701E-01
       2    -1     0     0   502     0  0.000000000E+00  0.000000000E+00  1.177621027E+03  1.177621027E+03  0.000000000E+00  0.00000E+00  9.000E+00
      21    -1     0     0   501   502  0.000000000E+00  0.000000000E+00 -8.843561755E+02  8.843561755E+02  0.000000000E+00  0.00000E+00  9.000E+00
      25     1     1     2     0     0 -9.330069357E+01  6.584531443E+02 -1.748506789E+02  6.989015113E+02  1.250000000E+02  0.00000E+00  9.000E+00
      25     1     1     2     0     0  1.087032908E+02 -3.813194001E+02 -3.218485303E+02  5.257683584E+02  1.250000000E+02  0.00000E+00  9.000E+00
       2     1     1     2   501     0 -1.540259727E+01 -2.771337442E+02  7.899640604E+02  8.373073325E+02  1.078959322E-05  0.00000E+00  9.000E+00
#rwgt            2          18   1.6532273807636597E-003           5      198171           0
</event>
<event>
      5   9999  3.19816E-02  1.28558E+02 -1.00000E+00  1.19112E-01
      21    -1     0     0   502   511  0.000000000E+00  0.000000000E+00  2.026385072E+02  2.026385072E+02  0.000000000E+00  0.00000E+00  9.000E+00
      21    -1     0     0   501   502  0.000000000E+00  0.000000000E+00 -6.764919390E+02  6.764919390E+02  0.000000000E+00  0.00000E+00  9.000E+00
      25     1     1     2     0     0 -1.605191906E+02  2.346725336E+01 -4.036320856E+02  4.526157123E+02  1.250000000E+02  0.00000E+00  9.000E+00
      25     1     1     2     0     0  2.220527095E+02 -1.363419895E+02 -2.437612263E+01  2.900271354E+02  1.250000000E+02  0.00000E+00  9.000E+00
      21     1     1     2   501   511 -6.153351885E+01  1.128747362E+02 -4.584522369E+01  1.364875985E+02  2.023048729E-06  0.00000E+00  9.000E+00
#rwgt            1           1   2.8849964910272172E-002           5      198235           0
</event>
<event>
      5   9999  3.19816E-02  2.42133E+01 -1.00000E+00  1.59798E-01
      21    -1     0     0   512   501  0.000000000E+00  0.000000000E+00  1.575645385E+03  1.575645385E+03  0.000000000E+00  0.00000E+00  9.000E+00
      21    -1     0     0   501   502  0.000000000E+00  0.000000000E+00 -6.202262851E+01  6.202262851E+01  0.000000000E+00  0.00000E+00  9.000E+00
      25     1     1     2     0     0  2.028045873E+02  7.624357689E+01  9.527682900E+02  9.850559365E+02  1.250000000E+02  0.00000E+00  9.000E+00
      25     1     1     2     0     0 -2.074102150E+02 -1.000148621E+02  3.341645547E+02  4.246326878E+02  1.250000000E+02  0.00000E+00  9.000E+00
      21     1     1     2   512   502  4.605627665E+00  2.377128517E+01  2.266899123E+02  2.279793897E+02  3.814697266E-06  0.00000E+00  9.000E+00
#rwgt            1           1   3.3260230310596772E-002           5      198290           0
</event>
<event>
      5   9999  3.19816E-02  2.47460E+01 -1.00000E+00  1.59084E-01
      21    -1     0     0   502   511  0.000000000E+00  0.000000000E+00  2.055884455E+03  2.055884455E+03  0.000000000E+00  0.00000E+00  9.000E+00
      21    -1     0     0   501   502  0.000000000E+00  0.000000000E+00 -2.686261032E+02  2.686261032E+02  0.000000000E+00  0.00000E+00  9.000E+00
      25     1     1     2     0     0  1.015271131E+02  2.603724848E+02  3.554165050E+02  4.690921845E+02  1.250000000E+02  0.00000E+00  9.000E+00
      25     1     1     2     0     0 -1.211928502E+02 -2.453517001E+02 -1.047979721E+02  3.185793130E+02  1.250000000E+02  0.00000E+00  9.000E+00
      21     1     1     2   501   511  1.966573714E+01 -1.502078473E+01  1.536639819E+03  1.536839061E+03  2.157918644E-05  0.00000E+00  9.000E+00
#rwgt            1           1   3.1014802893694741E-002           5      198394           0
</event>
<event>
      5   9999  3.19816E-02  2.66787E+01 -1.00000E+00  1.56665E-01
      21    -1     0     0   502   501  0.000000000E+00  0.000000000E+00  3.638585054E+02  3.638585054E+02  0.000000000E+00  0.00000E+00  9.000E+00
      21    -1     0     0   501   512  0.000000000E+00  0.000000000E+00 -2.694781402E+02  2.694781402E+02  0.000000000E+00  0.00000E+00  9.000E+00
      25     1     1     2     0     0 -4.987569996E+01 -5.592380262E+01  2.637826400E+02  3.013657882E+02  1.250000000E+02  0.00000E+00  9.000E+00
      25     1     1     2     0     0  4.414092867E+01  8.197885813E+01  4.602137134E+00  1.559331088E+02  1.250000000E+02  0.00000E+00  9.000E+00
      21     1     1     2   502   512  5.734771291E+00 -2.605505551E+01 -1.740044119E+02  1.760377485E+02  1.907348633E-06  0.00000E+00  9.000E+00
#rwgt            1           1   2.7211929878442908E-002           5      198532           0
</event>
<event>
      5   9999  3.19816E-02  1.72791E+02 -1.00000E+00  1.14010E-01
      21    -1     0     0   511   501  0.000000000E+00  0.000000000E+00  2.394731718E+02  2.394731718E+02  0.000000000E+00  0.00000E+00  9.000E+00
      21    -1     0     0   501   502  0.000000000E+00  0.000000000E+00 -1.480912111E+03  1.480912111E+03  0.000000000E+00  0.00000E+00  9.000E+00
      25     1     1     2     0     0  1.450445010E+02 -1.424510874E+02 -6.700692187E+02  7.113002021E+02  1.250000000E+02  0.00000E+00  9.000E+00
      25     1     1     2     0     0 -2.838463394E+02  3.953896623E+01 -7.175784262E+02  7.827361446E+02  1.250000000E+02  0.00000E+00  9.000E+00
      21     1     1     2   511   502  1.388018384E+02  1.029121212E+02  1.462087061E+02  2.263489359E+02  4.672030912E-06  0.00000E+00  9.000E+00
#rwgt            1           1   2.8190243177831906E-002           5      198665           0
</event>
<event>
      5   9999  3.19816E-02  7.89125E+01 -1.00000E+00  1.28638E-01
      21    -1     0     0   502   501  0.000000000E+00  0.000000000E+00  4.063529001E+02  4.063529001E+02  0.000000000E+00  0.00000E+00  9.000E+00
      21    -1     0     0   512   502  0.000000000E+00  0.000000000E+00 -1.599798610E+02  1.599798610E+02  0.000000000E+00  0.00000E+00  9.000E+00
      25     1     1     2     0     0 -2.257326660E+01  1.615576733E+02  1.516696135E+02  2.554194703E+02  1.250000000E+02  0.00000E+00  9.000E+00
      25     1     1     2     0     0  5.489050806E+00 -8.451666316E+01  1.513397609E+02  2.137800722E+02  1.250000000E+02  0.00000E+00  9.000E+00
      21     1     1     2   512   501  1.708421579E+01 -7.704101009E+01 -5.663633534E+01  9.713321855E+01  1.907348633E-06  0.00000E+00  9.000E+00
#rwgt            1           1   2.8847338727147977E-002           5      198710           0
</event>
<event>
      5   9999  3.19816E-02  1.13763E+01 -1.00000E+00  1.89499E-01
      21    -1     0     0   502   501  0.000000000E+00  0.000000000E+00  4.696619219E+02  4.696619219E+02  0.000000000E+00  0.00000E+00  9.000E+00
      21    -1     0     0   511   502  0.000000000E+00  0.000000000E+00 -1.085399044E+02  1.085399044E+02  0.000000000E+00  0.00000E+00  9.000E+00
      25     1     1     2     0     0  1.449794452E+02 -2.833956736E+01  3.057488697E+02  3.618418742E+02  1.250000000E+02  0.00000E+00  9.000E+00
      25     1     1     2     0     0 -1.507825064E+02  1.855467821E+01  4.710266225E+01  2.022950842E+02  1.250000000E+02  0.00000E+00  9.000E+00
      21     1     1     2   511   501  5.803061158E+00  9.784889145E+00  8.270485615E+00  1.406486782E+01  0.000000000E+00  0.00000E+00  9.000E+00
#rwgt            1           1   2.4446220343021106E-002           5      198752           0
</event>
<event>
      5   9999  3.19816E-02  1.30372E+02 -1.00000E+00  1.18860E-01
      21    -1     0     0   502   501  0.000000000E+00  0.000000000E+00  6.570501041E+02  6.570501041E+02  0.000000000E+00  0.00000E+00  9.000E+00
      21    -1     0     0   501   512  0.000000000E+00  0.000000000E+00 -1.404530495E+03  1.404530495E+03  0.000000000E+00  0.00000E+00  9.000E+00
      25     1     1     2     0     0 -6.699836979E+02  2.170129363E+02 -1.038680470E+02  7.227629910E+02  1.250000000E+02  0.00000E+00  9.000E+00
      25     1     1     2     0     0  5.841607224E+02 -3.151516988E+02  6.815779701E+00  6.754522912E+02  1.250000000E+02  0.00000E+00  9.000E+00
      21     1     1     2   502   512  8.582297547E+01  9.813876249E+01 -6.504281232E+02  6.633653166E+02  0.000000000E+00  0.00000E+00  9.000E+00
#rwgt            1           1   2.9041102796459991E-002           5      198936           0
</event>
<event>
      5   9999  3.19816E-02  1.33707E+01 -1.00000E+00  1.82221E-01
      21    -1     0     0   502   501  0.000000000E+00  0.000000000E+00  1.980106049E+02  1.980106049E+02  0.000000000E+00  0.00000E+00  9.000E+00
      21    -1     0     0   511   502  0.000000000E+00  0.000000000E+00 -8.741741943E+02  8.741741943E+02  0.000000000E+00  0.00000E+00  9.000E+00
      25     1     1     2     0     0  3.919702925E+00  7.417696545E+01 -1.367147353E+01  1.460462100E+02  1.250000000E+02  0.00000E+00  9.000E+00
      25     1     1     2     0     0 -8.104915249E+00 -8.687580909E+01  8.767317594E+01  1.758541488E+02  1.250000000E+02  0.00000E+00  9.000E+00
      21     1     1     2   511   501  4.185212324E+00  1.269884364E+01 -7.501652918E+02  7.502844405E+02  1.078959322E-05  0.00000E+00  9.000E+00
#rwgt            1           1   6.2872705117110211E-002           5      199010           0
</event>
<event>
      5   9999  3.59758E-02  5.98272E+01 -1.00000E+00  1.34770E-01
      21    -1     0     0   512   501  0.000000000E+00  0.000000000E+00  7.320686381E+02  7.320686381E+02  0.000000000E+00  0.00000E+00  9.000E+00
      21    -1     0     0   501   502  0.000000000E+00  0.000000000E+00 -2.540658480E+02  2.540658480E+02  0.000000000E+00  0.00000E+00  9.000E+00
      25     1     1     2     0     0 -2.278061093E+01 -1.124929535E+02 -1.915127296E+02  2.558822901E+02  1.250000000E+02  0.00000E+00  9.000E+00
      25     1     1     2     0     0 -3.660006853E+01  1.051971838E+02  2.184164717E+02  2.752031388E+02  1.250000000E+02  0.00000E+00  9.000E+00
      21     1     1     2   512   502  5.938067946E+01  7.295769765E+00  4.510990479E+02  4.550490571E+02  5.394796609E-06  0.00000E+00  9.000E+00
#rwgt            1           1   3.3694646488139496E-002           5      199198           0
</event>
<event>
      5   9999  3.19816E-02  3.72510E+01 -1.00000E+00  1.46784E-01
       1    -1     0     0   502     0  0.000000000E+00  0.000000000E+00  4.808333520E+02  4.808333520E+02  0.000000000E+00  0.00000E+00  9.000E+00
      21    -1     0     0   501   502  0.000000000E+00  0.000000000E+00 -5.910831854E+02  5.910831854E+02  0.000000000E+00  0.00000E+00  9.000E+00
      25     1     1     2     0     0 -1.819016484E+02 -4.129192563E+02 -2.294413455E+02  5.214008563E+02  1.250000000E+02  0.00000E+00  9.000E+00
      25     1     1     2     0     0  2.075285667E+02  3.858841746E+02  3.324338530E+01  4.568422319E+02  1.250000000E+02  0.00000E+00  9.000E+00
       1     1     1     2   501     0 -2.562691828E+01  2.703508164E+01  8.594812676E+01  9.367344913E+01  9.536743164E-07  0.00000E+00  9.000E+00
#rwgt            1           1   3.0381583499612303E-002           5      199298           0
</event>
<event>
      5   9999  3.19816E-02  2.30101E+02 -1.00000E+00  1.09475E-01
      21    -1     0     0   502   501  0.000000000E+00  0.000000000E+00  1.023866279E+02  1.023866279E+02  0.000000000E+00  0.00000E+00  9.000E+00
       2    -1     0     0   501     0  0.000000000E+00  0.000000000E+00 -3.461208988E+03  3.461208988E+03  0.000000000E+00  0.00000E+00  9.000E+00
      25     1     1     2     0     0  7.925231422E+01  3.553272015E+02 -1.691376522E+03  1.734623270E+03  1.250000000E+02  0.00000E+00  9.000E+00
      25     1     1     2     0     0 -2.977741504E+02 -2.832544957E+02 -6.056019709E+02  7.424831992E+02  1.250000000E+02  0.00000E+00  9.000E+00
       2     1     1     2   502     0  2.185218362E+02 -7.207270581E+01 -1.061843867E+03  1.086489146E+03  1.525878906E-05  0.00000E+00  9.000E+00
#rwgt            2          13   5.1679341433115578E-003           5      199578           0
</event>
<event>
      5   9999  3.19816E-02  3.25239E+01 -1.00000E+00  1.50642E-01
      21    -1     0     0   502   511  0.000000000E+00  0.000000000E+00  2.054390408E+02  2.054390408E+02  0.000000000E+00  0.00000E+00  9.000E+00
      21    -1     0     0   501   502  0.000000000E+00  0.000000000E+00 -3.158050853E+02  3.158050853E+02  0.000000000E+00  0.00000E+00  9.000E+00
      25     1     1     2     0     0  1.060005659E+02  1.122528289E+02 -1.376589580E+02  2.416853456E+02  1.250000000E+02  0.00000E+00  9.000E+00
      25     1     1     2     0     0 -8.276931972E+01 -1.350149909E+02 -3.920963809E+01  2.055290826E+02  1.250000000E+02  0.00000E+00  9.000E+00
      21     1     1     2   501   511 -2.323124613E+01  2.276216199E+01  6.650255153E+01  7.402969793E+01  0.000000000E+00  0.00000E+00  9.000E+00
#rwgt            1           1   3.2146230305952719E-002           5      199597           0
</event>
<event>
      5   9999  3.19816E-02  4.23596E+01 -1.00000E+00  1.43313E-01
      21    -1     0     0   502   501  0.000000000E+00  0.000000000E+00  3.184980533E+02  3.184980533E+02  0.000000000E+00  0.00000E+00  9.000E+00
      21    -1     0     0   512   502  0.000000000E+00  0.000000000E+00 -1.297561810E+02  1.297561810E+02  0.000000000E+00  0.00000E+00  9.000E+00
      25     1     1     2     0     0 -9.328504267E+01  4.810489207E+00  4.111657941E+01  1.613716614E+02  1.250000000E+02  0.00000E+00  9.000E+00
      25     1     1     2     0     0  8.684981525E+01  3.705739972E+01  1.762122034E+02  2.357793076E+02  1.250000000E+02  0.00000E+00  9.000E+00
      21     1     1     2   512   501  6.435227421E+00 -4.186788893E+01 -2.858691052E+01  5.110326534E+01  3.371747881E-07  0.00000E+00  9.000E+00
#rwgt            1           1   3.0947109632727409E-002           5      199695           0
</event>
<event>
      5   9999  3.19816E-02  7.34267E+01 -1.00000E+00  1.30178E-01
      21    -1     0     0   502   501  0.000000000E+00  0.000000000E+00  7.053236145E+02  7.053236145E+02  0.000000000E+00  0.00000E+00  9.000E+00
      21    -1     0     0   511   502  0.000000000E+00  0.000000000E+00 -8.254794328E+01  8.254794328E+01  0.000000000E+00  0.00000E+00  9.000E+00
      25     1     1     2     0     0  2.352527140E+01 -8.627218588E+01  7.765670295E+01  1.721972473E+02  1.250000000E+02  0.00000E+00  9.000E+00
      25     1     1     2     0     0  4.624265520E+01  1.091613804E+02  5.015069571E+02  5.302724000E+02  1.250000000E+02  0.00000E+00  9.000E+00
      21     1     1     2   511   501 -6.976792660E+01 -2.288919451E+01  4.361201116E+01  8.540191055E+01  4.768371582E-07  0.00000E+00  9.000E+00
#rwgt            1           1   2.3158131027434005E-002           5      199788           0
</event>
<event>
      5   9999  3.19816E-02  1.79361E+02 -1.00000E+00  1.13398E-01
      21    -1     0     0   502   501  0.000000000E+00  0.000000000E+00  6.164463335E+02  6.164463335E+02  0.000000000E+00  0.00000E+00  9.000E+00
      21    -1     0     0   501   512  0.000000000E+00  0.000000000E+00 -3.406761876E+02  3.406761876E+02  0.000000000E+00  0.00000E+00  9.000E+00
      25     1     1     2     0     0 -1.797206203E+02  1.556431010E+02  4.752612334E+02  5.459143854E+02  1.250000000E+02  0.00000E+00  9.000E+00
      25     1     1     2     0     0  3.955846191E+01 -4.372826219E+01  6.137724307E+00  1.383463208E+02  1.250000000E+02  0.00000E+00  9.000E+00
      21     1     1     2   502   512  1.401621584E+02 -1.119148388E+02 -2.056288118E+02  2.728618149E+02  2.697398305E-06  0.00000E+00  9.000E+00
#rwgt            1           1   3.0283805284771904E-002           5      199876           0
</event>
<event>
      5   9999  3.19816E-02  2.43113E+01 -1.00000E+00  1.59665E-01
      21    -1     0     0   502   511  0.000000000E+00  0.000000000E+00  4.683563383E+02  4.683563383E+02  0.000000000E+00  0.00000E+00  9.000E+00
      21    -1     0     0   501   502  0.000000000E+00  0.000000000E+00 -4.516392590E+02  4.516392590E+02  0.000000000E+00  0.00000E+00  9.000E+00
      25     1     1     2     0     0 -6.362106756E-01  8.268920429E+01  3.013154532E+02  3.365321851E+02  1.250000000E+02  0.00000E+00  9.000E+00
      25     1     1     2     0     0  1.742422636E+01 -6.510502907E+01 -4.213134806E+02  4.446035508E+02  1.250000000E+02  0.00000E+00  9.000E+00
      21     1     1     2   501   511 -1.678801569E+01 -1.758417522E+01  1.367151067E+02  1.388598613E+02  1.907348633E-06  0.00000E+00  9.000E+00
#rwgt            1           1   3.0428648949990020E-002           5      199928           0
</event>
<event>
      5   9999  3.29904E-02  7.48920E+01 -1.00000E+00  1.29752E-01
       1    -1     0     0   502     0  0.000000000E+00  0.000000000E+00  3.902080384E+01  3.902080384E+01  0.000000000E+00  0.00000E+00  9.000E+00
      21    -1     0     0   501   502  0.000000000E+00  0.000000000E+00 -1.212123686E+03  1.212123686E+03  0.000000000E+00  0.00000E+00  9.000E+00
      25     1     1     2     0     0 -6.705251997E+01 -1.983465949E+01 -6.440875952E+02  6.598206456E+02  1.250000000E+02  0.00000E+00  9.000E+00
      25     1     1     2     0     0  1.369619272E+01  7.238861558E+01 -4.808889885E+02  5.023016191E+02  1.250000000E+02  0.00000E+00  9.000E+00
       1     1     1     2   501     0  5.335632725E+01 -5.255395609E+01 -4.812629867E+01  8.902222521E+01  2.611744678E-06  0.00000E+00  9.000E+00
#rwgt            1           1   4.5002164185117974E-002           5      200073           0
</event>
<event>
      5   9999  3.19816E-02  2.52288E+01 -1.00000E+00  1.58455E-01
      21    -1     0     0   502   501  0.000000000E+00  0.000000000E+00  1.512772812E+03  1.512772812E+03  0.000000000E+00  0.00000E+00  9.000E+00
      21    -1     0     0   501   511  0.000000000E+00  0.000000000E+00 -3.622006583E+02  3.622006583E+02  0.000000000E+00  0.00000E+00  9.000E+00
      25     1     1     2     0     0 -6.600938531E+01  7.291376094E+01  1.126436771E+03  1.137610854E+03  1.250000000E+02  0.00000E+00  9.000E+00
      25     1     1     2     0     0  4.664020406E+01 -8.907930309E+01  3.633618598E+02  3.971992850E+02  1.250000000E+02  0.00000E+00  9.000E+00
      21     1     1     2   502   511  1.936918125E+01  1.616554214E+01 -3.392264767E+02  3.401633320E+02  0.000000000E+00  0.00000E+00  9.000E+00
#rwgt            1           1   2.6767315931713269E-002           5      200132           0
</event>
<event>
      5   9999  3.19816E-02  5.68895E+01 -1.00000E+00  1.35951E-01
      21    -1     0     0   502   501  0.000000000E+00  0.000000000E+00  6.876655194E+02  6.876655194E+02  0.000000000E+00  0.00000E+00  9.000E+00
      21    -1     0     0   512   502  0.000000000E+00  0.000000000E+00 -2.473267393E+02  2.473267393E+02  0.000000000E+00  0.00000E+00  9.000E+00
      25     1     1     2     0     0  3.446839435E+01  6.775409864E+01  1.434527434E+01  1.470016156E+02  1.250000000E+02  0.00000E+00  9.000E+00
      25     1     1     2     0     0  2.087125131E+01 -8.094286699E+01  5.928911612E+02  6.116635398E+02  1.250000000E+02  0.00000E+00  9.000E+00
      21     1     1     2   512   501 -5.533964567E+01  1.318876835E+01 -1.668976554E+02  1.763271033E+02  2.697398305E-06  0.00000E+00  9.000E+00
#rwgt            1           1   2.9080401365402932E-002           5      200294           0
</event>
<event>
      5   9999  3.19816E-02  4.66065E+02 -1.00000E+00  9.97269E-02
      21    -1     0     0   502   501  0.000000000E+00  0.000000000E+00  6.486982406E+02  6.486982406E+02  0.000000000E+00  0.00000E+00  9.000E+00
       1    -1     0     0   501     0  0.000000000E+00  0.000000000E+00 -1.224592993E+03  1.224592993E+03  0.000000000E+00  0.00000E+00  9.000E+00
      25     1     1     2     0     0  1.634124913E+02 -9.164032302E+01 -1.470463514E+02  2.689781043E+02  1.250000000E+02  0.00000E+00  9.000E+00
      25     1     1     2     0     0  3.010789290E+02  5.337141374E+01  4.801432287E+02  5.828031824E+02  1.250000000E+02  0.00000E+00  9.000E+00
       1     1     1     2   502     0 -4.644914203E+02  3.826890928E+01 -9.089916296E+02  1.021509947E+03  1.525878906E-05  0.00000E+00  9.000E+00
#rwgt            2          12   9.6917727582270137E-004           5      200635           0
</event>
<event>
      5   9999  3.19816E-02  1.18210E+02 -1.00000E+00  1.20646E-01
      21    -1     0     0   502   501  0.000000000E+00  0.000000000E+00  6.640102065E+02  6.640102065E+02  0.000000000E+00  0.00000E+00  9.000E+00
       2    -1     0     0   501     0  0.000000000E+00  0.000000000E+00 -7.792167166E+02  7.792167166E+02  0.000000000E+00  0.00000E+00  9.000E+00
      25     1     1     2     0     0 -2.273080223E+02  4.116615257E+01  4.776771239E+02  5.451275299E+02  1.250000000E+02  0.00000E+00  9.000E+00
      25     1     1     2     0     0  3.050647889E+02  4.786968838E+01 -4.329254175E+01  3.359393943E+02  1.250000000E+02  0.00000E+00  9.000E+00
       2     1     1     2   502     0 -7.775676653E+01 -8.903584095E+01 -5.495910923E+02  5.621599989E+02  0.000000000E+00  0.00000E+00  9.000E+00
#rwgt            1           1   2.8595929447474838E-002           5      200654           0
</event>
<event>
      5   9999  3.19816E-02  1.45517E+02 -1.00000E+00  1.16918E-01
      21    -1     0     0   502   501  0.000000000E+00  0.000000000E+00  1.743032929E+02  1.743032929E+02  0.000000000E+00  0.00000E+00  9.000E+00
      21    -1     0     0   511   502  0.000000000E+00  0.000000000E+00 -6.681296245E+02  6.681296245E+02  0.000000000E+00  0.00000E+00  9.000E+00
      25     1     1     2     0     0 -5.107886798E+01 -1.867424730E+01  4.200529613E+01  1.426436931E+02  1.250000000E+02  0.00000E+00  9.000E+00
      25     1     1     2     0     0  1.948820163E+02  4.094309215E+01 -1.300141613E+02  2.686708380E+02  1.250000000E+02  0.00000E+00  9.000E+00
      21     1     1     2   511   501 -1.438031483E+02 -2.226884485E+01 -4.058174665E+02  4.311183863E+02  5.394796609E-06  0.00000E+00  9.000E+00
#rwgt            1           1   2.6616937224704262E-002           5      200756           0
</event>
<event>
      5   9999  3.19816E-02  2.69502E+02 -1.00000E+00  1.07127E-01
      21    -1     0     0   502   501  0.000000000E+00  0.000000000E+00  5.386121420E+02  5.386121420E+02  0.000000000E+00  0.00000E+00  9.000E+00
      21    -1     0     0   512   502  0.000000000E+00  0.000000000E+00 -1.260440084E+03  1.260440084E+03  0.000000000E+00  0.00000E+00  9.000E+00
      25     1     1     2     0     0  1.012587091E+02  2.275122939E+02 -1.087425963E+02  2.991072087E+02  1.250000000E+02  0.00000E+00  9.000E+00
      25     1     1     2     0     0 -6.257491646E+00  2.469016119E+01  4.165381777E+02  4.356349546E+02  1.250000000E+02  0.00000E+00  9.000E+00
      21     1     1     2   512   501 -9.500121750E+01 -2.522024551E+02 -1.029623523E+03  1.064310063E+03  0.000000000E+00  0.00000E+00  9.000E+00
#rwgt            2          11   3.6924098512405661E-003           5      200804           0
</event>
<event>
      5   9999  3.19816E-02  6.82884E+01 -1.00000E+00  1.31767E-01
      21    -1     0     0   502   511  0.000000000E+00  0.000000000E+00  3.029973579E+02  3.029973579E+02  0.000000000E+00  0.00000E+00  9.000E+00
      21    -1     0     0   501   502  0.000000000E+00  0.000000000E+00 -2.462826818E+02  2.462826818E+02  0.000000000E+00  0.00000E+00  9.000E+00
      25     1     1     2     0     0 -1.895044569E+02 -1.226319655E+02 -4.228166552E+01  2.614637209E+02  1.250000000E+02  0.00000E+00  9.000E+00
      25     1     1     2     0     0  1.376872287E+02  7.815408563E+01  7.926618768E+01  2.167347747E+02  1.250000000E+02  0.00000E+00  9.000E+00
      21     1     1     2   501   511  5.181722818E+01  4.447787983E+01  1.973015398E+01  7.108154407E+01  1.450243599E-06  0.00000E+00  9.000E+00
#rwgt            1           1   2.5923041199849998E-002           5      200839           0
</event>
<event>
      5   9999  3.19816E-02  4.35286E+01 -1.00000E+00  1.42599E-01
      21    -1     0     0   502   501  0.000000000E+00  0.000000000E+00  3.009092010E+02  3.009092010E+02  0.000000000E+00  0.00000E+00  9.000E+00
      21    -1     0     0   512   502  0.000000000E+00  0.000000000E+00 -2.056048097E+03  2.056048097E+03  0.000000000E+00  0.00000E+00  9.000E+00
      25     1     1     2     0     0  6.266578874E+02  2.336604203E+02 -3.277541207E+02  7.552119328E+02  1.250000000E+02  0.00000E+00  9.000E+00
      25     1     1     2     0     0 -6.067604347E+02 -2.723751577E+02 -1.277599847E+03  1.445763750E+03  1.250000000E+02  0.00000E+00  9.000E+00
      21     1     1     2   512   501 -1.989745268E+01  3.871473745E+01 -1.497849283E+02  1.559816151E+02  0.000000000E+00  0.00000E+00  9.000E+00
#rwgt            1           1   1.7224468833401976E-002           5      200933           0
</event>
<event>
      5   9999  3.19816E-02  7.46968E+01 -1.00000E+00  1.29808E-01
      21    -1     0     0   511   501  0.000000000E+00  0.000000000E+00  7.723719176E+01  7.723719176E+01  0.000000000E+00  0.00000E+00  9.000E+00
      21    -1     0     0   501   502  0.000000000E+00  0.000000000E+00 -7.654886103E+02  7.654886103E+02  0.000000000E+00  0.00000E+00  9.000E+00
      25     1     1     2     0     0 -1.342400347E+02 -3.587340561E+01 -4.111396584E+02  4.516282840E+02  1.250000000E+02  0.00000E+00  9.000E+00
      25     1     1     2     0     0  1.492400086E+02 -3.730183467E+01 -2.258926761E+02  3.005270506E+02  1.250000000E+02  0.00000E+00  9.000E+00
      21     1     1     2   511   502 -1.499997387E+01  7.317524028E+01 -5.121908397E+01  9.057046742E+01  1.168007728E-06  0.00000E+00  9.000E+00
#rwgt            1           1   2.4341197518338291E-002           5      201109           0
</event>
<event>
      5   9999  3.19816E-02  7.03709E+01 -1.00000E+00  1.31105E-01
      21    -1     0     0   502   512  0.000000000E+00  0.000000000E+00  1.241883387E+03  1.241883387E+03  0.000000000E+00  0.00000E+00  9.000E+00
      21    -1     0     0   501   502  0.000000000E+00  0.000000000E+00 -1.173077715E+03  1.173077715E+03  0.000000000E+00  0.00000E+00  9.000E+00
      25     1     1     2     0     0 -5.686672337E+02  2.243451809E+00  4.340720005E+02  7.262444199E+02  1.250000000E+02  0.00000E+00  9.000E+00
      25     1     1     2     0     0  5.280812062E+02 -5.973115479E+01 -9.521836669E+02  1.097595694E+03  1.250000000E+02  0.00000E+00  9.000E+00
      21     1     1     2   501   512  4.058602749E+01  5.748770298E+01  5.869173385E+02  5.911209892E+02  7.629394531E-06  0.00000E+00  9.000E+00
#rwgt            1           1   2.8396257594637521E-002           5      201177           0
</event>
<event>
      5   9999  3.19816E-02  2.32774E+01 -1.00000E+00  1.61109E-01
      21    -1     0     0   502   501  0.000000000E+00  0.000000000E+00  1.160887865E+02  1.160887865E+02  0.000000000E+00  0.00000E+00  9.000E+00
      21    -1     0     0   501   511  0.000000000E+00  0.000000000E+00 -1.063932262E+03  1.063932262E+03  0.000000000E+00  0.00000E+00  9.000E+00
      25     1     1     2     0     0 -2.729844271E+02 -1.555447203E+01 -6.948750544E+02  7.571253399E+02  1.250000000E+02  0.00000E+00  9.000E+00
      25     1     1     2     0     0  2.860734549E+02 -3.694331993E+00 -2.176228412E+02  3.805737388E+02  1.250000000E+02  0.00000E+00  9.000E+00
      21     1     1     2   502   511 -1.308902772E+01  1.924880403E+01 -3.534557976E+01  4.232196961E+01  0.000000000E+00  0.00000E+00  9.000E+00
#rwgt            1           1   3.2550388872602962E-002           5      201333           0
</event>
<event>
      5   9999  3.19816E-02  3.84373E+01 -1.00000E+00  1.45922E-01
       2    -1     0     0   502     0  0.000000000E+00  0.000000000E+00  1.038716603E+03  1.038716603E+03  0.000000000E+00  0.00000E+00  9.000E+00
      21    -1     0     0   501   502  0.000000000E+00  0.000000000E+00 -7.959526747E+01  7.959526747E+01  0.000000000E+00  0.00000E+00  9.000E+00
      25     1     1     2     0     0  2.350426554E+01 -7.886094544E+01  4.330698482E+02  4.581986388E+02  1.250000000E+02  0.00000E+00  9.000E+00
      25     1     1     2     0     0 -8.316485784E+00  4.355148343E+01 -2.875248831E-02  1.326306770E+02  1.250000000E+02  0.00000E+00  9.000E+00
       2     1     1     2   501     0 -1.518777975E+01  3.530946200E+01  5.260802394E+02  5.274825542E+02  1.078959322E-05  0.00000E+00  9.000E+00
#rwgt            1           1   2.6911394780175173E-002           5      201451           0
</event>
<event>
      5   9999  3.19816E-02  3.38973E+01 -1.00000E+00  1.49445E-01
      21    -1     0     0   511   501  0.000000000E+00  0.000000000E+00  1.265839759E+02  1.265839759E+02  0.000000000E+00  0.00000E+00  9.000E+00
      21    -1     0     0   501   502  0.000000000E+00  0.000000000E+00 -9.137137428E+02  9.137137428E+02  0.000000000E+00  0.00000E+00  9.000E+00
      25     1     1     2     0     0  1.058269569E+02  8.594852811E+01 -2.071878665E+00  1.849750982E+02  1.250000000E+02  0.00000E+00  9.000E+00
      25     1     1     2     0     0 -8.889756320E+01 -1.153155077E+02 -7.966972377E+02  8.194827220E+02  1.250000000E+02  0.00000E+00  9.000E+00
      21     1     1     2   511   502 -1.692939369E+01  2.936697960E+01  1.163934960E+01  3.583989844E+01  3.371747881E-07  0.00000E+00  9.000E+00
#rwgt            1           1   2.8301201872383691E-002           5      201591           0
</event>
<event>
      5   9999  3.19816E-02  2.27078E+02 -1.00000E+00  1.09677E-01
      21    -1     0     0   502   501  0.000000000E+00  0.000000000E+00  3.650884700E+02  3.650884700E+02  0.000000000E+00  0.00000E+00  9.000E+00
      21    -1     0     0   501   512  0.000000000E+00  0.000000000E+00 -1.159339293E+03  1.159339293E+03  0.000000000E+00  0.00000E+00  9.000E+00
      25     1     1     2     0     0 -3.418363265E+02 -2.604565867E+02 -4.019908222E+02  6.015906655E+02  1.250000000E+02  0.00000E+00  9.000E+00
      25     1     1     2     0     0  5.317839473E+02  1.360198702E+02 -1.335034764E+02  5.785704364E+02  1.250000000E+02  0.00000E+00  9.000E+00
      21     1     1     2   502   512 -1.899476208E+02  1.244367165E+02 -2.587565248E+02  3.442666615E+02  6.607249480E-06  0.00000E+00  9.000E+00
#rwgt            2          11   3.9939457607674677E-003           5      201946           0
</event>
<event>
      5   9999  3.19816E-02  6.45478E+01 -1.00000E+00  1.33029E-01
      21    -1     0     0   511   501  0.000000000E+00  0.000000000E+00  1.710914945E+03  1.710914945E+03  0.000000000E+00  0.00000E+00  9.000E+00
      21    -1     0     0   501   502  0.000000000E+00  0.000000000E+00 -2.127716872E+02  2.127716872E+02  0.000000000E+00  0.00000E+00  9.000E+00
      25     1     1     2     0     0  2.671183714E+02 -4.190966133E+02  4.499207125E+02  6.819441642E+02  1.250000000E+02  0.00000E+00  9.000E+00
      25     1     1     2     0     0 -2.025739991E+02  4.197587056E+02  5.192937625E+02  7.088897007E+02  1.250000000E+02  0.00000E+00  9.000E+00
      21     1     1     2   511   502 -6.454437226E+01 -6.620923117E-01  5.289287826E+02  5.328527671E+02  7.629394531E-06  0.00000E+00  9.000E+00
#rwgt            1           1   3.0030411911575166E-002           5      201966           0
</event>
<event>
      5   9999  3.19816E-02  7.70230E+01 -1.00000E+00  1.29152E-01
      21    -1     0     0   502   512  0.000000000E+00  0.000000000E+00  5.998320347E+02  5.998320347E+02  0.000000000E+00  0.00000E+00  9.000E+00
      21    -1     0     0   501   502  0.000000000E+00  0.000000000E+00 -8.292149232E+01  8.292149232E+01  0.000000000E+00  0.00000E+00  9.000E+00
      25     1     1     2     0     0  6.008117091E+01  8.422721554E+01  3.725166906E+02  4.063221083E+02  1.250000000E+02  0.00000E+00  9.000E+00
      25     1     1     2     0     0  1.586155493E+01 -7.137235059E+01  4.697212831E+01  1.522398837E+02  1.250000000E+02  0.00000E+00  9.000E+00
      21     1     1     2   501   512 -7.594272584E+01 -1.285486495E+01  9.742172347E+01  1.241915350E+02  1.348699152E-06  0.00000E+00  9.000E+00
#rwgt            1           1   2.5139848148984054E-002           5      202090           0
</event>
<event>
      5   9999  3.19816E-02  3.99720E+01 -1.00000E+00  1.44859E-01
      21    -1     0     0   502   501  0.000000000E+00  0.000000000E+00  1.939444780E+02  1.939444780E+02  0.000000000E+00  0.00000E+00  9.000E+00
      21    -1     0     0   501   511  0.000000000E+00  0.000000000E+00 -3.872507020E+02  3.872507020E+02  0.000000000E+00  0.00000E+00  9.000E+00
      25     1     1     2     0     0 -3.347521989E+00  2.232876190E+02 -4.236751321E+01  2.594004103E+02  1.250000000E+02  0.00000E+00  9.000E+00
      25     1     1     2     0     0  3.928620240E+01 -2.057898263E+02 -1.247546415E+02  2.740101802E+02  1.250000000E+02  0.00000E+00  9.000E+00
      21     1     1     2   502   511 -3.593868041E+01 -1.749779272E+01 -2.618406932E+01  4.778458942E+01  3.371747881E-07  0.00000E+00  9.000E+00
#rwgt            1           1   3.0961609746683130E-002           5      202174           0
</event>
<event>
      5   9999  3.19816E-02  6.10472E+01 -1.00000E+00  1.34303E-01
      21    -1     0     0   502   501  0.000000000E+00  0.000000000E+00  1.174297777E+03  1.174297777E+03  0.000000000E+00  0.00000E+00  9.000E+00
      21    -1     0     0   512   502  0.000000000E+00  0.000000000E+00 -3.133541323E+02  3.133541323E+02  0.000000000E+00  0.00000E+00  9.000E+00
      25     1     1     2     0     0  2.462274046E+02 -1.349606812E+02  3.306871197E+02  4.514657145E+02  1.250000000E+02  0.00000E+00  9.000E+00
      25     1     1     2     0     0 -2.477770759E+02  7.393310707E+01  7.526402416E+02  8.055755191E+02  1.250000000E+02  0.00000E+00  9.000E+00
      21     1     1     2   512   501  1.549671344E+00  6.102757415E+01 -2.223837167E+02  2.306106757E+02  2.697398305E-06  0.00000E+00  9.000E+00
#rwgt            1           1   2.7895348728738233E-002           5      202238           0
</event>
<event>
      5   9999  3.19816E-02  5.30662E+01 -1.00000E+00  1.37617E-01
      21    -1     0     0   502   501  0.000000000E+00  0.000000000E+00  1.662680926E+02  1.662680926E+02  0.000000000E+00  0.00000E+00  9.000E+00
      21    -1     0     0   511   502  0.000000000E+00  0.000000000E+00 -9.629867295E+02  9.629867295E+02  0.000000000E+00  0.00000E+00  9.000E+00
      25     1     1     2     0     0  7.056838671E+01 -2.670670017E+02 -5.881377971E+02  6.616915815E+02  1.250000000E+02  0.00000E+00  9.000E+00
      25     1     1     2     0     0 -8.935714276E+01  3.166956441E+02 -1.353527523E+02  3.771288871E+02  1.250000000E+02  0.00000E+00  9.000E+00
      21     1     1     2   511   501  1.878875605E+01 -4.962864239E+01 -7.322808749E+01  9.043435352E+01  9.536743164E-07  0.00000E+00  9.000E+00
#rwgt            1           1   2.7282596297618655E-002           5      202320           0
</event>
<event>
      5   9999  3.19816E-02  4.29805E+02 -1.00000E+00  1.00755E-01
      21    -1     0     0   502   501  0.000000000E+00  0.000000000E+00  1.038767610E+03  1.038767610E+03  0.000000000E+00  0.00000E+00  9.000E+00
       1    -1     0     0   501     0  0.000000000E+00  0.000000000E+00 -6.325307923E+02  6.325307923E+02  0.000000000E+00  0.00000E+00  9.000E+00
      25     1     1     2     0     0  2.613604121E+02  1.949825591E+02  3.127471629E+01  3.506145622E+02  1.250000000E+02  0.00000E+00  9.000E+00
      25     1     1     2     0     0 -6.175922277E+02 -4.354629929E+02  2.488500285E+01  7.663500775E+02  1.250000000E+02  0.00000E+00  9.000E+00
       1     1     1     2   502     0  3.562318156E+02  2.404804338E+02  3.500770987E+02  5.543337628E+02  6.607249480E-06  0.00000E+00  9.000E+00
#rwgt            1           1   2.3740506185247277E-002           5      202415           0
</event>
<event>
      5   9999  3.19816E-02  1.25280E+02 -1.00000E+00  1.19580E-01
      21    -1     0     0   502   501  0.000000000E+00  0.000000000E+00  3.507043050E+02  3.507043050E+02  0.000000000E+00  0.00000E+00  9.000E+00
      21    -1     0     0   501   511  0.000000000E+00  0.000000000E+00 -7.595115199E+02  7.595115199E+02  0.000000000E+00  0.00000E+00  9.000E+00
      25     1     1     2     0     0  2.077831971E+02 -1.815473712E+02  1.745543838E+02  3.496105517E+02  1.250000000E+02  0.00000E+00  9.000E+00
      25     1     1     2     0     0 -1.919385849E+02  5.727287890E+01 -9.178912084E+01  2.533196513E+02  1.250000000E+02  0.00000E+00  9.000E+00
      21     1     1     2   502   511 -1.584461222E+01  1.242744923E+02 -4.915724779E+02  5.072856219E+02  5.394796609E-06  0.00000E+00  9.000E+00
#rwgt            1           1   2.7576749414832673E-002           5      202442           0
</event>
<event>
      5   9999  3.19816E-02  1.65066E+01 -1.00000E+00  1.73555E-01
      21    -1     0     0   502   501  0.000000000E+00  0.000000000E+00  5.497319629E+02  5.497319629E+02  0.000000000E+00  0.00000E+00  9.000E+00
      21    -1     0     0   512   502  0.000000000E+00  0.000000000E+00 -1.126043663E+03  1.126043663E+03  0.000000000E+00  0.00000E+00  9.000E+00
      25     1     1     2     0     0  6.271809050E+02 -7.869049938E+01  1.871593075E+02  6.709707062E+02  1.250000000E+02  0.00000E+00  9.000E+00
      25     1     1     2     0     0 -6.197100490E+02  6.397127659E+01 -7.324075803E+02  9.696281414E+02  1.250000000E+02  0.00000E+00  9.000E+00
      21     1     1     2   512   501 -7.470855994E+00  1.471922278E+01 -3.106342738E+01  3.517677826E+01  3.371747881E-07  0.00000E+00  9.000E+00
#rwgt            1           1   3.6200657367932654E-002           5      202542           0
</event>
<event>
      5   9999  3.19816E-02  2.36408E+01 -1.00000E+00  1.60591E-01
      21    -1     0     0   502   501  0.000000000E+00  0.000000000E+00  2.844431143E+02  2.844431143E+02  0.000000000E+00  0.00000E+00  9.000E+00
      21    -1     0     0   501   511  0.000000000E+00  0.000000000E+00 -3.000912705E+02  3.000912705E+02  0.000000000E+00  0.00000E+00  9.000E+00
      25     1     1     2     0     0  1.132610450E+02 -1.601673195E+02  1.395328995E+02  2.712490822E+02  1.250000000E+02  0.00000E+00  9.000E+00
      25     1     1     2     0     0 -9.272033037E+01  1.718704937E+02 -9.859112954E+01  2.519558237E+02  1.250000000E+02  0.00000E+00  9.000E+00
      21     1     1     2   502   511 -2.054071464E+01 -1.170317415E+01 -5.658992619E+01  6.132947896E+01  6.743495762E-07  0.00000E+00  9.000E+00
#rwgt            1           1   2.5993561787789006E-002           5      202824           0
</event>
<event>
      5   9999  3.19816E-02  9.80383E+01 -1.00000E+00  1.24216E-01
      21    -1     0     0   502   501  0.000000000E+00  0.000000000E+00  4.206383096E+02  4.206383096E+02  0.000000000E+00  0.00000E+00  9.000E+00
      -4    -1     0     0     0   502  0.000000000E+00  0.000000000E+00 -9.252894646E+02  9.252894646E+02  0.000000000E+00  0.00000E+00  9.000E+00
      25     1     1     2     0     0  5.496542362E+02 -1.222981179E+01 -2.194030674E+02  6.050058295E+02  1.250000000E+02  0.00000E+00  9.000E+00
      25     1     1     2     0     0 -5.125280080E+02  1.029665318E+02 -1.230711945E+02  5.514150747E+02  1.250000000E+02  0.00000E+00  9.000E+00
      -4     1     1     2     0   501 -3.712622823E+01 -9.073671999E+01 -1.621768930E+02  1.895068701E+02  2.697398305E-06  0.00000E+00  9.000E+00
#rwgt            1           1   2.3584165494266163E-002           5      202978           0
</event>
<event>
      5   9999  3.19816E-02  2.99450E+01 -1.00000E+00  1.53095E-01
      21    -1     0     0   502   501  0.000000000E+00  0.000000000E+00  2.944829644E+02  2.944829644E+02  0.000000000E+00  0.00000E+00  9.000E+00
      21    -1     0     0   511   502  0.000000000E+00  0.000000000E+00 -3.650941971E+02  3.650941971E+02  0.000000000E+00  0.00000E+00  9.000E+00
      25     1     1     2     0     0  5.762647482E+01  1.466604293E+02 -1.759573035E+02  2.672378431E+02  1.250000000E+02  0.00000E+00  9.000E+00
      25     1     1     2     0     0 -6.642561463E+01 -1.180374095E+02  2.123752529E+02  2.812000007E+02  1.250000000E+02  0.00000E+00  9.000E+00
      21     1     1     2   511   501  8.799139815E+00 -2.862301976E+01 -1.070291821E+02  1.111393177E+02  1.348699152E-06  0.00000E+00  9.000E+00
#rwgt            1           1   2.8790767320594185E-002           5      203068           0
</event>
<event>
      5   9999  3.19816E-02  1.03777E+01 -1.00000E+00  1.93914E-01
      21    -1     0     0   502   501  0.000000000E+00  0.000000000E+00  5.333380837E+01  5.333380837E+01  0.000000000E+00  0.00000E+00  9.000E+00
      -2    -1     0     0     0   502  0.000000000E+00  0.000000000E+00 -1.711218674E+03  1.711218674E+03  0.000000000E+00  0.00000E+00  9.000E+00
      25     1     1     2     0     0 -1.156283127E+02  3.654298961E-01 -6.506702358E+02  6.725821853E+02  1.250000000E+02  0.00000E+00  9.000E+00
      25     1     1     2     0     0  1.205686582E+02 -9.491757948E+00 -1.362486742E+02  2.209425175E+02  1.250000000E+02  0.00000E+00  9.000E+00
      -2     1     1     2     0   501 -4.940345558E+00  9.126328052E+00 -8.709659559E+02  8.710277799E+02  0.000000000E+00  0.00000E+00  9.000E+00
#rwgt            1           1   2.9078541759981182E-002           5      203180           0
</event>
<event>
      5   9999  3.19816E-02  1.13198E+01 -1.00000E+00  1.89733E-01
      21    -1     0     0   511   501  0.000000000E+00  0.000000000E+00  2.693301427E+02  2.693301427E+02  0.000000000E+00  0.00000E+00  9.000E+00
      21    -1     0     0   501   502  0.000000000E+00  0.000000000E+00 -3.934819104E+02  3.934819104E+02  0.000000000E+00  0.00000E+00  9.000E+00
      25     1     1     2     0     0  8.898856905E+01  1.611055572E+02 -2.862053225E+02  3.625085552E+02  1.250000000E+02  0.00000E+00  9.000E+00
      25     1     1     2     0     0 -9.527389063E+01 -1.516910611E+02  1.054022409E+02  2.425323167E+02  1.250000000E+02  0.00000E+00  9.000E+00
      21     1     1     2   511   502  6.285321589E+00 -9.414496102E+00  5.665131396E+01  5.777118120E+01  0.000000000E+00  0.00000E+00  9.000E+00
#rwgt            1           1   2.8505912352565204E-002           5      203367           0
</event>
<event>
      5   9999  3.19816E-02  6.14750E+01 -1.00000E+00  1.34142E-01
      21    -1     0     0   502   512  0.000000000E+00  0.000000000E+00  7.219063950E+01  7.219063950E+01  0.000000000E+00  0.00000E+00  9.000E+00
      21    -1     0     0   501   502  0.000000000E+00  0.000000000E+00 -1.509956136E+03  1.509956136E+03  0.000000000E+00  0.00000E+00  9.000E+00
      25     1     1     2     0     0 -3.068523115E+01 -6.688379686E-01 -1.180540803E+03  1.187536787E+03  1.250000000E+02  0.00000E+00  9.000E+00
      25     1     1     2     0     0  8.271921616E+01  3.340484417E+01 -2.876057637E+02  3.260374636E+02  1.250000000E+02  0.00000E+00  9.000E+00
      21     1     1     2   501   512 -5.203398501E+01 -3.273600620E+01  3.038107110E+01  6.857252496E+01  1.118282261E-06  0.00000E+00  9.000E+00
#rwgt            1           1   2.7814924836633930E-002           5      203577           0
</event>
<event>
      5   9999  3.19816E-02  8.63538E+01 -1.00000E+00  1.26763E-01
      21    -1     0     0   511   501  0.000000000E+00  0.000000000E+00  1.088576061E+03  1.088576061E+03  0.000000000E+00  0.00000E+00  9.000E+00
      21    -1     0     0   501   502  0.000000000E+00  0.000000000E+00 -3.367739419E+02  3.367739419E+02  0.000000000E+00  0.00000E+00  9.000E+00
      25     1     1     2     0     0 -3.472107550E+02  5.153600586E+01 -1.682953012E+02  4.088515338E+02  1.250000000E+02  0.00000E+00  9.000E+00
      25     1     1     2     0     0  2.647607440E+02 -7.720656448E+01  4.764514825E+02  5.645264567E+02  1.250000000E+02  0.00000E+00  9.000E+00
      21     1     1     2   511   502  8.245001095E+01  2.567055862E+01  4.436459382E+02  4.519720128E+02  0.000000000E+00  0.00000E+00  9.000E+00
#rwgt            1           1   2.9039811943941816E-002           5      203667           0
</event>
<event>
      5   9999  3.19816E-02  8.85838E+01 -1.00000E+00  1.26243E-01
      21    -1     0     0   502   512  0.000000000E+00  0.000000000E+00  1.454065057E+03  1.454065057E+03  0.000000000E+00  0.00000E+00  9.000E+00
      21    -1     0     0   501   502  0.000000000E+00  0.000000000E+00 -1.767353913E+02  1.767353913E+02  0.000000000E+00  0.00000E+00  9.000E+00
      25     1     1     2     0     0  2.181411194E+02 -3.868032686E+02  3.491872889E+02  5.785836840E+02  1.250000000E+02  0.00000E+00  9.000E+00
      25     1     1     2     0     0 -2.298830658E+02  2.990010797E+02  6.660768681E+02  7.755844659E+02  1.250000000E+02  0.00000E+00  9.000E+00
      21     1     1     2   501   512  1.174194634E+01  8.780218893E+01  2.620655088E+02  2.766322985E+02  5.394796609E-06  0.00000E+00  9.000E+00
#rwgt            1           1   2.8749210883026614E-002           5      203776           0
</event>
<event>
      5   9999  3.19816E-02  1.05356E+02 -1.00000E+00  1.22817E-01
      21    -1     0     0   502   511  0.000000000E+00  0.000000000E+00  3.447966382E+02  3.447966382E+02  0.000000000E+00  0.00000E+00  9.000E+00
      21    -1     0     0   501   502  0.000000000E+00  0.000000000E+00 -1.128580300E+03  1.128580300E+03  0.000000000E+00  0.00000E+00  9.000E+00
      25     1     1     2     0     0 -1.301633901E+02  6.349524992E+01 -1.064756276E+03  1.081806397E+03  1.250000000E+02  0.00000E+00  9.000E+00
      25     1     1     2     0     0  3.188994952E+01 -1.014723716E+02  1.409995443E+02  2.163781009E+02  1.250000000E+02  0.00000E+00  9.000E+00
      21     1     1     2   501   511  9.827344057E+01  3.797712166E+01  1.399730694E+02  1.751924401E+02  2.697398305E-06  0.00000E+00  9.000E+00
#rwgt            1           1   3.0802231180831738E-002           5      203858           0
</event>
<event>
      5   9999  3.19816E-02  1.54011E+02 -1.00000E+00  1.15941E-01
       3    -1     0     0   502     0  0.000000000E+00  0.000000000E+00  6.619768541E+02  6.619768541E+02  0.000000000E+00  0.00000E+00  9.000E+00
      21    -1     0     0   501   502  0.000000000E+00  0.000000000E+00 -3.719018051E+02  3.719018051E+02  0.000000000E+00  0.00000E+00  9.000E+00
      25     1     1     2     0     0  2.139690798E+02 -1.999846092E+02 -1.427704574E+02  3.489770974E+02  1.250000000E+02  0.00000E+00  9.000E+00
      25     1     1     2     0     0 -1.236533696E+02  7.523515621E+01 -3.316457366E+01  1.941014515E+02  1.250000000E+02  0.00000E+00  9.000E+00
       3     1     1     2   501     0 -9.031571019E+01  1.247494530E+02  4.660100801E+02  4.908001103E+02  7.629394531E-06  0.00000E+00  9.000E+00
#rwgt            1           1   2.8288298741570576E-002           5      203967           0
</event>
<event>
      5   9999  3.19816E-02  1.36652E+02 -1.00000E+00  1.18021E-01
      21    -1     0     0   502   501  0.000000000E+00  0.000000000E+00  3.838639166E+02  3.838639166E+02  0.000000000E+00  0.00000E+00  9.000E+00
      21    -1     0     0   511   502  0.000000000E+00  0.000000000E+00 -6.672216345E+02  6.672216345E+02  0.000000000E+00  0.00000E+00  9.000E+00
      25     1     1     2     0     0  3.378044195E+02  1.504122729E+02 -3.112175614E+02  4.992164343E+02  1.250000000E+02  0.00000E+00  9.000E+00
      25     1     1     2     0     0 -2.719367566E+02 -2.701425970E+02  6.926090116E+01  4.090827480E+02  1.250000000E+02  0.00000E+00  9.000E+00
      21     1     1     2   511   501 -6.586766295E+01  1.197303241E+02 -4.140105770E+01  1.427863688E+02  2.900487199E-06  0.00000E+00  9.000E+00
#rwgt            1           1   2.9558488200401498E-002           5      204017           0
</event>
<event>
      5   9999  3.19816E-02  1.94813E+02 -1.00000E+00  1.12065E-01
      21    -1     0     0   502   501  0.000000000E+00  0.000000000E+00  3.497126176E+02  3.497126176E+02  0.000000000E+00  0.00000E+00  9.000E+00
      -2    -1     0     0     0   502  0.000000000E+00  0.000000000E+00 -4.589323904E+02  4.589323904E+02  0.000000000E+00  0.00000E+00  9.000E+00
      25     1     1     2     0     0  6.570297777E+01 -4.308810548E+01  1.789092841E+02  2.319633550E+02  1.250000000E+02  0.00000E+00  9.000E+00
      25     1     1     2     0     0 -2.276901445E+02  1.513108430E+02 -1.381760843E+02  3.308404500E+02  1.250000000E+02  0.00000E+00  9.000E+00
      -2     1     1     2     0   501  1.619871668E+02 -1.082227375E+02 -1.499529726E+02  2.458412030E+02  3.303624740E-06  0.00000E+00  9.000E+00
#rwgt            1           1   2.6462527684968994E-002           5      204088           0
</event>
<event>
      5   9999  3.19816E-02  5.15696E+01 -1.00000E+00  1.38314E-01
      21    -1     0     0   511   501  0.000000000E+00  0.000000000E+00  2.304392012E+02  2.304392012E+02  0.000000000E+00  0.00000E+00  9.000E+00
      21    -1     0     0   501   502  0.000000000E+00  0.000000000E+00 -1.059433828E+03  1.059433828E+03  0.000000000E+00  0.00000E+00  9.000E+00
      25     1     1     2     0     0  1.070113366E+02  3.866675660E+02 -3.372094403E+02  5.387935035E+02  1.250000000E+02  0.00000E+00  9.000E+00
      25     1     1     2     0     0 -8.156328629E+01 -4.315208665E+02 -5.202261471E+02  6.921871655E+02  1.250000000E+02  0.00000E+00  9.000E+00
      21     1     1     2   511   502 -2.544805031E+01  4.485330055E+01  2.844096078E+01  5.889236016E+01  8.920806376E-07  0.00000E+00  9.000E+00
#rwgt            1           1   2.7134845721976299E-002           5      204143           0
</event>
<event>
      5   9999  3.19816E-02  3.67831E+01 -1.00000E+00  1.47135E-01
       2    -1     0     0   502     0  0.000000000E+00  0.000000000E+00  1.667743238E+03  1.667743238E+03  0.000000000E+00  0.00000E+00  9.000E+00
      21    -1     0     0   501   502  0.000000000E+00  0.000000000E+00 -5.875706988E+02  5.875706988E+02  0.000000000E+00  0.00000E+00  9.000E+00
      25     1     1     2     0     0 -6.488817523E+01 -9.708915408E+01  6.028153545E+02  6.266164144E+02  1.250000000E+02  0.00000E+00  9.000E+00
      25     1     1     2     0     0  1.003112314E+02  1.069988500E+02 -5.592074779E+02  5.914804311E+02  1.250000000E+02  0.00000E+00  9.000E+00
       2     1     1     2   501     0 -3.542305618E+01 -9.909695879E+00  1.036564663E+03  1.037217092E+03  0.000000000E+00  0.00000E+00  9.000E+00
#rwgt            1           1   3.1506063219723428E-002           5      204273           0
</event>
<event>
      5   9999  3.19816E-02  1.28459E+02 -1.00000E+00  1.19126E-01
      21    -1     0     0   502   501  0.000000000E+00  0.000000000E+00  4.127265805E+02  4.127265805E+02  0.000000000E+00  0.00000E+00  9.000E+00
       3    -1     0     0   501     0  0.000000000E+00  0.000000000E+00 -5.777986092E+02  5.777986092E+02  0.000000000E+00  0.00000E+00  9.000E+00
      25     1     1     2     0     0 -3.103573495E+02  8.562850992E+01  1.903471833E+02  3.943488003E+02  1.250000000E+02  0.00000E+00  9.000E+00
      25     1     1     2     0     0  2.566003080E+02 -2.022989621E+02 -2.498844239E+02  4.299253580E+02  1.250000000E+02  0.00000E+00  9.000E+00
       3     1     1     2   502     0  5.375704148E+01  1.166704522E+02 -1.055347881E+02  1.662510313E+02  2.336015456E-06  0.00000E+00  9.000E+00
#rwgt            1           1   2.9106052979520926E-002           5      204452           0
</event>
<event>
      5   9999  3.19816E-02  1.97607E+02 -1.00000E+00  1.11839E-01
      21    -1     0     0   502   501  0.000000000E+00  0.000000000E+00  2.043177172E+02  2.043177172E+02  0.000000000E+00  0.00000E+00  9.000E+00
      21    -1     0     0   501   511  0.000000000E+00  0.000000000E+00 -1.086743954E+03  1.086743954E+03  0.000000000E+00  0.00000E+00  9.000E+00
      25     1     1     2     0     0 -2.181981663E+01 -3.291733729E+02 -1.826797647E+02  3.972758616E+02  1.250000000E+02  0.00000E+00  9.000E+00
      25     1     1     2     0     0 -1.308826486E+02  2.037517753E+02 -1.532472899E+02  3.126576170E+02  1.250000000E+02  0.00000E+00  9.000E+00
      21     1     1     2   502   511  1.527024652E+02  1.254215976E+02 -5.464991827E+02  5.811281930E+02  7.629394531E-06  0.00000E+00  9.000E+00
#rwgt            2          11   2.4342182515460992E-003           5      204638           0
</event>
<event>
      5   9999  3.19816E-02  6.36495E+01 -1.00000E+00  1.33347E-01
      21    -1     0     0   502   512  0.000000000E+00  0.000000000E+00  3.902827279E+02  3.902827279E+02  0.000000000E+00  0.00000E+00  9.000E+00
      21    -1     0     0   501   502  0.000000000E+00  0.000000000E+00 -7.981303764E+02  7.981303764E+02  0.000000000E+00  0.00000E+00  9.000E+00
      25     1     1     2     0     0 -1.258390650E+02 -3.827514953E+01  2.986818648E+02  3.494800620E+02  1.250000000E+02  0.00000E+00  9.000E+00
      25     1     1     2     0     0  1.395176970E+02 -2.388712377E+01 -7.422841915E+02  7.659285890E+02  1.250000000E+02  0.00000E+00  9.000E+00
      21     1     1     2   501   512 -1.367863204E+01  6.216227331E+01  3.575467819E+01  7.300445335E+01  1.348699152E-06  0.00000E+00  9.000E+00
#rwgt            1           1   2.8807943016135304E-002           5      204658           0
</event>
<event>
      5   9999  3.19816E-02  6.03382E+01 -1.00000E+00  1.34573E-01
      21    -1     0     0   502   501  0.000000000E+00  0.000000000E+00  1.261652944E+03  1.261652944E+03  0.000000000E+00  0.00000E+00  9.000E+00
       1    -1     0     0   501     0  0.000000000E+00  0.000000000E+00 -3.087565497E+02  3.087565497E+02  0.000000000E+00  0.00000E+00  9.000E+00
      25     1     1     2     0     0  5.040516014E+02 -3.234835866E+00  4.339909755E+02  6.767951299E+02  1.250000000E+02  0.00000E+00  9.000E+00
      25     1     1     2     0     0 -4.781503531E+02  5.773093107E+01  6.082236660E+02  7.858254567E+02  1.250000000E+02  0.00000E+00  9.000E+00
       1     1     1     2   502     0 -2.590124839E+01 -5.449609521E+01 -8.931824754E+01  1.077889067E+02  2.132480600E-06  0.00000E+00  9.000E+00
#rwgt            1           1   2.9656722699165822E-002           5      204774           0
</event>
<event>
      5   9999  3.19816E-02  7.46011E+01 -1.00000E+00  1.29836E-01
      21    -1     0     0   502   501  0.000000000E+00  0.000000000E+00  1.454675609E+03  1.454675609E+03  0.000000000E+00  0.00000E+00  9.000E+00
      21    -1     0     0   511   502  0.000000000E+00  0.000000000E+00 -2.060364457E+02  2.060364457E+02  0.000000000E+00  0.00000E+00  9.000E+00
      25     1     1     2     0     0 -3.913228876E+02 -9.108127252E+00  6.328621172E+02  7.545568366E+02  1.250000000E+02  0.00000E+00  9.000E+00
      25     1     1     2     0     0  3.580663506E+02 -5.767001148E+01  6.971714873E+02  7.957452006E+02  1.250000000E+02  0.00000E+00  9.000E+00
      21     1     1     2   511   501  3.325653705E+01  6.677813873E+01 -8.139444067E+01  1.104100178E+02  2.132480600E-06  0.00000E+00  9.000E+00
#rwgt            1           1   3.1614043555003912E-002           5      204862           0
</event>
<event>
      5   9999  3.19816E-02  1.43452E+02 -1.00000E+00  1.17167E-01
      21    -1     0     0   502   501  0.000000000E+00  0.000000000E+00  3.592886020E+02  3.592886020E+02  0.000000000E+00  0.00000E+00  9.000E+00
      21    -1     0     0   512   502  0.000000000E+00  0.000000000E+00 -7.866731360E+02  7.866731360E+02  0.000000000E+00  0.00000E+00  9.000E+00
      25     1     1     2     0     0 -1.466185936E+02  2.097101159E+02 -5.683826199E+02  6.357351235E+02  1.250000000E+02  0.00000E+00  9.000E+00
      25     1     1     2     0     0  3.191305211E+00 -2.123574605E+02  2.335384860E+02  3.395159788E+02  1.250000000E+02  0.00000E+00  9.000E+00
      21     1     1     2   512   501  1.434272884E+02  2.647344602E+00 -9.254040013E+01  1.707106357E+02  1.907348633E-06  0.00000E+00  9.000E+00
#rwgt            1           1   2.9584367670994371E-002           5      204996           0
</event>
<event>
      5   9999  3.19816E-02  8.44665E+01 -1.00000E+00  1.27218E-01
      21    -1     0     0   511   501  0.000000000E+00  0.000000000E+00  1.800393952E+02  1.800393952E+02  0.000000000E+00  0.00000E+00  9.000E+00
      21    -1     0     0   501   502  0.000000000E+00  0.000000000E+00 -9.285496362E+02  9.285496362E+02  0.000000000E+00  0.00000E+00  9.000E+00
      25     1     1     2     0     0 -1.767325017E+01 -7.835958864E+01  7.870844272E+01  1.681445445E+02  1.250000000E+02  0.00000E+00  9.000E+00
      25     1     1     2     0     0 -6.526325343E+01  6.235575191E+01 -8.408640075E+02  8.548829225E+02  1.250000000E+02  0.00000E+00  9.000E+00
      21     1     1     2   511   502  8.293650359E+01  1.600383673E+01  1.364532382E+01  8.556156427E+01  8.085167388E-07  0.00000E+00  9.000E+00
#rwgt            1           1   3.4945032427618490E-002           5      205106           0
</event>
<event>
      5   9999  3.19816E-02  5.23376E+01 -1.00000E+00  1.37953E-01
      21    -1     0     0   512   501  0.000000000E+00  0.000000000E+00  2.571468692E+02  2.571468692E+02  0.000000000E+00  0.00000E+00  9.000E+00
      21    -1     0     0   501   502  0.000000000E+00  0.000000000E+00 -2.384492452E+02  2.384492452E+02  0.000000000E+00  0.00000E+00  9.000E+00
      25     1     1     2     0     0 -1.277139301E+02  3.712389129E+01  6.650665447E+01  1.942605630E+02  1.250000000E+02  0.00000E+00  9.000E+00
      25     1     1     2     0     0  8.077272725E+01 -1.397755646E+01 -1.338346596E+02  2.006397808E+02  1.250000000E+02  0.00000E+00  9.000E+00
      21     1     1     2   512   502  4.694120290E+01 -2.314633483E+01  8.602562914E+01  1.006957706E+02  9.536743164E-07  0.00000E+00  9.000E+00
#rwgt            1           1   3.3294364227798461E-002           5      205178           0
</event>
<event>
      5   9999  3.19816E-02  1.66857E+02 -1.00000E+00  1.14589E-01
      21    -1     0     0   502   501  0.000000000E+00  0.000000000E+00  9.940003439E+02  9.940003439E+02  0.000000000E+00  0.00000E+00  9.000E+00
      21    -1     0     0   501   511  0.000000000E+00  0.000000000E+00 -4.023219537E+02  4.023219537E+02  0.000000000E+00  0.00000E+00  9.000E+00
      25     1     1     2     0     0 -3.386820992E+02  3.759383824E+00 -2.148184176E+02  4.201090928E+02  1.250000000E+02  0.00000E+00  9.000E+00
      25     1     1     2     0     0  1.798664650E+02 -5.493539607E+01  7.739363126E+02  8.062085704E+02  1.250000000E+02  0.00000E+00  9.000E+00
      21     1     1     2   502   511  1.588156342E+02  5.117601224E+01  3.256049514E+01  1.700046344E+02  1.581489940E-06  0.00000E+00  9.000E+00
#rwgt            1           1   2.5348924316731265E-002           5      205276           0
</event>
<event>
      5   9999  3.19816E-02  5.91355E+01 -1.00000E+00  1.35041E-01
      21    -1     0     0   502   501  0.000000000E+00  0.000000000E+00  7.225266451E+01  7.225266451E+01  0.000000000E+00  0.00000E+00  9.000E+00
      21    -1     0     0   501   512  0.000000000E+00  0.000000000E+00 -2.097078109E+03  2.097078109E+03  0.000000000E+00  0.00000E+00  9.000E+00
      25     1     1     2     0     0 -9.333072331E+01  1.206098741E+02 -1.040991278E+02  2.229775640E+02  1.250000000E+02  0.00000E+00  9.000E+00
      25     1     1     2     0     0  5.630938202E+01 -7.449661781E+01 -4.865097980E+02  5.109180718E+02  1.250000000E+02  0.00000E+00  9.000E+00
      21     1     1     2   502   512  3.702134129E+01 -4.611325624E+01 -1.434216519E+03  1.435435138E+03  2.642899792E-05  0.00000E+00  9.000E+00
#rwgt            1           1   2.3437811060492482E-002           5      205314           0
</event>
<event>
      5   9999  3.19816E-02  9.00449E+01 -1.00000E+00  1.25911E-01
      21    -1     0     0   502   501  0.000000000E+00  0.000000000E+00  3.352026340E+02  3.352026340E+02  0.000000000E+00  0.00000E+00  9.000E+00
      21    -1     0     0   511   502  0.000000000E+00  0.000000000E+00 -2.930350991E+02  2.930350991E+02  0.000000000E+00  0.00000E+00  9.000E+00
      25     1     1     2     0     0 -1.223906731E+02  2.881903214E+01  1.758230364E+02  2.496973240E+02  1.250000000E+02  0.00000E+00  9.000E+00
      25     1     1     2     0     0  2.029715794E+02  1.136554897E+01 -2.887716060E+01  2.403862063E+02  1.250000000E+02  0.00000E+00  9.000E+00
      21     1     1     2   511   501 -8.058090638E+01 -4.018458111E+01 -1.047783409E+02  1.381542028E+02  1.348699152E-06  0.00000E+00  9.000E+00
#rwgt            1           1   2.6347409428260762E-002           5      205387           0
</event>
<event>
      5   9999  3.19816E-02  5.69250E+01 -1.00000E+00  1.35936E-01
      21    -1     0     0   502   512  0.000000000E+00  0.000000000E+00  1.111351049E+02  1.111351049E+02  0.000000000E+00  0.00000E+00  9.000E+00
      21    -1     0     0   501   502  0.000000000E+00  0.000000000E+00 -1.606614184E+03  1.606614184E+03  0.000000000E+00  0.00000E+00  9.000E+00
      25     1     1     2     0     0  1.796815030E+02 -2.665296170E+02 -5.875717979E+02  6.813142424E+02  1.250000000E+02  0.00000E+00  9.000E+00
      25     1     1     2     0     0 -1.671346886E+02  3.220546494E+02 -9.007072311E+02  9.790565446E+02  1.250000000E+02  0.00000E+00  9.000E+00
      21     1     1     2   501   512 -1.254681444E+01 -5.552503241E+01 -7.200050387E+00  5.737850209E+01  3.153981341E-07  0.00000E+00  9.000E+00
#rwgt            1           1   2.8558967622294498E-002           5      205433           0
</event>
<event>
      5   9999  3.19816E-02  1.40738E+01 -1.00000E+00  1.80032E-01
      21    -1     0     0   502   511  0.000000000E+00  0.000000000E+00  1.110404097E+03  1.110404097E+03  0.000000000E+00  0.00000E+00  9.000E+00
      21    -1     0     0   501   502  0.000000000E+00  0.000000000E+00 -1.195494645E+02  1.195494645E+02  0.000000000E+00  0.00000E+00  9.000E+00
      25     1     1     2     0     0 -1.374524010E+02  6.249039948E+01  2.773516554E+02  3.396279631E+02  1.250000000E+02  0.00000E+00  9.000E+00
      25     1     1     2     0     0  1.512985894E+02 -5.996939413E+01  3.084044682E+01  2.075180102E+02  1.250000000E+02  0.00000E+00  9.000E+00
      21     1     1     2   501   511 -1.384618846E+01 -2.521005352E+00  6.826625299E+02  6.828075880E+02  1.078959322E-05  0.00000E+00  9.000E+00
#rwgt            1           1   2.8730870753055172E-002           5      205552           0
</event>
<event>
      5   9999  3.19816E-02  4.95981E+01 -1.00000E+00  1.39276E-01
      21    -1     0     0   502   512  0.000000000E+00  0.000000000E+00  1.931096982E+02  1.931096982E+02  0.000000000E+00  0.00000E+00  9.000E+00
      21    -1     0     0   501   502  0.000000000E+00  0.000000000E+00 -9.739099502E+02  9.739099502E+02  0.000000000E+00  0.00000E+00  9.000E+00
      25     1     1     2     0     0 -2.332217204E+01  2.657214657E+02 -8.089873767E+02  8.609514485E+02  1.250000000E+02  0.00000E+00  9.000E+00
      25     1     1     2     0     0  7.727806981E+00 -2.186387020E+02  6.810240067E+00  2.520594778E+02  1.250000000E+02  0.00000E+00  9.000E+00
      21     1     1     2   501   512  1.559436506E+01 -4.708276377E+01  2.137688463E+01  5.400872210E+01  8.596304120E-07  0.00000E+00  9.000E+00
#rwgt            1           1   3.3395509250009670E-002           5      205703           0
</event>
<event>
      5   9999  3.19816E-02  2.42999E+02 -1.00000E+00  1.08653E-01
      21    -1     0     0   511   501  0.000000000E+00  0.000000000E+00  5.059411100E+02  5.059411100E+02  0.000000000E+00  0.00000E+00  9.000E+00
      21    -1     0     0   501   502  0.000000000E+00  0.000000000E+00 -1.020831713E+03  1.020831713E+03  0.000000000E+00  0.00000E+00  9.000E+00
      25     1     1     2     0     0  1.356888989E+02  5.064209927E+01  2.284698258E+02  2.979925516E+02  1.250000000E+02  0.00000E+00  9.000E+00
      25     1     1     2     0     0  4.678846290E+01  1.098283472E+02 -9.150596405E+02  9.312414143E+02  1.250000000E+02  0.00000E+00  9.000E+00
      21     1     1     2   511   502 -1.824773618E+02 -1.604704464E+02  1.716992122E+02  2.975388566E+02  4.672030912E-06  0.00000E+00  9.000E+00
#rwgt            1           1   2.7579105708991847E-002           5      205781           0
</event>
<event>
      5   9999  3.19816E-02  8.75176E+01 -1.00000E+00  1.26490E-01
      21    -1     0     0   502   501  0.000000000E+00  0.000000000E+00  4.560280832E+02  4.560280832E+02  0.000000000E+00  0.00000E+00  9.000E+00
      21    -1     0     0   512   502  0.000000000E+00  0.000000000E+00 -1.259623094E+03  1.259623094E+03  0.000000000E+00  0.00000E+00  9.000E+00
      25     1     1     2     0     0 -3.088807708E+02  1.281171743E+01 -1.235791489E+02  3.556237854E+02  1.250000000E+02  0.00000E+00  9.000E+00
      25     1     1     2     0     0  3.759452395E+02  4.341712353E+01  2.203549237E+02  4.554131774E+02  1.250000000E+02  0.00000E+00  9.000E+00
      21     1     1     2   512   501 -6.706446870E+01 -5.622884096E+01 -9.003707858E+02  9.046142147E+02  1.078959322E-05  0.00000E+00  9.000E+00
#rwgt            1           1   2.8883015408804672E-002           5      205838           0
</event>
<event>
      5   9999  3.19816E-02  3.37156E+01 -1.00000E+00  1.49599E-01
      21    -1     0     0   502   501  0.000000000E+00  0.000000000E+00  1.566105385E+02  1.566105385E+02  0.000000000E+00  0.00000E+00  9.000E+00
      21    -1     0     0   511   502  0.000000000E+00  0.000000000E+00 -4.329467728E+02  4.329467728E+02  0.000000000E+00  0.00000E+00  9.000E+00
      25     1     1     2     0     0 -7.845636555E+01  9.723816157E+00 -2.839216456E+02  3.201350571E+02  1.250000000E+02  0.00000E+00  9.000E+00
      25     1     1     2     0     0  5.883528924E+01 -3.714195818E+01  9.767931945E+01  1.732263426E+02  1.250000000E+02  0.00000E+00  9.000E+00
      21     1     1     2   511   501  1.962107632E+01  2.741814202E+01 -9.009390809E+01  9.619591167E+01  1.651812370E-06  0.00000E+00  9.000E+00
#rwgt            1           1   2.4837617776653814E-002           5      205922           0
</event>
<event>
      5   9999  3.19816E-02  1.02321E+02 -1.00000E+00  1.23381E-01
      21    -1     0     0   512   501  0.000000000E+00  0.000000000E+00  1.091288140E+03  1.091288140E+03  0.000000000E+00  0.00000E+00  9.000E+00
      21    -1     0     0   501   502  0.000000000E+00  0.000000000E+00 -1.287724580E+02  1.287724580E+02  0.000000000E+00  0.00000E+00  9.000E+00
      25     1     1     2     0     0 -1.801124159E+02  5.622333797E+01  1.607232422E+01  2.269027671E+02  1.250000000E+02  0.00000E+00  9.000E+00
      25     1     1     2     0     0  9.252869404E+01 -1.091259661E+02  4.936526236E+02  5.289498544E+02  1.250000000E+02  0.00000E+00  9.000E+00
      21     1     1     2   512   502  8.758372191E+01  5.290262812E+01  4.527907339E+02  4.642079762E+02  7.629394531E-06  0.00000E+00  9.000E+00
#rwgt            2          11   1.8394111847273226E-003           5      206056           0
</event>
<event>
      5   9999  3.19816E-02  4.07901E+01 -1.00000E+00  1.44315E-01
      21    -1     0     0   502   511  0.000000000E+00  0.000000000E+00  2.662561269E+02  2.662561269E+02  0.000000000E+00  0.00000E+00  9.000E+00
      21    -1     0     0   501   502  0.000000000E+00  0.000000000E+00 -8.456905281E+02  8.456905281E+02  0.000000000E+00  0.00000E+00  9.000E+00
      25     1     1     2     0     0  2.176415162E+02  2.508407188E+02 -2.450737321E+02  4.312482232E+02  1.250000000E+02  0.00000E+00  9.000E+00
      25     1     1     2     0     0 -2.557707315E+02 -2.363495561E+02 -4.356093366E+02  5.715420141E+02  1.250000000E+02  0.00000E+00  9.000E+00
      21     1     1     2   501   511  3.812921529E+01 -1.449116271E+01  1.012486675E+02  1.091564177E+02  1.348699152E-06  0.00000E+00  9.000E+00
#rwgt            1           1   2.7740010785095134E-002           5      206076           0
</event>
<event>
      5   9999  3.19816E-02  8.04183E+01 -1.00000E+00  1.28240E-01
      21    -1     0     0   502   501  0.000000000E+00  0.000000000E+00  1.296118959E+03  1.296118959E+03  0.000000000E+00  0.00000E+00  9.000E+00
      21    -1     0     0   512   502  0.000000000E+00  0.000000000E+00 -3.754266728E+02  3.754266728E+02  0.000000000E+00  0.00000E+00  9.000E+00
      25     1     1     2     0     0 -5.055607253E+02 -3.795612362E+02  3.900486237E+02  7.532737271E+02  1.250000000E+02  0.00000E+00  9.000E+00
      25     1     1     2     0     0  5.429937209E+02  3.083862316E+02  5.429998444E+02  8.369098397E+02  1.250000000E+02  0.00000E+00  9.000E+00
      21     1     1     2   512   501 -3.743299562E+01  7.117500465E+01 -1.235618163E+01  8.136206532E+01  2.071636581E-06  0.00000E+00  9.000E+00
#rwgt            2          11   6.3407354114128223E-003           5      206289           0
</event>
<event>
      5   9999  3.19816E-02  2.90423E+02 -1.00000E+00  1.06052E-01
       1    -1     0     0   502     0  0.000000000E+00  0.000000000E+00  1.560028662E+03  1.560028662E+03  0.000000000E+00  0.00000E+00  9.000E+00
      21    -1     0     0   501   502  0.000000000E+00  0.000000000E+00 -9.051732778E+02  9.051732778E+02  0.000000000E+00  0.00000E+00  9.000E+00
      25     1     1     2     0     0  2.586498169E+02  3.695444252E+02 -4.904900559E+02  6.779884254E+02  1.250000000E+02  0.00000E+00  9.000E+00
      25     1     1     2     0     0  2.944460251E+01 -4.062460382E+02 -1.561004962E+02  4.537567554E+02  1.250000000E+02  0.00000E+00  9.000E+00
       1     1     1     2   501     0 -2.880944194E+02  3.670161302E+01  1.301445937E+03  1.333456759E+03  0.000000000E+00  0.00000E+00  9.000E+00
#rwgt            2          17   1.8940490294657333E-003           5      206429           0
</event>
<event>
      5   9999  3.19816E-02  4.07930E+01 -1.00000E+00  1.44313E-01
      21    -1     0     0   502   501  0.000000000E+00  0.000000000E+00  5.506069201E+01  5.506069201E+01  0.000000000E+00  0.00000E+00  9.000E+00
      21    -1     0     0   501   511  0.000000000E+00  0.000000000E+00 -7.373851431E+02  7.373851431E+02  0.000000000E+00  0.00000E+00  9.000E+00
      25     1     1     2     0     0  8.080005947E+01 -7.717664831E+01 -2.857838361E+02  3.313340997E+02  1.250000000E+02  0.00000E+00  9.000E+00
      25     1     1     2     0     0 -8.380812811E+01  3.649468121E+01 -1.661065930E+02  2.270948355E+02  1.250000000E+02  0.00000E+00  9.000E+00
      21     1     1     2   502   511  3.008068641E+00  4.068196709E+01 -2.304340221E+02  2.340168999E+02  3.814697266E-06  0.00000E+00  9.000E+00
#rwgt            1           1   1.8684819263386252E-002           5      206463           0
</event>
<event>
      5   9999  3.19816E-02  4.95922E+01 -1.00000E+00  1.39279E-01
       1    -1     0     0   502     0  0.000000000E+00  0.000000000E+00  9.605786780E+02  9.605786780E+02  0.000000000E+00  0.00000E+00  9.000E+00
      21    -1     0     0   501   502  0.000000000E+00  0.000000000E+00 -1.359722601E+02  1.359722601E+02  0.000000000E+00  0.00000E+00  9.000E+00
      25     1     1     2     0     0  1.010170143E+02 -2.201975608E+02  2.737605504E+02  3.863434248E+02  1.250000000E+02  0.00000E+00  9.000E+00
      25     1     1     2     0     0 -1.417466326E+02  1.919047121E+02  1.539673837E+02  3.102426173E+02  1.250000000E+02  0.00000E+00  9.000E+00
       1     1     1     2   501     0  4.072961828E+01  2.829284877E+01  3.968784838E+02  3.999648959E+02  5.394796609E-06  0.00000E+00  9.000E+00
#rwgt            1           1   2.4286773264869367E-002           5      206557           0
</event>
<event>
      5   9999  3.19816E-02  3.84535E+01 -1.00000E+00  1.45910E-01
      21    -1     0     0   502   501  0.000000000E+00  0.000000000E+00  9.472259915E+02  9.472259915E+02  0.000000000E+00  0.00000E+00  9.000E+00
      21    -1     0     0   501   511  0.000000000E+00  0.000000000E+00 -1.386360725E+02  1.386360725E+02  0.000000000E+00  0.00000E+00  9.000E+00
      25     1     1     2     0     0 -1.863619148E+01  3.285172190E+00  8.904430037E+02  8.993730276E+02  1.250000000E+02  0.00000E+00  9.000E+00
      25     1     1     2     0     0 -1.950785411E+01  1.583680034E+00 -4.821339971E+01  1.353979185E+02  1.250000000E+02  0.00000E+00  9.000E+00
      21     1     1     2   502   511  3.814404559E+01 -4.868852224E+00 -3.363968488E+01  5.109111797E+01  6.743495762E-07  0.00000E+00  9.000E+00
#rwgt            1           1   2.2989722773732006E-002           5      206671           0
</event>
<event>
      5   9999  3.19816E-02  7.13646E+01 -1.00000E+00  1.30797E-01
      21    -1     0     0   502   501  0.000000000E+00  0.000000000E+00  1.466816362E+03  1.466816362E+03  0.000000000E+00  0.00000E+00  9.000E+00
      21    -1     0     0   501   512  0.000000000E+00  0.000000000E+00 -7.459983340E+01  7.459983340E+01  0.000000000E+00  0.00000E+00  9.000E+00
      25     1     1     2     0     0  2.775412579E+02  6.469575627E+01  6.507062651E+02  7.212893554E+02  1.250000000E+02  0.00000E+00  9.000E+00
      25     1     1     2     0     0 -2.410578995E+02 -3.361640156E+00  6.471582087E+02  7.018254474E+02  1.250000000E+02  0.00000E+00  9.000E+00
      21     1     1     2   502   512 -3.648335849E+01 -6.133411612E+01  9.435205464E+01  1.183013925E+02  2.336015456E-06  0.00000E+00  9.000E+00
#rwgt            1           1   3.0554601101214381E-002           5      206763           0
</event>
<event>
      5   9999  3.19816E-02  1.24417E+02 -1.00000E+00  1.19706E-01
      21    -1     0     0   502   501  0.000000000E+00  0.000000000E+00  1.714714665E+02  1.714714665E+02  0.000000000E+00  0.00000E+00  9.000E+00
      21    -1     0     0   511   502  0.000000000E+00  0.000000000E+00 -7.529231445E+02  7.529231445E+02  0.000000000E+00  0.00000E+00  9.000E+00
      25     1     1     2     0     0 -1.454218827E+02  1.656848711E+02  5.521924746E+00  2.534846980E+02  1.250000000E+02  0.00000E+00  9.000E+00
      25     1     1     2     0     0  1.503903684E+02 -4.136685503E+01 -3.411592496E+02  3.954024698E+02  1.250000000E+02  0.00000E+00  9.000E+00
      21     1     1     2   511   501 -4.968485653E+00 -1.243180160E+02 -2.458143532E+02  2.755074431E+02  2.697398305E-06  0.00000E+00  9.000E+00
#rwgt            1           1   2.7190877758170615E-002           5      206864           0
</event>
<event>
      5   9999  3.19816E-02  1.69110E+02 -1.00000E+00  1.14366E-01
       1    -1     0     0   502     0  0.000000000E+00  0.000000000E+00  1.373505522E+03  1.373505522E+03  0.000000000E+00  0.00000E+00  9.000E+00
      21    -1     0     0   501   502  0.000000000E+00  0.000000000E+00 -3.871997100E+02  3.871997100E+02  0.000000000E+00  0.00000E+00  9.000E+00
      25     1     1     2     0     0  2.878018496E+02 -3.612840308E+01  3.705677684E+02  4.869092699E+02  1.250000000E+02  0.00000E+00  9.000E+00
      25     1     1     2     0     0 -4.303878452E+02 -5.479759665E+01 -1.606232770E+02  4.792299146E+02  1.250000000E+02  0.00000E+00  9.000E+00
       1     1     1     2   501     0  1.425859957E+02  9.092599973E+01  7.763613207E+02  7.945660475E+02  0.000000000E+00  0.00000E+00  9.000E+00
#rwgt            1           1   2.9496559069483660E-002           5      206922           0
</event>
<event>
      5   9999  3.19816E-02  1.13637E+02 -1.00000E+00  1.21381E-01
       1    -1     0     0   502     0  0.000000000E+00  0.000000000E+00  6.186344251E+02  6.186344251E+02  0.000000000E+00  0.00000E+00  9.000E+00
      21    -1     0     0   501   502  0.000000000E+00  0.000000000E+00 -2.175226975E+02  2.175226975E+02  0.000000000E+00  0.00000E+00  9.000E+00
      25     1     1     2     0     0 -2.086440532E+02 -7.751523094E+01  2.420365075E+02  3.517778033E+02  1.250000000E+02  0.00000E+00  9.000E+00
      25     1     1     2     0     0  2.307244973E+02 -3.395588956E+01 -2.739468940E+01  2.660117763E+02  1.250000000E+02  0.00000E+00  9.000E+00
       1     1     1     2   501     0 -2.208044410E+01  1.114711205E+02  1.864699095E+02  2.183675431E+02  2.697398305E-06  0.00000E+00  9.000E+00
#rwgt            1           1   2.8070415824582483E-002           5      206999           0
</event>
<event>
      5   9999  3.19816E-02  3.09118E+01 -1.00000E+00  1.52142E-01
      21    -1     0     0   502   501  0.000000000E+00  0.000000000E+00  1.577361360E+02  1.577361360E+02  0.000000000E+00  0.00000E+00  9.000E+00
      21    -1     0     0   501   511  0.000000000E+00  0.000000000E+00 -1.052520583E+03  1.052520583E+03  0.000000000E+00  0.00000E+00  9.000E+00
      25     1     1     2     0     0  7.695795166E+01 -9.838983781E+01 -1.237224534E+01  1.771472804E+02  1.250000000E+02  0.00000E+00  9.000E+00
      25     1     1     2     0     0 -5.945628069E+01  7.290982464E+01 -6.427718147E+00  1.565797158E+02  1.250000000E+02  0.00000E+00  9.000E+00
      21     1     1     2   502   511 -1.750167097E+01  2.548001317E+01 -8.759844835E+02  8.765297227E+02  1.078959322E-05  0.00000E+00  9.000E+00
#rwgt            1           1   3.3914108051251300E-002           5      207054           0
</event>
<event>
      5   9999  3.19816E-02  5.38271E+01 -1.00000E+00  1.37272E-01
      21    -1     0     0   502   512  0.000000000E+00  0.000000000E+00  1.380410950E+03  1.380410950E+03  0.000000000E+00  0.00000E+00  9.000E+00
      21    -1     0     0   501   502  0.000000000E+00  0.000000000E+00 -7.299301633E+02  7.299301633E+02  0.000000000E+00  0.00000E+00  9.000E+00
      25     1     1     2     0     0  5.479331316E+02 -2.218417312E+02 -4.599970596E+02  7.593857816E+02  1.250000000E+02  0.00000E+00  9.000E+00
      25     1     1     2     0     0 -5.993938850E+02  2.060572550E+02  7.649157103E+02  1.001226081E+03  1.250000000E+02  0.00000E+00  9.000E+00
      21     1     1     2   501   512  5.146075340E+01  1.578447620E+01  3.455621355E+02  3.497292500E+02  6.607249480E-06  0.00000E+00  9.000E+00
#rwgt            1           1   3.3931687554313437E-002           5      207161           0
</event>
<event>
      5   9999  3.19816E-02  1.56005E+01 -1.00000E+00  1.75792E-01
      21    -1     0     0   502   501  0.000000000E+00  0.000000000E+00  2.684555720E+02  2.684555720E+02  0.000000000E+00  0.00000E+00  9.000E+00
      21    -1     0     0   501   511  0.000000000E+00  0.000000000E+00 -5.090630015E+02  5.090630015E+02  0.000000000E+00  0.00000E+00  9.000E+00
      25     1     1     2     0     0  3.108258315E+02  2.579353633E+01 -2.709967305E+02  4.316737565E+02  1.250000000E+02  0.00000E+00  9.000E+00
      25     1     1     2     0     0 -2.953535690E+02 -2.778998878E+01  4.428939606E+01  3.249500959E+02  1.250000000E+02  0.00000E+00  9.000E+00
      21     1     1     2   502   511 -1.547226253E+01  1.996452456E+00 -1.390009504E+01  2.089472116E+01  5.057621821E-07  0.00000E+00  9.000E+00
#rwgt            1           1   2.5214891597875717E-002           5      207335           0
</event>
<event>
      5   9999  3.19816E-02  1.01327E+02 -1.00000E+00  1.23571E-01
      21    -1     0     0   512   501  0.000000000E+00  0.000000000E+00  1.937619140E+03  1.937619140E+03  0.000000000E+00  0.00000E+00  9.000E+00
      21    -1     0     0   501   502  0.000000000E+00  0.000000000E+00 -4.875330926E+02  4.875330926E+02  0.000000000E+00  0.00000E+00  9.000E+00
      25     1     1     2     0     0  8.500058558E+02 -3.377765957E+02  6.154811339E+02  1.109524677E+03  1.250000000E+02  0.00000E+00  9.000E+00
      25     1     1     2     0     0 -7.565128425E+02  2.987103685E+02  4.929235325E+02  9.592383302E+02  1.250000000E+02  0.00000E+00  9.000E+00
      21     1     1     2   512   502 -9.349301329E+01  3.906622718E+01  3.416813806E+02  3.563892247E+02  0.000000000E+00  0.00000E+00  9.000E+00
#rwgt            1           1   3.5398461485589706E-002           5      207533           0
</event>
<event>
      5   9999  3.19816E-02  5.62900E+01 -1.00000E+00  1.36202E-01
      21    -1     0     0   502   501  0.000000000E+00  0.000000000E+00  3.220608782E+02  3.220608782E+02  0.000000000E+00  0.00000E+00  9.000E+00
      21    -1     0     0   511   502  0.000000000E+00  0.000000000E+00 -1.642662802E+03  1.642662802E+03  0.000000000E+00  0.00000E+00  9.000E+00
      25     1     1     2     0     0 -1.814871649E+02  2.691253862E+02 -1.162400987E+03  1.213328941E+03  1.250000000E+02  0.00000E+00  9.000E+00
      25     1     1     2     0     0  1.751805853E+02 -2.131898158E+02  2.165964959E+02  3.723938467E+02  1.250000000E+02  0.00000E+00  9.000E+00
      21     1     1     2   511   501  6.306579656E+00 -5.593557040E+01 -3.747974326E+02  3.790008924E+02  5.394796609E-06  0.00000E+00  9.000E+00
#rwgt            1           1   2.2352833883191640E-002           5      207612           0
</event>
<event>
      5   9999  3.19816E-02  3.70441E+02 -1.00000E+00  1.02699E-01
      21    -1     0     0   502   501  0.000000000E+00  0.000000000E+00  8.594511276E+02  8.594511276E+02  0.000000000E+00  0.00000E+00  9.000E+00
       2    -1     0     0   501     0  0.000000000E+00  0.000000000E+00 -4.668242197E+02  4.668242197E+02  0.000000000E+00  0.00000E+00  9.000E+00
      25     1     1     2     0     0  9.881880974E+01 -9.080393384E+01  1.966403373E+02  2.688920486E+02  1.250000000E+02  0.00000E+00  9.000E+00
      25     1     1     2     0     0  2.683356264E+02  4.156873240E+01 -3.097645276E+02  4.304776771E+02  1.250000000E+02  0.00000E+00  9.000E+00
       2     1     1     2   502     0 -3.671544362E+02  4.923520144E+01  5.057510982E+02  6.269056216E+02  7.629394531E-06  0.00000E+00  9.000E+00
#rwgt            2          13   5.8319599284613404E-005           5      207827           0
</event>
<event>
      5   9999  3.19816E-02  1.23307E+02 -1.00000E+00  1.19869E-01
      21    -1     0     0   502   511  0.000000000E+00  0.000000000E+00  3.258534230E+02  3.258534230E+02  0.000000000E+00  0.00000E+00  9.000E+00
      21    -1     0     0   501   502  0.000000000E+00  0.000000000E+00 -7.003259571E+02  7.003259571E+02  0.000000000E+00  0.00000E+00  9.000E+00
      25     1     1     2     0     0  1.826215863E+02  1.082556886E+02  1.027475315E+02  2.669306897E+02  1.250000000E+02  0.00000E+00  9.000E+00
      25     1     1     2     0     0 -1.463408182E+02  9.593421839E+00 -5.720882641E+02  6.036701506E+02  1.250000000E+02  0.00000E+00  9.000E+00
      21     1     1     2   501   511 -3.628076807E+01 -1.178491104E+02  9.486819852E+01  1.555785398E+02  1.348699152E-06  0.00000E+00  9.000E+00
#rwgt            1           1   2.5661357749305332E-002           5      207861           0
</event>
<event>
      5   9999  3.19816E-02  6.27401E+01 -1.00000E+00  1.33675E-01
      21    -1     0     0   502   512  0.000000000E+00  0.000000000E+00  7.584127941E+02  7.584127941E+02  0.000000000E+00  0.00000E+00  9.000E+00
      21    -1     0     0   501   502  0.000000000E+00  0.000000000E+00 -3.494011953E+02  3.494011953E+02  0.000000000E+00  0.00000E+00  9.000E+00
      25     1     1     2     0     0  1.130193994E+02 -4.043871757E+02  2.359752694E+01  4.387302312E+02  1.250000000E+02  0.00000E+00  9.000E+00
      25     1     1     2     0     0 -1.700212952E+02  4.305999098E+02  3.101011115E+02  5.710614874E+02  1.250000000E+02  0.00000E+00  9.000E+00
      21     1     1     2   501   512  5.700189577E+01 -2.621273403E+01  7.531296038E+01  9.802227067E+01  1.651812370E-06  0.00000E+00  9.000E+00
#rwgt            1           1   2.8088302744916797E-002           5      207924           0
</event>
<event>
      5   9999  3.79258E-02  3.68304E+01 -1.00000E+00  1.47099E-01
      21    -1     0     0   502   501  0.000000000E+00  0.000000000E+00  1.373322321E+03  1.373322321E+03  0.000000000E+00  0.00000E+00  9.000E+00
      21    -1     0     0   501   511  0.000000000E+00  0.000000000E+00 -1.069201149E+03  1.069201149E+03  0.000000000E+00  0.00000E+00  9.000E+00
      25     1     1     2     0     0 -5.709425021E+02 -9.934478955E+02  3.997057119E+02  1.219960540E+03  1.250000000E+02  0.00000E+00  9.000E+00
      25     1     1     2     0     0  5.684725904E+02  9.567003830E+02  2.990876956E-01  1.119849007E+03  1.250000000E+02  0.00000E+00  9.000E+00
      21     1     1     2   502   511  2.469911709E+00  3.674751249E+01 -9.588362683E+01  1.027139233E+02  1.348699152E-06  0.00000E+00  9.000E+00
#rwgt            1           1   9.2014623024679512E-002           5      208004           0
</event>
<event>
      5   9999  3.19816E-02  1.16932E+01 -1.00000E+00  1.88218E-01
      21    -1     0     0   512   501  0.000000000E+00  0.000000000E+00  4.078670170E+02  4.078670170E+02  0.000000000E+00  0.00000E+00  9.000E+00
      21    -1     0     0   501   502  0.000000000E+00  0.000000000E+00 -8.707581881E+01  8.707581881E+01  0.000000000E+00  0.00000E+00  9.000E+00
      25     1     1     2     0     0 -7.397099050E+01  4.242928270E+00  8.865665290E+00  1.455792221E+02  1.250000000E+02  0.00000E+00  9.000E+00
      25     1     1     2     0     0  6.862422251E+01 -1.464211435E+01  2.682421383E+02  3.041422697E+02  1.250000000E+02  0.00000E+00  9.000E+00
      21     1     1     2   512   502  5.346767995E+00  1.039918608E+01  4.368339451E+01  4.522134402E+01  6.743495762E-07  0.00000E+00  9.000E+00
#rwgt            1           1   3.0246453188801287E-002           5      208121           0
</event>
<event>
      5   9999  3.19816E-02  4.84344E+01 -1.00000E+00  1.39868E-01
      21    -1     0     0   502   511  0.000000000E+00  0.000000000E+00  2.306111775E+03  2.306111775E+03  0.000000000E+00  0.00000E+00  9.000E+00
      21    -1     0     0   501   502  0.000000000E+00  0.000000000E+00 -9.232982310E+02  9.232982310E+02  0.000000000E+00  0.00000E+00  9.000E+00
      25     1     1     2     0     0 -1.256160988E+03  5.842970412E+02  4.296153661E+02  1.455863257E+03  1.250000000E+02  0.00000E+00  9.000E+00
      25     1     1     2     0     0  1.296961954E+03 -6.103962991E+02  8.827861790E+02  1.688084829E+03  1.250000000E+02  0.00000E+00  9.000E+00
      21     1     1     2   501   511 -4.080096693E+01  2.609925793E+01  7.041199882E+01  8.546191985E+01  1.348699152E-06  0.00000E+00  9.000E+00
#rwgt            1           1   5.6335147277601895E-002           5      208264           0
</event>
<event>
      5   9999  3.19816E-02  1.33444E+01 -1.00000E+00  1.82306E-01
      21    -1     0     0   502   512  0.000000000E+00  0.000000000E+00  1.696565745E+03  1.696565745E+03  0.000000000E+00  0.00000E+00  9.000E+00
      21    -1     0     0   501   502  0.000000000E+00  0.000000000E+00 -1.001808867E+02  1.001808867E+02  0.000000000E+00  0.00000E+00  9.000E+00
      25     1     1     2     0     0  3.465760653E+02  3.920621569E+01  7.145896524E+02  8.049319647E+02  1.250000000E+02  0.00000E+00  9.000E+00
      25     1     1     2     0     0 -3.419708031E+02 -2.668161300E+01  5.523315357E+02  6.620808591E+02  1.250000000E+02  0.00000E+00  9.000E+00
      21     1     1     2   501   512 -4.605262177E+00 -1.252460269E+01  3.294636705E+02  3.297338082E+02  3.814697266E-06  0.00000E+00  9.000E+00
#rwgt            1           1   2.8855305317403702E-002           5      208499           0
</event>
<event>
      5   9999  3.19816E-02  1.24888E+02 -1.00000E+00  1.19637E-01
      21    -1     0     0   511   501  0.000000000E+00  0.000000000E+00  7.368097936E+02  7.368097936E+02  0.000000000E+00  0.00000E+00  9.000E+00
      21    -1     0     0   501   502  0.000000000E+00  0.000000000E+00 -1.018671284E+03  1.018671284E+03  0.000000000E+00  0.00000E+00  9.000E+00
      25     1     1     2     0     0  8.499106155E+01  3.551353739E+02 -6.380153898E+02  7.456763722E+02  1.250000000E+02  0.00000E+00  9.000E+00
      25     1     1     2     0     0 -6.793818978E+01 -2.314167972E+02 -2.630453344E+02  3.781364564E+02  1.250000000E+02  0.00000E+00  9.000E+00
      21     1     1     2   511   502 -1.705287177E+01 -1.237185767E+02  6.191992335E+02  6.316682495E+02  7.629394531E-06  0.00000E+00  9.000E+00
#rwgt            1           1   2.7784224951982066E-002           5      208642           0
</event>
<event>
      5   9999  3.19816E-02  9.69721E+01 -1.00000E+00  1.24431E-01
      21    -1     0     0   502   501  0.000000000E+00  0.000000000E+00  2.458587406E+02  2.458587406E+02  0.000000000E+00  0.00000E+00  9.000E+00
      21    -1     0     0   512   502  0.000000000E+00  0.000000000E+00 -1.022520843E+03  1.022520843E+03  0.000000000E+00  0.00000E+00  9.000E+00
      25     1     1     2     0     0 -2.650839154E+02 -2.804622179E+02 -4.871670146E+02  6.339441915E+02  1.250000000E+02  0.00000E+00  9.000E+00
      25     1     1     2     0     0  2.178697140E+02  1.957602876E+02  1.103534594E+01  3.186472679E+02  1.250000000E+02  0.00000E+00  9.000E+00
      21     1     1     2   512   501  4.721420139E+01  8.470193027E+01 -3.005304342E+02  3.157881247E+02  3.814697266E-06  0.00000E+00  9.000E+00
#rwgt            1           1   3.0482418987569364E-002           5      208702           0
</event>
<event>
      5   9999  3.19816E-02  7.58495E+01 -1.00000E+00  1.29479E-01
      21    -1     0     0   502   501  0.000000000E+00  0.000000000E+00  1.074087474E+03  1.074087474E+03  0.000000000E+00  0.00000E+00  9.000E+00
      21    -1     0     0   511   502  0.000000000E+00  0.000000000E+00 -1.290042338E+02  1.290042338E+02  0.000000000E+00  0.00000E+00  9.000E+00
      25     1     1     2     0     0  1.811675591E+02 -2.337970838E+02  7.081094447E+02  7.775131809E+02  1.250000000E+02  0.00000E+00  9.000E+00
      25     1     1     2     0     0 -1.844207062E+02  1.580174057E+02  1.556643477E+02  3.143833433E+02  1.250000000E+02  0.00000E+00  9.000E+00
      21     1     1     2   511   501  3.253147190E+00  7.577967805E+01  8.130944780E+01  1.111951837E+02  1.348699152E-06  0.00000E+00  9.000E+00
#rwgt            1           1   2.9499292071659890E-002           5      208754           0
</event>
<event>
      5   9999  3.19816E-02  3.31090E+01 -1.00000E+00  1.50124E-01
      21    -1     0     0   502   512  0.000000000E+00  0.000000000E+00  3.155186239E+02  3.155186239E+02  0.000000000E+00  0.00000E+00  9.000E+00
      21    -1     0     0   501   502  0.000000000E+00  0.000000000E+00 -8.610624518E+02  8.610624518E+02  0.000000000E+00  0.00000E+00  9.000E+00
      25     1     1     2     0     0 -1.656409287E+02  2.284408095E+02 -2.877214585E+02  4.219369128E+02  1.250000000E+02  0.00000E+00  9.000E+00
      25     1     1     2     0     0  1.331473130E+02 -2.347947774E+02 -4.610817242E+02  5.487058874E+02  1.250000000E+02  0.00000E+00  9.000E+00
      21     1     1     2   501   512  3.249361572E+01  6.353967987E+00  2.032593548E+02  2.059382754E+02  2.697398305E-06  0.00000E+00  9.000E+00
#rwgt            1           1   2.9401252450646325E-002           5      208814           0
</event>
<event>
      5   9999  3.19816E-02  9.41153E+01 -1.00000E+00  1.25024E-01
      21    -1     0     0   502   511  0.000000000E+00  0.000000000E+00  5.391719766E+02  5.391719766E+02  0.000000000E+00  0.00000E+00  9.000E+00
      21    -1     0     0   501   502  0.000000000E+00  0.000000000E+00 -2.546068336E+02  2.546068336E+02  0.000000000E+00  0.00000E+00  9.000E+00
      25     1     1     2     0     0  7.138340493E+01  7.695507750E+01 -1.951068447E+02  2.543803359E+02  1.250000000E+02  0.00000E+00  9.000E+00
      25     1     1     2     0     0  2.151558482E+01 -6.187293797E+01  2.036240067E+02  2.477476881E+02  1.250000000E+02  0.00000E+00  9.000E+00
      21     1     1     2   501   511 -9.289898975E+01 -1.508213953E+01  2.760479811E+02  2.916507862E+02  3.814697266E-06  0.00000E+00  9.000E+00
#rwgt            1           1   2.8812691635689110E-002           5      208917           0
</event>
<event>
      5   9999  3.19816E-02  4.53628E+01 -1.00000E+00  1.41531E-01
      21    -1     0     0   502   501  0.000000000E+00  0.000000000E+00  1.337731177E+02  1.337731177E+02  0.000000000E+00  0.00000E+00  9.000E+00
      21    -1     0     0   501   512  0.000000000E+00  0.000000000E+00 -2.111692092E+03  2.111692092E+03  0.000000000E+00  0.00000E+00  9.000E+00
      25     1     1     2     0     0 -1.532995572E+02 -2.936936960E+02 -4.278225439E+02  5.553502232E+02  1.250000000E+02  0.00000E+00  9.000E+00
      25     1     1     2     0     0  1.929714994E+02  3.156919221E+02 -4.788888744E+02  6.179473629E+02  1.250000000E+02  0.00000E+00  9.000E+00
      21     1     1     2   502   512 -3.967194222E+01 -2.199822611E+01 -1.071207556E+03  1.072167623E+03  0.000000000E+00  0.00000E+00  9.000E+00
#rwgt            1           1   1.9095436706329311E-002           5      209018           0
</event>
<event>
      5   9999  3.19816E-02  4.96285E+02 -1.00000E+00  9.89441E-02
      21    -1     0     0   502   501  0.000000000E+00  0.000000000E+00  8.112106795E+02  8.112106795E+02  0.000000000E+00  0.00000E+00  9.000E+00
      21    -1     0     0   511   502  0.000000000E+00  0.000000000E+00 -6.480202660E+02  6.480202660E+02  0.000000000E+00  0.00000E+00  9.000E+00
      25     1     1     2     0     0  1.049785782E+02  5.612181631E+02  4.176555945E+02  7.183644786E+02  1.250000000E+02  0.00000E+00  9.000E+00
      25     1     1     2     0     0 -1.289114221E+02 -6.551096170E+01 -1.235855159E+02  2.276141924E+02  1.250000000E+02  0.00000E+00  9.000E+00
      21     1     1     2   511   501  2.393284390E+01 -4.957072014E+02 -1.308796651E+02  5.132522745E+02  7.136645101E-06  0.00000E+00  9.000E+00
#rwgt            2          11   2.6496256569043830E-003           5      209349           0
</event>
<event>
      5   9999  3.19816E-02  2.49297E+02 -1.00000E+00  1.08272E-01
      21    -1     0     0   502   501  0.000000000E+00  0.000000000E+00  2.607574644E+02  2.607574644E+02  0.000000000E+00  0.00000E+00  9.000E+00
      21    -1     0     0   512   502  0.000000000E+00  0.000000000E+00 -7.926211762E+02  7.926211762E+02  0.000000000E+00  0.00000E+00  9.000E+00
      25     1     1     2     0     0  4.173953216E+02 -6.769183709E+01 -2.332492958E+02  4.988299041E+02  1.250000000E+02  0.00000E+00  9.000E+00
      25     1     1     2     0     0 -1.731210951E+02  1.790022491E+01 -1.034575872E+02  2.379491626E+02  1.250000000E+02  0.00000E+00  9.000E+00
      21     1     1     2   512   501 -2.442742265E+02  4.979161218E+01 -1.951568288E+02  3.165995739E+02  2.697398305E-06  0.00000E+00  9.000E+00
#rwgt            1           1   2.8834085804147390E-002           5      209369           0
</event>
<event>
      5   9999  3.19816E-02  2.17563E+01 -1.00000E+00  1.63408E-01
      21    -1     0     0   511   501  0.000000000E+00  0.000000000E+00  6.131119289E+02  6.131119289E+02  0.000000000E+00  0.00000E+00  9.000E+00
      21    -1     0     0   501   502  0.000000000E+00  0.000000000E+00 -1.273333776E+02  1.273333776E+02  0.000000000E+00  0.00000E+00  9.000E+00
      25     1     1     2     0     0 -5.431173897E+01  1.453237178E+02  2.606242214E+02  3.280529419E+02  1.250000000E+02  0.00000E+00  9.000E+00
      25     1     1     2     0     0  6.202315376E+01 -1.249799535E+02  1.147736570E+00  1.873317316E+02  1.250000000E+02  0.00000E+00  9.000E+00
      21     1     1     2   511   502 -7.711414792E+00 -2.034376427E+01  2.240065933E+02  2.250606330E+02  3.814697266E-06  0.00000E+00  9.000E+00
#rwgt            1           1   2.7982219421050759E-002           5      209399           0
</event>
<event>
      5   9999  3.19816E-02  4.38879E+00 -1.00000E+00  2.54326E-01
      21    -1     0     0   502   501  0.000000000E+00  0.000000000E+00  1.723184216E+02  1.723184216E+02  0.000000000E+00  0.00000E+00  9.000E+00
      21    -1     0     0   512   502  0.000000000E+00  0.000000000E+00 -4.174296754E+02  4.174296754E+02  0.000000000E+00  0.00000E+00  9.000E+00
      25     1     1     2     0     0 -1.807255808E+02 -1.104000578E+02 -8.028910408E+01  2.586914157E+02  1.250000000E+02  0.00000E+00  9.000E+00
      25     1     1     2     0     0  1.793378439E+02  1.062364476E+02 -9.477878331E+01  2.608759530E+02  1.250000000E+02  0.00000E+00  9.000E+00
      21     1     1     2   512   501  1.387736846E+00  4.163610191E+00 -7.004336636E+01  7.018072837E+01  9.536743164E-07  0.00000E+00  9.000E+00
#rwgt            1           1   2.5405903259280608E-002           5      209574           0
</event>
<event>
      5   9999  3.19816E-02  4.77898E+01 -1.00000E+00  1.40205E-01
      21    -1     0     0   502   501  0.000000000E+00  0.000000000E+00  3.463193076E+02  3.463193076E+02  0.000000000E+00  0.00000E+00  9.000E+00
      21    -1     0     0   501   511  0.000000000E+00  0.000000000E+00 -2.332695861E+03  2.332695861E+03  0.000000000E+00  0.00000E+00  9.000E+00
      25     1     1     2     0     0  1.564787015E+02 -3.156276169E+02 -2.093690458E+03  2.126798324E+03  1.250000000E+02  0.00000E+00  9.000E+00
      25     1     1     2     0     0 -1.751760488E+02  3.596079486E+02  1.873071627E+02  4.590353995E+02  1.250000000E+02  0.00000E+00  9.000E+00
      21     1     1     2   502   511  1.869734729E+01 -4.398033172E+01 -7.999325740E+01  9.318144452E+01  0.000000000E+00  0.00000E+00  9.000E+00
#rwgt            1           1   2.9230116765534966E-002           5      209830           0
</event>
<event>
      5   9999  3.19816E-02  7.75370E+01 -1.00000E+00  1.29010E-01
      21    -1     0     0   502   501  0.000000000E+00  0.000000000E+00  1.518371241E+03  1.518371241E+03  0.000000000E+00  0.00000E+00  9.000E+00
      21    -1     0     0   501   512  0.000000000E+00  0.000000000E+00 -7.613262474E+01  7.613262474E+01  0.000000000E+00  0.00000E+00  9.000E+00
      25     1     1     2     0     0  1.940927716E+02 -1.223172905E+02  9.433188509E+02  9.788304133E+02  1.250000000E+02  0.00000E+00  9.000E+00
      25     1     1     2     0     0 -2.140535712E+02  4.739362396E+01  4.689518680E+02  5.325466565E+02  1.250000000E+02  0.00000E+00  9.000E+00
      21     1     1     2   502   512  1.996079964E+01  7.492366655E+01  2.996789751E+01  8.312679600E+01  9.536743164E-07  0.00000E+00  9.000E+00
#rwgt            1           1   2.4244234571874596E-002           5      209994           0
</event>
<event>
      5   9999  3.19816E-02  2.89626E+01 -1.00000E+00  1.54109E-01
      21    -1     0     0   502   501  0.000000000E+00  0.000000000E+00  2.602820796E+03  2.602820796E+03  0.000000000E+00  0.00000E+00  9.000E+00
      21    -1     0     0   511   502  0.000000000E+00  0.000000000E+00 -4.477422410E+01  4.477422410E+01  0.000000000E+00  0.00000E+00  9.000E+00
      25     1     1     2     0     0  2.501254693E+02 -1.306665128E+01  1.653760872E+03  1.677284564E+03  1.250000000E+02  0.00000E+00  9.000E+00
      25     1     1     2     0     0 -2.756578093E+02 -6.056542181E-01  8.854708786E+02  9.357730876E+02  1.250000000E+02  0.00000E+00  9.000E+00
      21     1     1     2   511   501  2.553233994E+01  1.367230550E+01  1.881482183E+01  3.453736876E+01  6.307962682E-07  0.00000E+00  9.000E+00
#rwgt            1           1   4.7252077019064538E-002           5      210070           0
</event>
<event>
      5   9999  3.19816E-02  6.71877E+01 -1.00000E+00  1.32129E-01
      21    -1     0     0   502   501  0.000000000E+00  0.000000000E+00  1.775979962E+03  1.775979962E+03  0.000000000E+00  0.00000E+00  9.000E+00
      21    -1     0     0   512   502  0.000000000E+00  0.000000000E+00 -2.546584827E+03  2.546584827E+03  0.000000000E+00  0.00000E+00  9.000E+00
      25     1     1     2     0     0  1.253774533E+03 -7.494407358E+02 -1.461293136E+03  2.069931068E+03  1.250000000E+02  0.00000E+00  9.000E+00
      25     1     1     2     0     0 -1.312288215E+03  7.824610484E+02  1.068689656E+03  1.868707637E+03  1.250000000E+02  0.00000E+00  9.000E+00
      21     1     1     2   512   501  5.851368162E+01 -3.302031254E+01 -3.780013847E+02  3.839260851E+02  5.394796609E-06  0.00000E+00  9.000E+00
#rwgt            1           1   1.4393577225231534E-002           5      210177           0
</event>
<event>
      5   9999  3.19816E-02  5.16667E+01 -1.00000E+00  1.38268E-01
      21    -1     0     0   502   501  0.000000000E+00  0.000000000E+00  9.115179707E+02  9.115179707E+02  0.000000000E+00  0.00000E+00  9.000E+00
      21    -1     0     0   511   502  0.000000000E+00  0.000000000E+00 -7.419539818E+01  7.419539818E+01  0.000000000E+00  0.00000E+00  9.000E+00
      25     1     1     2     0     0 -8.754212559E+01 -2.973424169E+01  2.962134443E+02  3.345372229E+02  1.250000000E+02  0.00000E+00  9.000E+00
      25     1     1     2     0     0  1.030666393E+02 -1.954493027E+01  5.693641535E+02  5.922881695E+02  1.250000000E+02  0.00000E+00  9.000E+00
      21     1     1     2   511   501 -1.552451370E+01  4.927917196E+01 -2.825502536E+01  5.888797647E+01  1.545128989E-06  0.00000E+00  9.000E+00
#rwgt            1           1   2.7701195810384740E-002           5      210471           0
</event>
<event>
      5   9999  3.19816E-02  2.25505E+01 -1.00000E+00  1.62180E-01
      21    -1     0     0   502   501  0.000000000E+00  0.000000000E+00  9.019312085E+01  9.019312085E+01  0.000000000E+00  0.00000E+00  9.000E+00
      21    -1     0     0   512   502  0.000000000E+00  0.000000000E+00 -1.359303952E+03  1.359303952E+03  0.000000000E+00  0.00000E+00  9.000E+00
      25     1     1     2     0     0 -1.774335707E+01  6.055669033E+01 -4.375023013E+00  1.400931129E+02  1.250000000E+02  0.00000E+00  9.000E+00
      25     1     1     2     0     0  1.129837953E+01 -8.216657695E+01 -2.310856970E+02  2.755078930E+02  1.250000000E+02  0.00000E+00  9.000E+00
      21     1     1     2   512   501  6.444977540E+00  2.160988662E+01 -1.033650111E+03  1.033896067E+03  1.525878906E-05  0.00000E+00  9.000E+00
#rwgt            1           1   3.6738162301565222E-002           5      210547           0
</event>
<event>
      5   9999  3.19816E-02  4.57965E+01 -1.00000E+00  1.41287E-01
      21    -1     0     0   511   501  0.000000000E+00  0.000000000E+00  7.597628247E+02  7.597628247E+02  0.000000000E+00  0.00000E+00  9.000E+00
      21    -1     0     0   501   502  0.000000000E+00  0.000000000E+00 -6.249308175E+01  6.249308175E+01  0.000000000E+00  0.00000E+00  9.000E+00
      25     1     1     2     0     0  2.156302870E+01 -1.112928306E+02  1.771350079E+02  2.446484608E+02  1.250000000E+02  0.00000E+00  9.000E+00
      25     1     1     2     0     0 -2.719840862E+01  1.567412556E+02  3.849840121E+02  4.349083400E+02  1.250000000E+02  0.00000E+00  9.000E+00
      21     1     1     2   511   502  5.635379923E+00 -4.544842498E+01  1.351507230E+02  1.426991057E+02  1.907348633E-06  0.00000E+00  9.000E+00
#rwgt            1           1   2.7971414412255768E-002           5      210657           0
</event>
<event>
      5   9999  3.19816E-02  3.61147E+01 -1.00000E+00  1.47647E-01
      21    -1     0     0   512   501  0.000000000E+00  0.000000000E+00  4.069850824E+02  4.069850824E+02  0.000000000E+00  0.00000E+00  9.000E+00
      21    -1     0     0   501   502  0.000000000E+00  0.000000000E+00 -2.481588306E+03  2.481588306E+03  0.000000000E+00  0.00000E+00  9.000E+00
      25     1     1     2     0     0  8.826371501E+02 -3.186312595E+01 -1.589633712E+03  1.822806609E+03  1.250000000E+02  0.00000E+00  9.000E+00
      25     1     1     2     0     0 -8.596381291E+02  5.970757903E+01 -5.210459509E+02  1.014719957E+03  1.250000000E+02  0.00000E+00  9.000E+00
      21     1     1     2   512   502 -2.299902102E+01 -2.784445308E+01  3.607643938E+01  5.104682178E+01  1.581489940E-06  0.00000E+00  9.000E+00
#rwgt            1           1   1.8970427628215769E-002           5      210763           0
</event>
<event>
      5   9999  3.19816E-02  3.60427E+02 -1.00000E+00  1.03066E-01
      21    -1     0     0   502   501  0.000000000E+00  0.000000000E+00  2.226328030E+03  2.226328030E+03  0.000000000E+00  0.00000E+00  9.000E+00
      -2    -1     0     0     0   502  0.000000000E+00  0.000000000E+00 -7.156952851E+02  7.156952851E+02  0.000000000E+00  0.00000E+00  9.000E+00
      25     1     1     2     0     0 -3.853120443E+02 -1.301577236E+02  1.803426270E+03  1.852937591E+03  1.250000000E+02  0.00000E+00  9.000E+00
      25     1     1     2     0     0  4.246872646E+02  4.884277275E+02 -3.095629134E+02  7.282685735E+02  1.250000000E+02  0.00000E+00  9.000E+00
      -2     1     1     2     0   501 -3.937522032E+01 -3.582700039E+02  1.676938815E+01  3.608171505E+02  5.012463580E-06  0.00000E+00  9.000E+00
#rwgt            2           9   6.4694026972459139E-005           5      211079           0
</event>
<event>
      5   9999  3.19816E-02  1.33177E+01 -1.00000E+00  1.82393E-01
      21    -1     0     0   502   501  0.000000000E+00  0.000000000E+00  4.749518613E+02  4.749518613E+02  0.000000000E+00  0.00000E+00  9.000E+00
      21    -1     0     0   501   511  0.000000000E+00  0.000000000E+00 -2.771031938E+02  2.771031938E+02  0.000000000E+00  0.00000E+00  9.000E+00
      25     1     1     2     0     0  8.603100474E+01 -1.922551494E+02  2.904706496E+01  2.466416595E+02  1.250000000E+02  0.00000E+00  9.000E+00
      25     1     1     2     0     0 -9.675067461E+01  2.001576762E+02  2.884447169E+02  3.850313534E+02  1.250000000E+02  0.00000E+00  9.000E+00
      21     1     1     2   502   511  1.071966987E+01 -7.902526805E+00 -1.196431144E+02  1.203820422E+02  1.348699152E-06  0.00000E+00  9.000E+00
#rwgt            1           1   2.8834703253380167E-002           5      211098           0
</event>
<event>
      5   9999  3.19816E-02  1.29767E+02 -1.00000E+00  1.18943E-01
      21    -1     0     0   502   501  0.000000000E+00  0.000000000E+00  5.862127022E+02  5.862127022E+02  0.000000000E+00  0.00000E+00  9.000E+00
      21    -1     0     0   501   512  0.000000000E+00  0.000000000E+00 -1.152690696E+02  1.152690696E+02  0.000000000E+00  0.00000E+00  9.000E+00
      25     1     1     2     0     0  1.277666486E+02  2.600468567E+00  3.140115224E+02  3.613299256E+02  1.250000000E+02  0.00000E+00  9.000E+00
      25     1     1     2     0     0 -5.454613325E+01  1.045358474E+02  8.352924303E+01  1.910632317E+02  1.250000000E+02  0.00000E+00  9.000E+00
      21     1     1     2   502   512 -7.322051534E+01 -1.071363160E+02  7.340286723E+01  1.490886146E+02  1.907348633E-06  0.00000E+00  9.000E+00
#rwgt            1           1   2.7487884108790803E-002           5      211298           0
</event>
<event>
      5   9999  3.19816E-02  1.15797E+02 -1.00000E+00  1.21029E-01
      21    -1     0     0   502   501  0.000000000E+00  0.000000000E+00  9.468261922E+02  9.468261922E+02  0.000000000E+00  0.00000E+00  9.000E+00
      21    -1     0     0   501   511  0.000000000E+00  0.000000000E+00 -2.863693451E+02  2.863693451E+02  0.000000000E+00  0.00000E+00  9.000E+00
      25     1     1     2     0     0 -5.798998304E+01 -3.571151857E+01  7.755973773E+02  7.885521177E+02  1.250000000E+02  0.00000E+00  9.000E+00
      25     1     1     2     0     0  4.632455284E+01 -7.949628870E+01  1.108377299E+02  1.907239536E+02  1.250000000E+02  0.00000E+00  9.000E+00
      21     1     1     2   502   511  1.166543020E+01  1.152078073E+02 -2.259782601E+02  2.539194659E+02  4.672030912E-06  0.00000E+00  9.000E+00
#rwgt            1           1   2.7472009671105538E-002           5      211334           0
</event>
<event>
      5   9999  3.19816E-02  5.23894E+01 -1.00000E+00  1.37929E-01
      21    -1     0     0   502   501  0.000000000E+00  0.000000000E+00  9.128835677E+02  9.128835677E+02  0.000000000E+00  0.00000E+00  9.000E+00
      21    -1     0     0   512   502  0.000000000E+00  0.000000000E+00 -2.066748181E+02  2.066748181E+02  0.000000000E+00  0.00000E+00  9.000E+00
      25     1     1     2     0     0  3.353873087E+02 -4.182257680E+01  8.585341585E+01  3.704451157E+02  1.250000000E+02  0.00000E+00  9.000E+00
      25     1     1     2     0     0 -3.116679779E+02 -4.889707466E+00  6.090689479E+02  6.955219773E+02  1.250000000E+02  0.00000E+00  9.000E+00
      21     1     1     2   512   501 -2.371933077E+01  4.671228427E+01  1.128638597E+01  5.359129278E+01  5.717076687E-07  0.00000E+00  9.000E+00
#rwgt            1           1   3.2564696888899576E-002           5      211396           0
</event>
<event>
      5   9999  3.19816E-02  4.92216E+01 -1.00000E+00  1.39465E-01
      21    -1     0     0   502   501  0.000000000E+00  0.000000000E+00  1.633740574E+03  1.633740574E+03  0.000000000E+00  0.00000E+00  9.000E+00
      21    -1     0     0   501   511  0.000000000E+00  0.000000000E+00 -2.322259816E+02  2.322259816E+02  0.000000000E+00  0.00000E+00  9.000E+00
      25     1     1     2     0     0 -1.250699047E+02  4.912017670E+01  5.851999429E+02  6.133019208E+02  1.250000000E+02  0.00000E+00  9.000E+00
      25     1     1     2     0     0  1.138110132E+02 -1.203546397E+00  1.024696615E+03  1.038548289E+03  1.250000000E+02  0.00000E+00  9.000E+00
      21     1     1     2   502   511  1.125889159E+01 -4.791663031E+01 -2.083819656E+02  2.141163461E+02  6.031565972E-06  0.00000E+00  9.000E+00
#rwgt            1           1   2.7066677845257535E-002           5      211507           0
</event>
<event>
      5   9999  3.19816E-02  2.17930E+02 -1.00000E+00  1.10307E-01
      21    -1     0     0   502   501  0.000000000E+00  0.000000000E+00  1.190121282E+03  1.190121282E+03  0.000000000E+00  0.00000E+00  9.000E+00
      21    -1     0     0   501   512  0.000000000E+00  0.000000000E+00 -1.170078680E+02  1.170078680E+02  0.000000000E+00  0.00000E+00  9.000E+00
      25     1     1     2     0     0 -1.154553948E+02 -6.951807252E+01  8.211214070E+01  2.013209235E+02  1.250000000E+02  0.00000E+00  9.000E+00
      25     1     1     2     0     0 -4.595151865E+01  2.159465021E+02  6.822041776E+02  7.278543630E+02  1.250000000E+02  0.00000E+00  9.000E+00
      21     1     1     2   502   512  1.614069134E+02 -1.464284295E+02  3.087970960E+02  3.779538638E+02  3.814697266E-06  0.00000E+00  9.000E+00
#rwgt            1           1   2.8896818210065612E-002           5      211582           0
</event>
<event>
      5   9999  3.19816E-02  4.75812E+02 -1.00000E+00  9.94676E-02
      21    -1     0     0   502   511  0.000000000E+00  0.000000000E+00  1.272073954E+03  1.272073954E+03  0.000000000E+00  0.00000E+00  9.000E+00
      21    -1     0     0   501   502  0.000000000E+00  0.000000000E+00 -2.699665505E+02  2.699665505E+02  0.000000000E+00  0.00000E+00  9.000E+00
      25     1     1     2     0     0  2.223616246E+01  5.019354102E+01  3.561826164E+02  3.814510384E+02  1.250000000E+02  0.00000E+00  9.000E+00
      25     1     1     2     0     0  4.008160573E+02  1.675776732E+02  1.575038336E+02  4.787152033E+02  1.250000000E+02  0.00000E+00  9.000E+00
      21     1     1     2   501   511 -4.230522197E+02 -2.177712143E+02  4.884209534E+02  6.818742627E+02  0.000000000E+00  0.00000E+00  9.000E+00
#rwgt            2          11   2.6783077204405423E-003           5      211749           0
</event>
<event>
      5   9999  3.19816E-02  5.14573E+01 -1.00000E+00  1.38367E-01
      21    -1     0     0   502   501  0.000000000E+00  0.000000000E+00  4.464183255E+02  4.464183255E+02  0.000000000E+00  0.00000E+00  9.000E+00
      21    -1     0     0   512   502  0.000000000E+00  0.000000000E+00 -6.882599435E+02  6.882599435E+02  0.000000000E+00  0.00000E+00  9.000E+00
      25     1     1     2     0     0 -2.158625317E+02  4.551849476E+02 -2.889067001E+02  5.940387618E+02  1.250000000E+02  0.00000E+00  9.000E+00
      25     1     1     2     0     0  1.718005058E+02 -4.286069149E+02  7.147357099E+01  4.836866472E+02  1.250000000E+02  0.00000E+00  9.000E+00
      21     1     1     2   512   501  4.406202588E+01 -2.657803267E+01 -2.440848889E+01  5.695286011E+01  4.768371582E-07  0.00000E+00  9.000E+00
#rwgt            1           1   2.5246457410818518E-002           5      211769           0
</event>
<event>
      5   9999  3.19816E-02  5.59705E+00 -1.00000E+00  2.30265E-01
      21    -1     0     0   502   511  0.000000000E+00  0.000000000E+00  5.288392674E+02  5.288392674E+02  0.000000000E+00  0.00000E+00  9.000E+00
      21    -1     0     0   501   502  0.000000000E+00  0.000000000E+00 -2.149539195E+02  2.149539195E+02  0.000000000E+00  0.00000E+00  9.000E+00
      25     1     1     2     0     0  1.441807160E+02  1.173937583E+02 -1.198823210E+02  2.540986900E+02  1.250000000E+02  0.00000E+00  9.000E+00
      25     1     1     2     0     0 -1.448822944E+02 -1.118408543E+02  4.240843755E+02  4.785099931E+02  1.250000000E+02  0.00000E+00  9.000E+00
      21     1     1     2   501   511  7.015784666E-01 -5.552904041E+00  9.683293381E+00  1.118450385E+01  1.192092896E-07  0.00000E+00  9.000E+00
#rwgt            1           1   2.8050338075093457E-002           5      211887           0
</event>
<event>
      5   9999  3.19816E-02  4.79694E+01 -1.00000E+00  1.40111E-01
      21    -1     0     0   502   501  0.000000000E+00  0.000000000E+00  5.404454570E+02  5.404454570E+02  0.000000000E+00  0.00000E+00  9.000E+00
      21    -1     0     0   512   502  0.000000000E+00  0.000000000E+00 -3.089890570E+02  3.089890570E+02  0.000000000E+00  0.00000E+00  9.000E+00
      25     1     1     2     0     0  1.989639404E+02  2.973663004E+01  2.748825369E+02  3.628447682E+02  1.250000000E+02  0.00000E+00  9.000E+00
      25     1     1     2     0     0 -2.011600321E+02 -7.765574919E+01  1.475773731E+02  2.896547168E+02  1.250000000E+02  0.00000E+00  9.000E+00
      21     1     1     2   512   501  2.196091728E+00  4.791911915E+01 -1.910035100E+02  1.969350290E+02  4.672030912E-06  0.00000E+00  9.000E+00
#rwgt            1           1   2.3966698166739492E-002           5      212163           0
</event>
<event>
      5   9999  3.19816E-02  1.74702E+02 -1.00000E+00  1.13829E-01
      21    -1     0     0   502   511  0.000000000E+00  0.000000000E+00  1.091642309E+03  1.091642309E+03  0.000000000E+00  0.00000E+00  9.000E+00
      21    -1     0     0   501   502  0.000000000E+00  0.000000000E+00 -8.180305564E+02  8.180305564E+02  0.000000000E+00  0.00000E+00  9.000E+00
      25     1     1     2     0     0  4.104090996E+02 -5.606369098E+02 -8.442630626E+01  7.109867614E+02  1.250000000E+02  0.00000E+00  9.000E+00
      25     1     1     2     0     0 -2.502395075E+02  4.908763919E+02 -2.112583350E+02  6.031869755E+02  1.250000000E+02  0.00000E+00  9.000E+00
      21     1     1     2   501   511 -1.601695922E+02  6.976051786E+01  5.692963934E+02  5.954991281E+02  1.078959322E-05  0.00000E+00  9.000E+00
#rwgt            1           1   3.2022564513812697E-002           5      212263           0
</event>
<event>
      5   9999  3.19816E-02  9.58846E+01 -1.00000E+00  1.24654E-01
      21    -1     0     0   512   501  0.000000000E+00  0.000000000E+00  5.406272057E+01  5.406272057E+01  0.000000000E+00  0.00000E+00  9.000E+00
      21    -1     0     0   501   502  0.000000000E+00  0.000000000E+00 -1.931614687E+03  1.931614687E+03  0.000000000E+00  0.00000E+00  9.000E+00
      25     1     1     2     0     0  6.813267062E+01 -3.696545164E+01 -1.478056140E+03  1.485356340E+03  1.250000000E+02  0.00000E+00  9.000E+00
      25     1     1     2     0     0 -1.026373875E+02  1.264265267E+02 -2.688838189E+02  3.382921933E+02  1.250000000E+02  0.00000E+00  9.000E+00
      21     1     1     2   512   502  3.450471689E+01 -8.946107503E+01 -1.306120078E+02  1.620288740E+02  2.697398305E-06  0.00000E+00  9.000E+00
#rwgt            1           1   2.4068201569168255E-002           5      212336           0
</event>
<event>
      5   9999  3.19816E-02  1.51916E+01 -1.00000E+00  1.76866E-01
      21    -1     0     0   502   511  0.000000000E+00  0.000000000E+00  1.245771013E+03  1.245771013E+03  0.000000000E+00  0.00000E+00  9.000E+00
      21    -1     0     0   501   502  0.000000000E+00  0.000000000E+00 -9.738923118E+01  9.738923118E+01  0.000000000E+00  0.00000E+00  9.000E+00
      25     1     1     2     0     0  7.427117896E+00  2.570979301E+02  2.081775767E+02  3.537193961E+02  1.250000000E+02  0.00000E+00  9.000E+00
      25     1     1     2     0     0  6.769188511E+00 -2.625061992E+02  8.609489609E+02  9.087427798E+02  1.250000000E+02  0.00000E+00  9.000E+00
      21     1     1     2   501   511 -1.419630641E+01  5.408269099E+00  7.925524444E+01  8.069806851E+01  1.348699152E-06  0.00000E+00  9.000E+00
#rwgt            1           1   3.0520127952193700E-002           5      212414           0
</event>
<event>
      5   9999  3.19816E-02  2.64191E+01 -1.00000E+00  1.56976E-01
      21    -1     0     0   502   501  0.000000000E+00  0.000000000E+00  1.108121892E+03  1.108121892E+03  0.000000000E+00  0.00000E+00  9.000E+00
      21    -1     0     0   501   512  0.000000000E+00  0.000000000E+00 -1.282454107E+02  1.282454107E+02  0.000000000E+00  0.00000E+00  9.000E+00
      25     1     1     2     0     0  3.064328922E+02 -1.284821092E+02  2.893129341E+02  4.579691514E+02  1.250000000E+02  0.00000E+00  9.000E+00
      25     1     1     2     0     0 -2.803286684E+02  1.244151736E+02  6.563070653E+02  7.351375801E+02  1.250000000E+02  0.00000E+00  9.000E+00
      21     1     1     2   502   512 -2.610422379E+01  4.066935675E+00  3.425648164E+01  4.326057096E+01  0.000000000E+00  0.00000E+00  9.000E+00
#rwgt            1           1   2.8155046840339201E-002           5      212621           0
</event>
<event>
      5   9999  3.19816E-02  3.64574E+01 -1.00000E+00  1.47383E-01
      21    -1     0     0   502   511  0.000000000E+00  0.000000000E+00  8.531033506E+01  8.531033506E+01  0.000000000E+00  0.00000E+00  9.000E+00
      21    -1     0     0   501   502  0.000000000E+00  0.000000000E+00 -7.988442127E+02  7.988442127E+02  0.000000000E+00  0.00000E+00  9.000E+00
      25     1     1     2     0     0 -9.921649192E+00 -1.380438921E+02 -6.133722214E+02  6.410967457E+02  1.250000000E+02  0.00000E+00  9.000E+00
      25     1     1     2     0     0 -2.509133731E+01  1.278835613E+02 -1.003727840E+02  2.065997972E+02  1.250000000E+02  0.00000E+00  9.000E+00
      21     1     1     2   501   511  3.501298651E+01  1.016033081E+01  2.111277604E-01  3.645800490E+01  9.535142319E-07  0.00000E+00  9.000E+00
#rwgt            1           1   2.5420790113996221E-002           5      212775           0
</event>
<event>
      5   9999  3.19816E-02  3.27563E+01 -1.00000E+00  1.50435E-01
      21    -1     0     0   512   501  0.000000000E+00  0.000000000E+00  1.385027332E+03  1.385027332E+03  0.000000000E+00  0.00000E+00  9.000E+00
      21    -1     0     0   501   502  0.000000000E+00  0.000000000E+00 -3.524541570E+01  3.524541570E+01  0.000000000E+00  0.00000E+00  9.000E+00
      25     1     1     2     0     0 -2.468386374E+01 -1.908640933E+01  1.077623109E+03  1.085297263E+03  1.250000000E+02  0.00000E+00  9.000E+00
      25     1     1     2     0     0 -2.046054343E+00  3.802020883E+01  1.138413952E+02  1.733048928E+02  1.250000000E+02  0.00000E+00  9.000E+00
      21     1     1     2   512   502  2.672991808E+01 -1.893379950E+01  1.583174122E+02  1.616705919E+02  2.697398305E-06  0.00000E+00  9.000E+00
#rwgt            1           1   3.4502544368803283E-002           5      212853           0
</event>
<event>
      5   9999  3.19816E-02  2.98317E+01 -1.00000E+00  1.53210E-01
      21    -1     0     0   502   501  0.000000000E+00  0.000000000E+00  1.930321705E+02  1.930321705E+02  0.000000000E+00  0.00000E+00  9.000E+00
      21    -1     0     0   501   511  0.000000000E+00  0.000000000E+00 -1.289687157E+03  1.289687157E+03  0.000000000E+00  0.00000E+00  9.000E+00
      25     1     1     2     0     0  2.016051242E+02 -3.480691741E+02 -4.299688489E+02  6.019094509E+02  1.250000000E+02  0.00000E+00  9.000E+00
      25     1     1     2     0     0 -2.250554658E+02  3.665085808E+02 -3.653483724E+02  5.779990793E+02  1.250000000E+02  0.00000E+00  9.000E+00
      21     1     1     2   502   511  2.345034159E+01 -1.843940671E+01 -3.013377656E+02  3.028107978E+02  0.000000000E+00  0.00000E+00  9.000E+00
#rwgt            2          11   1.0666527983075953E-003           5      213018           0
</event>
<event>
      5   9999  3.19816E-02  2.16460E+01 -1.00000E+00  1.63584E-01
      21    -1     0     0   502   512  0.000000000E+00  0.000000000E+00  2.538332004E+02  2.538332004E+02  0.000000000E+00  0.00000E+00  9.000E+00
      21    -1     0     0   501   502  0.000000000E+00  0.000000000E+00 -4.425790830E+02  4.425790830E+02  0.000000000E+00  0.00000E+00  9.000E+00
      25     1     1     2     0     0  2.299717384E+02 -2.872141390E+01  1.082219702E+02  2.846909112E+02  1.250000000E+02  0.00000E+00  9.000E+00
      25     1     1     2     0     0 -2.188944973E+02  4.731824354E+01 -2.935484253E+02  3.898069972E+02  1.250000000E+02  0.00000E+00  9.000E+00
      21     1     1     2   501   512 -1.107724116E+01 -1.859682963E+01 -3.419427550E+00  2.191437494E+01  4.500051996E-07  0.00000E+00  9.000E+00
#rwgt            1           1   2.6536293111794847E-002           5      213053           0
</event>
<event>
      5   9999  3.19816E-02  7.16773E+02 -1.00000E+00  9.46027E-02
      21    -1     0     0   502   501  0.000000000E+00  0.000000000E+00  4.293475608E+02  4.293475608E+02  0.000000000E+00  0.00000E+00  9.000E+00
      21    -1     0     0   511   502  0.000000000E+00  0.000000000E+00 -1.593676057E+03  1.593676057E+03  0.000000000E+00  0.00000E+00  9.000E+00
      25     1     1     2     0     0  5.841212624E+02 -2.249577811E+01 -5.754484218E+02  8.297406796E+02  1.250000000E+02  0.00000E+00  9.000E+00
      25     1     1     2     0     0  1.322824250E+02 -5.104433526E-01  9.264490507E+01  2.042228659E+02  1.250000000E+02  0.00000E+00  9.000E+00
      21     1     1     2   511   501 -7.164036873E+02  2.300622146E+01 -6.815249799E+02  9.890600728E+02  7.629394531E-06  0.00000E+00  9.000E+00
#rwgt            2          11   1.6858973747946344E-003           5      213155           0
</event>
<event>
      5   9999  3.19816E-02  2.16040E+02 -1.00000E+00  1.10442E-01
      21    -1     0     0   502   501  0.000000000E+00  0.000000000E+00  1.015494840E+03  1.015494840E+03  0.000000000E+00  0.00000E+00  9.000E+00
      21    -1     0     0   501   512  0.000000000E+00  0.000000000E+00 -2.005831411E+02  2.005831411E+02  0.000000000E+00  0.00000E+00  9.000E+00
      25     1     1     2     0     0 -1.536803776E+02  7.914081720E+01  2.203549377E+02  3.066956569E+02  1.250000000E+02  0.00000E+00  9.000E+00
      25     1     1     2     0     0  1.279432434E+02  1.353611103E+02  6.489291379E+02  6.866047842E+02  1.250000000E+02  0.00000E+00  9.000E+00
      21     1     1     2   502   512  2.573713420E+01 -2.145019275E+02 -5.437237663E+01  2.227775400E+02  2.523185073E-06  0.00000E+00  9.000E+00
#rwgt            1           1   3.2672324817966364E-002           5      213175           0
</event>
<event>
      5   9999  3.19816E-02  2.47779E+01 -1.00000E+00  1.59042E-01
      21    -1     0     0   502   511  0.000000000E+00  0.000000000E+00  1.593306097E+03  1.593306097E+03  0.000000000E+00  0.00000E+00  9.000E+00
      21    -1     0     0   501   502  0.000000000E+00  0.000000000E+00 -4.156469351E+02  4.156469351E+02  0.000000000E+00  0.00000E+00  9.000E+00
      25     1     1     2     0     0  1.770577477E+02 -2.504954438E+02  9.672610734E+01  3.450773148E+02  1.250000000E+02  0.00000E+00  9.000E+00
      25     1     1     2     0     0 -1.561662309E+02  2.371729422E+02 -2.087514000E+02  3.739532634E+02  1.250000000E+02  0.00000E+00  9.000E+00
      21     1     1     2   501   511 -2.089151682E+01  1.332250159E+01  1.289684455E+03  1.289922454E+03  0.000000000E+00  0.00000E+00  9.000E+00
#rwgt            1           1   3.0282715447879180E-002           5      213225           0
</event>
<event>
      5   9999  3.19816E-02  7.82414E+01 -1.00000E+00  1.28818E-01
      21    -1     0     0   502   512  0.000000000E+00  0.000000000E+00  7.592129743E+01  7.592129743E+01  0.000000000E+00  0.00000E+00  9.000E+00
      21    -1     0     0   501   502  0.000000000E+00  0.000000000E+00 -1.534849514E+03  1.534849514E+03  0.000000000E+00  0.00000E+00  9.000E+00
      25     1     1     2     0     0  1.560064344E+02 -1.719849409E+02 -7.708107303E+02  8.146723325E+02  1.250000000E+02  0.00000E+00  9.000E+00
      25     1     1     2     0     0 -2.336593030E+02  1.815636542E+02 -5.732206451E+02  6.570912709E+02  1.250000000E+02  0.00000E+00  9.000E+00
      21     1     1     2   501   512  7.765286863E+01 -9.578713261E+00 -1.148968413E+02  1.390072081E+02  1.348699152E-06  0.00000E+00  9.000E+00
#rwgt            1           1   3.1413055423914968E-002           5      213382           0
</event>
<event>
      5   9999  3.19816E-02  1.94151E+01 -1.00000E+00  1.67440E-01
      21    -1     0     0   502   501  0.000000000E+00  0.000000000E+00  3.126176115E+02  3.126176115E+02  0.000000000E+00  0.00000E+00  9.000E+00
      21    -1     0     0   501   511  0.000000000E+00  0.000000000E+00 -1.227162483E+03  1.227162483E+03  0.000000000E+00  0.00000E+00  9.000E+00
      25     1     1     2     0     0  2.306770742E+02  3.178549560E+02  6.871093025E+01  4.178395356E+02  1.250000000E+02  0.00000E+00  9.000E+00
      25     1     1     2     0     0 -2.499744746E+02 -3.157206576E+02 -5.740147202E+02  7.122391948E+02  1.250000000E+02  0.00000E+00  9.000E+00
      21     1     1     2   502   511  1.929740036E+01 -2.134298361E+00 -4.092410811E+02  4.097013637E+02  5.394796609E-06  0.00000E+00  9.000E+00
#rwgt            1           1   3.0660545099277830E-002           5      213434           0
</event>
<event>
      5   9999  3.19816E-02  8.70125E+00 -1.00000E+00  2.03011E-01
      21    -1     0     0   502   501  0.000000000E+00  0.000000000E+00  4.598010621E+02  4.598010621E+02  0.000000000E+00  0.00000E+00  9.000E+00
      21    -1     0     0   512   502  0.000000000E+00  0.000000000E+00 -9.542830762E+01  9.542830762E+01  0.000000000E+00  0.00000E+00  9.000E+00
      25     1     1     2     0     0  1.084090646E+02 -5.978426102E+01  2.458035691E+02  3.022764922E+02  1.250000000E+02  0.00000E+00  9.000E+00
      25     1     1     2     0     0 -1.012709826E+02  5.480836925E+01  1.460746427E+02  2.241039279E+02  1.250000000E+02  0.00000E+00  9.000E+00
      21     1     1     2   512   501 -7.138082012E+00  4.975891769E+00 -2.750545732E+01  2.884894965E+01  3.371747881E-07  0.00000E+00  9.000E+00
#rwgt            1           1   2.6363407781906406E-002           5      213595           0
</event>
<event>
      5   9999  3.19816E-02  1.20718E+02 -1.00000E+00  1.20258E-01
      21    -1     0     0   502   501  0.000000000E+00  0.000000000E+00  2.609065700E+02  2.609065700E+02  0.000000000E+00  0.00000E+00  9.000E+00
       1    -1     0     0   501     0  0.000000000E+00  0.000000000E+00 -4.605641771E+02  4.605641771E+02  0.000000000E+00  0.00000E+00  9.000E+00
      25     1     1     2     0     0  6.896880865E+01 -1.988482275E+01 -1.993443874E+02  2.459985519E+02  1.250000000E+02  0.00000E+00  9.000E+00
      25     1     1     2     0     0  4.742475346E+01 -1.213530337E+01  2.004264827E+02  2.412304869E+02  1.250000000E+02  0.00000E+00  9.000E+00
       1     1     1     2   502     0 -1.163935621E+02  3.202012613E+01 -2.007397024E+02  2.342417083E+02  3.814697266E-06  0.00000E+00  9.000E+00
#rwgt            1           1   2.5306684134397080E-002           5      213873           0
</event>
<event>
      5   9999  3.19816E-02  8.72534E+01 -1.00000E+00  1.26551E-01
      21    -1     0     0   502   511  0.000000000E+00  0.000000000E+00  5.121981728E+02  5.121981728E+02  0.000000000E+00  0.00000E+00  9.000E+00
      21    -1     0     0   501   502  0.000000000E+00  0.000000000E+00 -1.741322660E+03  1.741322660E+03  0.000000000E+00  0.00000E+00  9.000E+00
      25     1     1     2     0     0  2.763366835E+02  9.861007490E+01 -1.072964810E+03  1.119358921E+03  1.250000000E+02  0.00000E+00  9.000E+00
      25     1     1     2     0     0 -3.350680511E+02 -1.631374721E+02 -5.804339551E+02  7.010085662E+02  1.250000000E+02  0.00000E+00  9.000E+00
      21     1     1     2   501   511  5.873136758E+01  6.452739721E+01  4.242742777E+02  4.331533461E+02  9.344061824E-06  0.00000E+00  9.000E+00
#rwgt            1           1   2.5290192459037703E-002           5      213945           0
</event>
<event>
      5   9999  3.19816E-02  1.22094E+02 -1.00000E+00  1.20050E-01
      21    -1     0     0   502   501  0.000000000E+00  0.000000000E+00  1.303857425E+03  1.303857425E+03  0.000000000E+00  0.00000E+00  9.000E+00
      -4    -1     0     0     0   502  0.000000000E+00  0.000000000E+00 -2.953607581E+02  2.953607581E+02  0.000000000E+00  0.00000E+00  9.000E+00
      25     1     1     2     0     0 -2.644139925E+01  1.000006546E+02  2.702807505E+02  3.152395321E+02  1.250000000E+02  0.00000E+00  9.000E+00
      25     1     1     2     0     0 -9.418683015E+01 -8.113549600E+01  9.892458524E+02  1.004831570E+03  1.250000000E+02  0.00000E+00  9.000E+00
      -4     1     1     2     0   501  1.206282294E+02 -1.886515864E+01 -2.510299361E+02  2.791470809E+02  5.394796609E-06  0.00000E+00  9.000E+00
#rwgt            2           7   5.2609263769012253E-004           5      214029           0
</event>
<event>
      5   9999  3.19816E-02  7.15033E+01 -1.00000E+00  1.30755E-01
      21    -1     0     0   511   501  0.000000000E+00  0.000000000E+00  1.259828923E+03  1.259828923E+03  0.000000000E+00  0.00000E+00  9.000E+00
      21    -1     0     0   501   502  0.000000000E+00  0.000000000E+00 -1.638528567E+02  1.638528567E+02  0.000000000E+00  0.00000E+00  9.000E+00
      25     1     1     2     0     0  2.825935406E+02 -1.741676031E+02  3.458123277E+02  4.953833153E+02  1.250000000E+02  0.00000E+00  9.000E+00
      25     1     1     2     0     0 -3.448911787E+02  2.092635063E+02  4.395688045E+02  6.095792599E+02  1.250000000E+02  0.00000E+00  9.000E+00
      21     1     1     2   511   502  6.229763813E+01 -3.509590319E+01  3.105949338E+02  3.187192041E+02  3.814697266E-06  0.00000E+00  9.000E+00
#rwgt            1           1   3.2042041051622137E-002           5      214093           0
</event>
<event>
      5   9999  3.19816E-02  1.81599E+01 -1.00000E+00  1.69903E-01
       2    -1     0     0   502     0  0.000000000E+00  0.000000000E+00  1.449399261E+03  1.449399261E+03  0.000000000E+00  0.00000E+00  9.000E+00
      21    -1     0     0   501   502  0.000000000E+00  0.000000000E+00 -4.835456316E+02  4.835456316E+02  0.000000000E+00  0.00000E+00  9.000E+00
      25     1     1     2     0     0  5.443769992E+00 -1.143325999E+02  2.288927949E+02  2.848130784E+02  1.250000000E+02  0.00000E+00  9.000E+00
      25     1     1     2     0     0 -2.244734164E+01  1.207091847E+02 -4.386665424E+02  4.723641877E+02  1.250000000E+02  0.00000E+00  9.000E+00
       2     1     1     2   501     0  1.700357165E+01 -6.376584757E+00  1.175627377E+03  1.175767627E+03  0.000000000E+00  0.00000E+00  9.000E+00
#rwgt            2          18   9.9937481752849166E-004           5      214255           0
</event>
<event>
      5   9999  3.19816E-02  3.32157E+01 -1.00000E+00  1.50030E-01
      21    -1     0     0   502   501  0.000000000E+00  0.000000000E+00  1.627532451E+03  1.627532451E+03  0.000000000E+00  0.00000E+00  9.000E+00
      21    -1     0     0   511   502  0.000000000E+00  0.000000000E+00 -1.473761002E+02  1.473761002E+02  0.000000000E+00  0.00000E+00  9.000E+00
      25     1     1     2     0     0  2.282133740E+02 -2.508378470E+02  2.479897221E+02  4.383205127E+02  1.250000000E+02  0.00000E+00  9.000E+00
      25     1     1     2     0     0 -2.112713454E+02  2.222677140E+02  1.253901291E+03  1.296893198E+03  1.250000000E+02  0.00000E+00  9.000E+00
      21     1     1     2   511   501 -1.694202857E+01  2.857013304E+01 -2.173466251E+01  3.969484083E+01  1.168007728E-06  0.00000E+00  9.000E+00
#rwgt            1           1   2.7453480843969147E-002           5      214289           0
</event>
<event>
      5   9999  3.19816E-02  4.69707E+01 -1.00000E+00  1.40642E-01
       2    -1     0     0   502     0  0.000000000E+00  0.000000000E+00  1.336695349E+03  1.336695349E+03  0.000000000E+00  0.00000E+00  9.000E+00
      21    -1     0     0   501   502  0.000000000E+00  0.000000000E+00 -1.122706088E+02  1.122706088E+02  0.000000000E+00  0.00000E+00  9.000E+00
      25     1     1     2     0     0 -1.341052432E+02 -2.882404631E+02  4.088019416E+02  5.327389682E+02  1.250000000E+02  0.00000E+00  9.000E+00
      25     1     1     2     0     0  9.835734559E+01  2.577719189E+02  4.200113900E+02  5.178369409E+02  1.250000000E+02  0.00000E+00  9.000E+00
       2     1     1     2   501     0  3.574789760E+01  3.046854422E+01  3.956114084E+02  3.983900487E+02  0.000000000E+00  0.00000E+00  9.000E+00
#rwgt            1           1   2.0164721965388061E-002           5      214430           0
</event>
<event>
      5   9999  3.19816E-02  2.11078E+02 -1.00000E+00  1.10802E-01
      21    -1     0     0   502   501  0.000000000E+00  0.000000000E+00  3.527443276E+03  3.527443276E+03  0.000000000E+00  0.00000E+00  9.000E+00
      21    -1     0     0   511   502  0.000000000E+00  0.000000000E+00 -2.976593794E+02  2.976593794E+02  0.000000000E+00  0.00000E+00  9.000E+00
      25     1     1     2     0     0 -2.881838433E+02  5.776522969E+02  5.961939888E+02  8.875834473E+02  1.250000000E+02  0.00000E+00  9.000E+00
      25     1     1     2     0     0  7.711035843E+01 -5.789587574E+02  2.658686726E+03  2.724954928E+03  1.250000000E+02  0.00000E+00  9.000E+00
      21     1     1     2   511   501  2.110734848E+02  1.306460449E+00 -2.509681872E+01  2.125642800E+02  3.600041597E-06  0.00000E+00  9.000E+00
#rwgt            1           1   4.0974033896133896E-002           5      214507           0
</event>
<event>
      5   9999  3.19816E-02  7.18290E+01 -1.00000E+00  1.30656E-01
      21    -1     0     0   512   501  0.000000000E+00  0.000000000E+00  1.077316246E+03  1.077316246E+03  0.000000000E+00  0.00000E+00  9.000E+00
      21    -1     0     0   501   502  0.000000000E+00  0.000000000E+00 -1.911352301E+02  1.911352301E+02  0.000000000E+00  0.00000E+00  9.000E+00
      25     1     1     2     0     0  5.867913842E+01  2.969026040E+02  6.853160089E+01  3.345384550E+02  1.250000000E+02  0.00000E+00  9.000E+00
      25     1     1     2     0     0 -1.295246866E+02 -2.850570669E+02  4.669619475E+02  5.759449941E+02  1.250000000E+02  0.00000E+00  9.000E+00
      21     1     1     2   512   502  7.084554817E+01 -1.184553712E+01  3.506874676E+02  3.579680271E+02  3.814697266E-06  0.00000E+00  9.000E+00
#rwgt            1           1   3.3793532511204927E-002           5      214567           0
</event>
<event>
      5   9999  3.19816E-02  7.38468E+01 -1.00000E+00  1.30055E-01
      21    -1     0     0   502   501  0.000000000E+00  0.000000000E+00  1.702057537E+02  1.702057537E+02  0.000000000E+00  0.00000E+00  9.000E+00
       1    -1     0     0   501     0  0.000000000E+00  0.000000000E+00 -2.077449304E+03  2.077449304E+03  0.000000000E+00  0.00000E+00  9.000E+00
      25     1     1     2     0     0  1.339149864E+02 -4.005976201E+02 -5.209378796E+02  6.822118082E+02  1.250000000E+02  0.00000E+00  9.000E+00
      25     1     1     2     0     0 -6.244240035E+01  4.191724919E+02 -4.659743691E+02  6.421539877E+02  1.250000000E+02  0.00000E+00  9.000E+00
       1     1     1     2   502     0 -7.147258600E+01 -1.857487176E+01 -9.203313014E+02  9.232892617E+02  1.525878906E-05  0.00000E+00  9.000E+00
#rwgt            1           1   2.9842493212473748E-002           5      214638           0
</event>
<event>
      5   9999  3.19816E-02  5.13590E+01 -1.00000E+00  1.38414E-01
      -1    -1     0     0     0   501  0.000000000E+00  0.000000000E+00  1.445396457E+03  1.445396457E+03  0.000000000E+00  0.00000E+00  9.000E+00
      21    -1     0     0   501   502  0.000000000E+00  0.000000000E+00 -1.268649743E+03  1.268649743E+03  0.000000000E+00  0.00000E+00  9.000E+00
      25     1     1     2     0     0 -5.899370345E+01 -2.379618270E+02 -2.662081355E+02  3.828809992E+02  1.250000000E+02  0.00000E+00  9.000E+00
      25     1     1     2     0     0  7.674660575E+00  2.399877637E+02 -9.242089956E+02  9.630370163E+02  1.250000000E+02  0.00000E+00  9.000E+00
      -1     1     1     2     0   502  5.131904287E+01 -2.025936699E+00  1.367163846E+03  1.368128185E+03  0.000000000E+00  0.00000E+00  9.000E+00
#rwgt            1           1   2.8789005381738501E-002           5      214697           0
</event>
<event>
      5   9999  3.19816E-02  4.46760E+01 -1.00000E+00  1.41924E-01
      21    -1     0     0   511   501  0.000000000E+00  0.000000000E+00  9.109884813E+01  9.109884813E+01  0.000000000E+00  0.00000E+00  9.000E+00
      21    -1     0     0   501   502  0.000000000E+00  0.000000000E+00 -1.536803671E+03  1.536803671E+03  0.000000000E+00  0.00000E+00  9.000E+00
      25     1     1     2     0     0  1.366208152E+02 -2.564885404E+02 -4.262563821E+02  5.308211769E+02  1.250000000E+02  0.00000E+00  9.000E+00
      25     1     1     2     0     0 -1.278193366E+02  3.002889878E+02 -9.668311801E+02  1.028055830E+03  1.250000000E+02  0.00000E+00  9.000E+00
      21     1     1     2   511   502 -8.801478539E+00 -4.380044732E+01 -5.261726056E+01  6.902551209E+01  6.743495762E-07  0.00000E+00  9.000E+00
#rwgt            1           1   3.4971627710434626E-002           5      214806           0
</event>
<event>
      5   9999  3.19816E-02  6.43687E+01 -1.00000E+00  1.33092E-01
      -1    -1     0     0     0   501  0.000000000E+00  0.000000000E+00  1.794222128E+02  1.794222128E+02  0.000000000E+00  0.00000E+00  9.000E+00
      21    -1     0     0   501   502  0.000000000E+00  0.000000000E+00 -3.541396953E+02  3.541396953E+02  0.000000000E+00  0.00000E+00  9.000E+00
      25     1     1     2     0     0 -3.108897684E+01  3.494812964E+01  9.535346909E+01  1.640279864E+02  1.250000000E+02  0.00000E+00  9.000E+00
      25     1     1     2     0     0 -3.219450256E+01 -2.317805804E+01 -2.753127059E+02  3.049521182E+02  1.250000000E+02  0.00000E+00  9.000E+00
      -1     1     1     2     0   502  6.328347940E+01 -1.177007161E+01  5.241754309E+00  6.458180346E+01  1.309946834E-06  0.00000E+00  9.000E+00
#rwgt            1           1   2.6925039124950086E-002           5      214892           0
</event>
<event>
      5   9999  3.19816E-02  1.17072E+01 -1.00000E+00  1.88163E-01
      21    -1     0     0   502   501  0.000000000E+00  0.000000000E+00  8.926647574E+02  8.926647574E+02  0.000000000E+00  0.00000E+00  9.000E+00
       3    -1     0     0   501     0  0.000000000E+00  0.000000000E+00 -1.015455005E+03  1.015455005E+03  0.000000000E+00  0.00000E+00  9.000E+00
      25     1     1     2     0     0 -3.042049227E+02  1.801082438E+02  2.243426311E+02  4.369602163E+02  1.250000000E+02  0.00000E+00  9.000E+00
      25     1     1     2     0     0  2.934621640E+02 -1.754550585E+02  5.030157895E+02  6.209302729E+02  1.250000000E+02  0.00000E+00  9.000E+00
       3     1     1     2   502     0  1.074275866E+01 -4.653185245E+00 -8.501486680E+02  8.502292730E+02  0.000000000E+00  0.00000E+00  9.000E+00
#rwgt            1           1   2.7545342446556639E-002           5      214985           0
</event>
<event>
      5   9999  3.19816E-02  3.50504E+02 -1.00000E+00  1.03442E-01
      21    -1     0     0   502   501  0.000000000E+00  0.000000000E+00  7.297083424E+02  7.297083424E+02  0.000000000E+00  0.00000E+00  9.000E+00
      21    -1     0     0   501   511  0.000000000E+00  0.000000000E+00 -6.872533790E+02  6.872533790E+02  0.000000000E+00  0.00000E+00  9.000E+00
      25     1     1     2     0     0  1.813932444E+02  3.094428218E+02  9.171466430E+01  3.907620104E+02  1.250000000E+02  0.00000E+00  9.000E+00
      25     1     1     2     0     0 -2.345154762E+02  3.701176308E+01  3.842888505E+02  4.686899826E+02  1.250000000E+02  0.00000E+00  9.000E+00
      21     1     1     2   502   511  5.312223177E+01 -3.464545849E+02 -4.335485513E+02  5.575097284E+02  1.321449896E-05  0.00000E+00  9.000E+00
#rwgt            2          11   3.8368945327026237E-003           5      215310           0
</event>
<event>
      5   9999  3.19816E-02  2.07021E+02 -1.00000E+00  1.11105E-01
      21    -1     0     0   502   501  0.000000000E+00  0.000000000E+00  1.858781412E+02  1.858781412E+02  0.000000000E+00  0.00000E+00  9.000E+00
       1    -1     0     0   501     0  0.000000000E+00  0.000000000E+00 -1.428530330E+03  1.428530330E+03  0.000000000E+00  0.00000E+00  9.000E+00
      25     1     1     2     0     0  5.133604706E+00 -3.157414749E+01 -3.346220828E+02  3.586366113E+02  1.250000000E+02  0.00000E+00  9.000E+00
      25     1     1     2     0     0  7.021067590E+01  2.243973180E+02  5.401044475E+01  2.717090788E+02  1.250000000E+02  0.00000E+00  9.000E+00
       1     1     1     2   502     0 -7.534428061E+01 -1.928231705E+02 -9.620405507E+02  9.840627809E+02  1.868812365E-05  0.00000E+00  9.000E+00
#rwgt            1           1   2.4362352762834438E-002           5      215330           0
</event>
<event>
      5   9999  3.19816E-02  1.54860E+02 -1.00000E+00  1.15847E-01
      21    -1     0     0   502   511  0.000000000E+00  0.000000000E+00  1.370099600E+03  1.370099600E+03  0.000000000E+00  0.00000E+00  9.000E+00
      21    -1     0     0   501   502  0.000000000E+00  0.000000000E+00 -5.107916408E+02  5.107916408E+02  0.000000000E+00  0.00000E+00  9.000E+00
      25     1     1     2     0     0  3.544193820E+02 -3.916572182E+02  5.811746438E+01  5.459039426E+02  1.250000000E+02  0.00000E+00  9.000E+00
      25     1     1     2     0     0 -4.785604538E+02  2.990790599E+02  6.380864414E+01  5.815195054E+02  1.250000000E+02  0.00000E+00  9.000E+00
      21     1     1     2   501   511  1.241410718E+02  9.257815831E+01  7.373818505E+02  7.534677926E+02  1.078959322E-05  0.00000E+00  9.000E+00
#rwgt            1           1   2.9876084408626175E-002           5      215375           0
</event>
<event>
      5   9999  3.19816E-02  2.09820E+02 -1.00000E+00  1.10895E-01
      21    -1     0     0   502   501  0.000000000E+00  0.000000000E+00  5.725569883E+01  5.725569883E+01  0.000000000E+00  0.00000E+00  9.000E+00
       2    -1     0     0   501     0  0.000000000E+00  0.000000000E+00 -4.484688634E+03  4.484688634E+03  0.000000000E+00  0.00000E+00  9.000E+00
      25     1     1     2     0     0 -7.460319989E+01 -3.371776928E+02 -7.570874098E+02  8.414634752E+02  1.250000000E+02  0.00000E+00  9.000E+00
      25     1     1     2     0     0 -9.226229240E+01  2.099756335E+02 -1.972280229E+03  1.989501545E+03  1.250000000E+02  0.00000E+00  9.000E+00
       2     1     1     2   502     0  1.668654923E+02  1.272020593E+02 -1.698065296E+03  1.710979312E+03  0.000000000E+00  0.00000E+00  9.000E+00
#rwgt            1           1   5.5386044285375573E-002           5      215458           0
</event>
<event>
      5   9999  3.19816E-02  2.30831E+02 -1.00000E+00  1.09427E-01
      21    -1     0     0   502   511  0.000000000E+00  0.000000000E+00  1.424461532E+03  1.424461532E+03  0.000000000E+00  0.00000E+00  9.000E+00
      21    -1     0     0   501   502  0.000000000E+00  0.000000000E+00 -7.835241720E+02  7.835241720E+02  0.000000000E+00  0.00000E+00  9.000E+00
      25     1     1     2     0     0  6.266624803E+02  3.908681469E+02 -3.113846541E+02  8.112146297E+02  1.250000000E+02  0.00000E+00  9.000E+00
      25     1     1     2     0     0 -4.869510869E+02 -5.746173556E+02  5.804833549E+02  9.591102083E+02  1.250000000E+02  0.00000E+00  9.000E+00
      21     1     1     2   501   511 -1.397113934E+02  1.837492087E+02  3.718386592E+02  4.376608660E+02  5.394796609E-06  0.00000E+00  9.000E+00
#rwgt            2          11   4.3072328700563562E-003           5      215508           0
</event>
<event>
      5   9999  3.19816E-02  8.34698E+01 -1.00000E+00  1.27463E-01
      21    -1     0     0   502   501  0.000000000E+00  0.000000000E+00  7.130456021E+01  7.130456021E+01  0.000000000E+00  0.00000E+00  9.000E+00
       2    -1     0     0   501     0  0.000000000E+00  0.000000000E+00 -1.102643886E+03  1.102643886E+03  0.000000000E+00  0.00000E+00  9.000E+00
      25     1     1     2     0     0  1.253562700E+02  1.425338345E+02 -3.071570740E+02  3.821001918E+02  1.250000000E+02  0.00000E+00  9.000E+00
      25     1     1     2     0     0 -5.809219061E+01 -1.919580315E+02 -5.152653301E+02  5.668738386E+02  1.250000000E+02  0.00000E+00  9.000E+00
       2     1     1     2   502     0 -6.726407943E+01  4.942419699E+01 -2.089169212E+02  2.249744155E+02  0.000000000E+00  0.00000E+00  9.000E+00
#rwgt            1           1   3.1146715364868252E-002           5      215528           0
</event>
<event>
      5   9999  3.19816E-02  1.49851E+01 -1.00000E+00  1.77424E-01
      21    -1     0     0   502   501  0.000000000E+00  0.000000000E+00  3.765399411E+02  3.765399411E+02  0.000000000E+00  0.00000E+00  9.000E+00
      21    -1     0     0   501   511  0.000000000E+00  0.000000000E+00 -7.609290871E+02  7.609290871E+02  0.000000000E+00  0.00000E+00  9.000E+00
      25     1     1     2     0     0  4.319232703E+02  1.021253765E+02 -2.849917995E+02  5.420633079E+02  1.250000000E+02  0.00000E+00  9.000E+00
      25     1     1     2     0     0 -4.374289803E+02 -8.818834998E+01  3.072371388E+01  4.644246381E+02  1.250000000E+02  0.00000E+00  9.000E+00
      21     1     1     2   502   511  5.505709942E+00 -1.393702654E+01 -1.301210604E+02  1.309810823E+02  1.907348633E-06  0.00000E+00  9.000E+00
#rwgt            1           1   2.7642078240552440E-002           5      215614           0
</event>
<event>
      5   9999  3.19816E-02  3.03160E+01 -1.00000E+00  1.52724E-01
      21    -1     0     0   502   501  0.000000000E+00  0.000000000E+00  1.199943780E+03  1.199943780E+03  0.000000000E+00  0.00000E+00  9.000E+00
      21    -1     0     0   501   512  0.000000000E+00  0.000000000E+00 -4.111677871E+02  4.111677871E+02  0.000000000E+00  0.00000E+00  9.000E+00
      25     1     1     2     0     0  3.026615019E+02  1.553044847E+01  5.574364639E+02  6.466881712E+02  1.250000000E+02  0.00000E+00  9.000E+00
      25     1     1     2     0     0 -2.994474084E+02  1.461468395E+01  5.529989117E+02  6.413385500E+02  1.250000000E+02  0.00000E+00  9.000E+00
      21     1     1     2   502   512 -3.214093463E+00 -3.014513242E+01 -3.216593825E+02  3.230848461E+02  6.607249480E-06  0.00000E+00  9.000E+00
#rwgt            1           1   2.0525517412313506E-002           5      215730           0
</event>
<event>
      5   9999  3.19816E-02  4.25005E+01 -1.00000E+00  1.43226E-01
      21    -1     0     0   502   501  0.000000000E+00  0.000000000E+00  1.727704754E+02  1.727704754E+02  0.000000000E+00  0.00000E+00  9.000E+00
      21    -1     0     0   511   502  0.000000000E+00  0.000000000E+00 -3.871190476E+02  3.871190476E+02  0.000000000E+00  0.00000E+00  9.000E+00
      25     1     1     2     0     0  7.074595925E+01 -1.051708980E+02  6.850216468E+01  1.907444760E+02  1.250000000E+02  0.00000E+00  9.000E+00
      25     1     1     2     0     0 -1.098094487E+02  8.842771892E+01 -2.593809847E+02  3.205948716E+02  1.250000000E+02  0.00000E+00  9.000E+00
      21     1     1     2   511   501  3.906348946E+01  1.674317912E+01 -2.346975218E+01  4.855017532E+01  9.536743164E-07  0.00000E+00  9.000E+00
#rwgt            1           1   3.1046460744848129E-002           5      215879           0
</event>
<event>
      5   9999  3.19816E-02  4.03156E+02 -1.00000E+00  1.01583E-01
      21    -1     0     0   502   501  0.000000000E+00  0.000000000E+00  7.669222174E+02  7.669222174E+02  0.000000000E+00  0.00000E+00  9.000E+00
       5    -1     0     0   501     0  0.000000000E+00  0.000000000E+00 -2.892039288E+02  2.892039288E+02  0.000000000E+00  0.00000E+00  9.000E+00
      25     1     1     2     0     0  1.316243142E+02 -1.858224461E+02  1.844132147E+02  3.185720881E+02  1.250000000E+02  0.00000E+00  9.000E+00
      25     1     1     2     0     0 -1.083626083E+02 -2.166616193E+02  9.901069101E+01  2.900221183E+02  1.250000000E+02  0.00000E+00  9.000E+00
       5     1     1     2   502     0 -2.326170587E+01  4.024840655E+02  1.942943830E+02  4.475319398E+02  7.136645101E-06  0.00000E+00  9.000E+00
#rwgt            2          16   2.5443560599578112E-005           5      216063           0
</event>
<event>
      5   9999  3.19816E-02  3.12006E+01 -1.00000E+00  1.51865E-01
      21    -1     0     0   511   501  0.000000000E+00  0.000000000E+00  3.995172104E+02  3.995172104E+02  0.000000000E+00  0.00000E+00  9.000E+00
      21    -1     0     0   501   502  0.000000000E+00  0.000000000E+00 -1.461721956E+03  1.461721956E+03  0.000000000E+00  0.00000E+00  9.000E+00
      25     1     1     2     0     0  1.173744152E+02  4.464475767E+02 -2.512097093E+02  5.402069141E+02  1.250000000E+02  0.00000E+00  9.000E+00
      25     1     1     2     0     0 -1.185813038E+02 -4.776248646E+02 -1.004229525E+03  1.125295062E+03  1.250000000E+02  0.00000E+00  9.000E+00
      21     1     1     2   511   502  1.206888562E+00  3.117728794E+01  1.932344891E+02  1.957371902E+02  3.814697266E-06  0.00000E+00  9.000E+00
#rwgt            1           1   3.0556996684765608E-002           5      216097           0
</event>
<event>
      5   9999  3.19816E-02  2.50413E+01 -1.00000E+00  1.58697E-01
      21    -1     0     0   502   501  0.000000000E+00  0.000000000E+00  3.925686631E+02  3.925686631E+02  0.000000000E+00  0.00000E+00  9.000E+00
      21    -1     0     0   501   512  0.000000000E+00  0.000000000E+00 -1.402000317E+03  1.402000317E+03  0.000000000E+00  0.00000E+00  9.000E+00
      25     1     1     2     0     0 -3.669020127E+02 -1.671247101E+02 -1.185015374E+02  4.384237334E+02  1.250000000E+02  0.00000E+00  9.000E+00
      25     1     1     2     0     0  3.663097490E+02  1.921590529E+02  3.159571441E+01  4.332796129E+02  1.250000000E+02  0.00000E+00  9.000E+00
      21     1     1     2   502   512  5.922636955E-01 -2.503434277E+01 -9.225258306E+02  9.228656334E+02  1.078959322E-05  0.00000E+00  9.000E+00
#rwgt            1           1   2.7085909893418112E-002           5      216261           0
</event>
<event>
      5   9999  3.19816E-02  2.58764E+01 -1.00000E+00  1.57638E-01
      21    -1     0     0   511   501  0.000000000E+00  0.000000000E+00  1.315631060E+03  1.315631060E+03  0.000000000E+00  0.00000E+00  9.000E+00
      21    -1     0     0   501   502  0.000000000E+00  0.000000000E+00 -1.779264912E+02  1.779264912E+02  0.000000000E+00  0.00000E+00  9.000E+00
      25     1     1     2     0     0 -1.766074554E+02 -5.654689571E+01  1.074104890E+03  1.097139034E+03  1.250000000E+02  0.00000E+00  9.000E+00
      25     1     1     2     0     0  1.543522702E+02  6.974898613E+01 -9.839464868E+01  2.323705043E+02  1.250000000E+02  0.00000E+00  9.000E+00
      21     1     1     2   511   502  2.225518523E+01 -1.320209042E+01  1.619943277E+02  1.640480133E+02  1.907348633E-06  0.00000E+00  9.000E+00
#rwgt            1           1   2.7519036991250998E-002           5      216463           0
</event>
<event>
      5   9999  3.27145E-02  5.27425E+01 -1.00000E+00  1.37765E-01
      21    -1     0     0   502   512  0.000000000E+00  0.000000000E+00  6.234539579E+02  6.234539579E+02  0.000000000E+00  0.00000E+00  9.000E+00
      21    -1     0     0   501   502  0.000000000E+00  0.000000000E+00 -6.913926070E+02  6.913926070E+02  0.000000000E+00  0.00000E+00  9.000E+00
      25     1     1     2     0     0  5.201703582E+02  3.438180128E+02  3.555309946E+01  6.369278219E+02  1.250000000E+02  0.00000E+00  9.000E+00
      25     1     1     2     0     0 -4.694536932E+02 -3.293407906E+02 -1.519745454E+02  6.062783097E+02  1.250000000E+02  0.00000E+00  9.000E+00
      21     1     1     2   501   512 -5.071666504E+01 -1.447722217E+01  4.848279693E+01  7.164043323E+01  1.651812370E-06  0.00000E+00  9.000E+00
#rwgt            1           1   3.2813662035706299E-002           5      216559           0
</event>
<event>
      5   9999  3.19816E-02  5.56204E+01 -1.00000E+00  1.36486E-01
      21    -1     0     0   502   501  0.000000000E+00  0.000000000E+00  2.943830581E+03  2.943830581E+03  0.000000000E+00  0.00000E+00  9.000E+00
      21    -1     0     0   511   502  0.000000000E+00  0.000000000E+00 -1.208184590E+02  1.208184590E+02  0.000000000E+00  0.00000E+00  9.000E+00
      25     1     1     2     0     0  1.752076032E+02 -2.181903702E+02  7.585534071E+02  8.181277488E+02  1.250000000E+02  0.00000E+00  9.000E+00
      25     1     1     2     0     0 -2.149418265E+02  2.571110693E+02  2.130421970E+03  2.160238150E+03  1.250000000E+02  0.00000E+00  9.000E+00
      21     1     1     2   511   501  3.973422322E+01 -3.892069911E+01 -6.596325602E+01  8.628314122E+01  5.722045898E-06  0.00000E+00  9.000E+00
#rwgt            1           1   1.5809597514399750E-002           5      216674           0
</event>
<event>
      5   9999  3.19816E-02  2.17109E+02 -1.00000E+00  1.10366E-01
      21    -1     0     0   512   501  0.000000000E+00  0.000000000E+00  4.676623079E+02  4.676623079E+02  0.000000000E+00  0.00000E+00  9.000E+00
      21    -1     0     0   501   502  0.000000000E+00  0.000000000E+00 -4.386301069E+02  4.386301069E+02  0.000000000E+00  0.00000E+00  9.000E+00
      25     1     1     2     0     0  6.942315528E+01 -1.128466480E+01  1.776231691E+02  2.283022303E+02  1.250000000E+02  0.00000E+00  9.000E+00
      25     1     1     2     0     0 -3.754892672E+01 -2.034717019E+02 -3.202322617E+02  4.012285593E+02  1.250000000E+02  0.00000E+00  9.000E+00
      21     1     1     2   512   502 -3.187422856E+01  2.147563667E+02  1.716412936E+02  2.767616252E+02  2.697398305E-06  0.00000E+00  9.000E+00
#rwgt            1           1   2.3238741590872268E-002           5      216747           0
</event>
<event>
      5   9999  3.19816E-02  1.85677E+02 -1.00000E+00  1.12836E-01
      21    -1     0     0   502   501  0.000000000E+00  0.000000000E+00  2.214963867E+03  2.214963867E+03  0.000000000E+00  0.00000E+00  9.000E+00
      21    -1     0     0   511   502  0.000000000E+00  0.000000000E+00 -1.142274154E+02  1.142274154E+02  0.000000000E+00  0.00000E+00  9.000E+00
      25     1     1     2     0     0 -4.683379062E+01  1.882973046E+02  4.677224032E+02  5.215731256E+02  1.250000000E+02  0.00000E+00  9.000E+00
      25     1     1     2     0     0 -1.275851369E+02 -2.519695362E+02  1.586390651E+03  1.616176634E+03  1.250000000E+02  0.00000E+00  9.000E+00
      21     1     1     2   511   501  1.744189275E+02  6.367223167E+01  4.662339678E+01  1.914415224E+02  5.001110307E-06  0.00000E+00  9.000E+00
#rwgt            2          11   1.7904430728270766E-002           5      216836           0
</event>
<event>
      5   9999  3.19816E-02  2.54937E+02 -1.00000E+00  1.07941E-01
      21    -1     0     0   502   501  0.000000000E+00  0.000000000E+00  7.731408059E+02  7.731408059E+02  0.000000000E+00  0.00000E+00  9.000E+00
       2    -1     0     0   501     0  0.000000000E+00  0.000000000E+00 -1.539564034E+03  1.539564034E+03  0.000000000E+00  0.00000E+00  9.000E+00
      25     1     1     2     0     0  4.041553710E+01 -8.183362762E+01 -4.089464745E+02  4.372555057E+02  1.250000000E+02  0.00000E+00  9.000E+00
      25     1     1     2     0     0 -2.425596805E+02 -7.350622968E+01  7.172415231E+02  7.709077551E+02  1.250000000E+02  0.00000E+00  9.000E+00
       2     1     1     2   502     0  2.021441434E+02  1.553398573E+02 -1.074718277E+03  1.104541579E+03  1.525878906E-05  0.00000E+00  9.000E+00
#rwgt            1           1   2.9976546973546701E-002           5      216886           0
</event>
<event>
      5   9999  3.19816E-02  2.82526E+01 -1.00000E+00  1.54872E-01
      21    -1     0     0   502   511  0.000000000E+00  0.000000000E+00  3.736144472E+02  3.736144472E+02  0.000000000E+00  0.00000E+00  9.000E+00
      21    -1     0     0   501   502  0.000000000E+00  0.000000000E+00 -1.272532787E+03  1.272532787E+03  0.000000000E+00  0.00000E+00  9.000E+00
      25     1     1     2     0     0  3.651438098E+02  5.154700001E+02 -3.702389763E+02  7.427928530E+02  1.250000000E+02  0.00000E+00  9.000E+00
      25     1     1     2     0     0 -3.371448956E+02 -5.192472295E+02 -5.716843065E+02  8.518992383E+02  1.250000000E+02  0.00000E+00  9.000E+00
      21     1     1     2   501   511 -2.799891414E+01  3.777229349E+00  4.300494280E+01  5.145514318E+01  1.168007728E-06  0.00000E+00  9.000E+00
#rwgt            1           1   3.0149162821557624E-002           5      216963           0
</event>
<event>
      5   9999  3.19816E-02  2.29824E+01 -1.00000E+00  1.61538E-01
      21    -1     0     0   502   512  0.000000000E+00  0.000000000E+00  9.389907885E+02  9.389907885E+02  0.000000000E+00  0.00000E+00  9.000E+00
      21    -1     0     0   501   502  0.000000000E+00  0.000000000E+00 -6.581764069E+02  6.581764069E+02  0.000000000E+00  0.00000E+00  9.000E+00
      25     1     1     2     0     0  4.288830332E+02 -3.461594877E+01 -3.964267539E+02  5.982625605E+02  1.250000000E+02  0.00000E+00  9.000E+00
      25     1     1     2     0     0 -4.219953562E+02  1.268988270E+01  1.412258289E+02  4.623968517E+02  1.250000000E+02  0.00000E+00  9.000E+00
      21     1     1     2   501   512 -6.887677024E+00  2.192606607E+01  5.360153066E+02  5.365077831E+02  7.629394531E-06  0.00000E+00  9.000E+00
#rwgt            1           1   2.9765241759129552E-002           5      217171           0
</event>
<event>
      5   9999  3.19816E-02  8.65900E+01 -1.00000E+00  1.26707E-01
      21    -1     0     0   502   511  0.000000000E+00  0.000000000E+00  8.259372703E+01  8.259372703E+01  0.000000000E+00  0.00000E+00  9.000E+00
      21    -1     0     0   501   502  0.000000000E+00  0.000000000E+00 -1.430310143E+03  1.430310143E+03  0.000000000E+00  0.00000E+00  9.000E+00
      25     1     1     2     0     0 -9.906700072E+01 -1.810758513E+02 -5.498268169E+02  6.004475524E+02  1.250000000E+02  0.00000E+00  9.000E+00
      25     1     1     2     0     0  1.065251322E+02  9.480764207E+01 -8.036061126E+02  8.256778288E+02  1.250000000E+02  0.00000E+00  9.000E+00
      21     1     1     2   501   511 -7.458131485E+00  8.626820923E+01  5.716513270E+00  8.677848912E+01  2.838583207E-06  0.00000E+00  9.000E+00
#rwgt            1           1   2.6851109847437795E-002           5      217333           0
</event>
<event>
      5   9999  3.19816E-02  5.54322E+01 -1.00000E+00  1.36567E-01
      21    -1     0     0   512   501  0.000000000E+00  0.000000000E+00  9.993215914E+02  9.993215914E+02  0.000000000E+00  0.00000E+00  9.000E+00
      21    -1     0     0   501   502  0.000000000E+00  0.000000000E+00 -2.056984698E+02  2.056984698E+02  0.000000000E+00  0.00000E+00  9.000E+00
      25     1     1     2     0     0  1.450898189E+02  3.480811701E+02  2.138040524E+02  4.511637500E+02  1.250000000E+02  0.00000E+00  9.000E+00
      25     1     1     2     0     0 -2.004877440E+02 -3.461310381E+02  4.626548346E+02  6.242407605E+02  1.250000000E+02  0.00000E+00  9.000E+00
      21     1     1     2   512   502  5.539792516E+01 -1.950131988E+00  1.171642346E+02  1.296155507E+02  1.348699152E-06  0.00000E+00  9.000E+00
#rwgt            1           1   2.5755190184924306E-002           5      217435           0
</event>
<event>
      5   9999  3.19816E-02  5.72877E+01 -1.00000E+00  1.35786E-01
      21    -1     0     0   502   501  0.000000000E+00  0.000000000E+00  9.494485158E+02  9.494485158E+02  0.000000000E+00  0.00000E+00  9.000E+00
      21    -1     0     0   511   502  0.000000000E+00  0.000000000E+00 -1.251798329E+02  1.251798329E+02  0.000000000E+00  0.00000E+00  9.000E+00
      25     1     1     2     0     0  1.637180978E+02  2.514684812E+02  3.567855990E+02  4.826603114E+02  1.250000000E+02  0.00000E+00  9.000E+00
      25     1     1     2     0     0 -1.064589700E+02 -2.532769272E+02  4.219133233E+02  5.187663892E+02  1.250000000E+02  0.00000E+00  9.000E+00
      21     1     1     2   511   501 -5.725912779E+01  1.808445979E+00  4.556976057E+01  7.320164801E+01  1.651812370E-06  0.00000E+00  9.000E+00
#rwgt            1           1   2.8361867080606749E-002           5      217543           0
</event>
<event>
      5   9999  3.19816E-02  7.85767E+01 -1.00000E+00  1.28728E-01
      21    -1     0     0   502   501  0.000000000E+00  0.000000000E+00  6.297829423E+02  6.297829423E+02  0.000000000E+00  0.00000E+00  9.000E+00
      -4    -1     0     0     0   502  0.000000000E+00  0.000000000E+00 -1.295559097E+03  1.295559097E+03  0.000000000E+00  0.00000E+00  9.000E+00
      25     1     1     2     0     0 -5.796755606E+02  2.066124611E+02 -3.584486287E+02  7.230649238E+02  1.250000000E+02  0.00000E+00  9.000E+00
      25     1     1     2     0     0  5.011107300E+02 -2.052455868E+02  2.712300346E+02  6.184079934E+02  1.250000000E+02  0.00000E+00  9.000E+00
      -4     1     1     2     0   501  7.856483068E+01 -1.366874206E+00 -5.785575603E+02  5.838691219E+02  1.321449896E-05  0.00000E+00  9.000E+00
#rwgt            1           1   2.2001622290667076E-002           5      217589           0
</event>
<event>
      5   9999  3.19816E-02  5.00282E+01 -1.00000E+00  1.39062E-01
       1    -1     0     0   502     0  0.000000000E+00  0.000000000E+00  8.188195875E+02  8.188195875E+02  0.000000000E+00  0.00000E+00  9.000E+00
      21    -1     0     0   501   502  0.000000000E+00  0.000000000E+00 -4.912441790E+02  4.912441790E+02  0.000000000E+00  0.00000E+00  9.000E+00
      25     1     1     2     0     0  3.072760687E+02  2.335489036E+02 -1.829693245E+02  4.450465667E+02  1.250000000E+02  0.00000E+00  9.000E+00
      25     1     1     2     0     0 -2.715733280E+02 -2.685936692E+02  5.372949425E+01  4.054707020E+02  1.250000000E+02  0.00000E+00  9.000E+00
       1     1     1     2   501     0 -3.570274070E+01  3.504476560E+01  4.568152388E+02  4.595464978E+02  9.344061824E-06  0.00000E+00  9.000E+00
#rwgt            1           1   2.8755081865965763E-002           5      217690           0
</event>
<event>
      5   9999  3.19816E-02  2.14035E+01 -1.00000E+00  1.63975E-01
      21    -1     0     0   502   501  0.000000000E+00  0.000000000E+00  1.555172538E+01  1.555172538E+01  0.000000000E+00  0.00000E+00  9.000E+00
      21    -1     0     0   511   502  0.000000000E+00  0.000000000E+00 -2.818324465E+03  2.818324465E+03  0.000000000E+00  0.00000E+00  9.000E+00
      25     1     1     2     0     0 -2.436000003E+01 -1.743108346E+01 -3.019755196E+02  3.281942515E+02  1.250000000E+02  0.00000E+00  9.000E+00
      25     1     1     2     0     0  4.537587530E+01  2.148627568E+01 -2.205714829E+03  2.209824322E+03  1.250000000E+02  0.00000E+00  9.000E+00
      21     1     1     2   511   501 -2.101587527E+01 -4.055192219E+00 -2.950823912E+02  2.958576164E+02  6.607249480E-06  0.00000E+00  9.000E+00
#rwgt            1           1   4.8243206574408753E-002           5      217827           0
</event>
<event>
      5   9999  3.19816E-02  1.32011E+02 -1.00000E+00  1.18636E-01
      21    -1     0     0   512   501  0.000000000E+00  0.000000000E+00  9.448123521E+02  9.448123521E+02  0.000000000E+00  0.00000E+00  9.000E+00
      21    -1     0     0   501   502  0.000000000E+00  0.000000000E+00 -2.717626694E+02  2.717626694E+02  0.000000000E+00  0.00000E+00  9.000E+00
      25     1     1     2     0     0 -1.365957133E+02  1.826042121E+02  2.801060929E+02  3.822134357E+02  1.250000000E+02  0.00000E+00  9.000E+00
      25     1     1     2     0     0  1.042987535E+02 -3.106030151E+02 -6.597499176E+01  3.568335221E+02  1.250000000E+02  0.00000E+00  9.000E+00
      21     1     1     2   512   502  3.229695975E+01  1.279988030E+02  4.589185815E+02  4.775280637E+02  0.000000000E+00  0.00000E+00  9.000E+00
#rwgt            1           1   2.9567420542105819E-002           5      217929           0
</event>
<event>
      5   9999  3.19816E-02  1.16882E+02 -1.00000E+00  1.20856E-01
      21    -1     0     0   502   501  0.000000000E+00  0.000000000E+00  7.810523863E+02  7.810523863E+02  0.000000000E+00  0.00000E+00  9.000E+00
      21    -1     0     0   511   502  0.000000000E+00  0.000000000E+00 -4.324628314E+02  4.324628314E+02  0.000000000E+00  0.00000E+00  9.000E+00
      25     1     1     2     0     0 -3.013996656E+01 -5.033079535E+02  9.154292398E+00  5.195537650E+02  1.250000000E+02  0.00000E+00  9.000E+00
      25     1     1     2     0     0  9.032799726E+01  4.031135549E+02  3.750293279E+02  5.717793998E+02  1.250000000E+02  0.00000E+00  9.000E+00
      21     1     1     2   511   501 -6.018803070E+01  1.001943986E+02 -3.559406537E+01  1.221820528E+02  1.651812370E-06  0.00000E+00  9.000E+00
#rwgt            1           1   2.7388942034269281E-002           5      218025           0
</event>
<event>
      5   9999  3.19816E-02  9.02384E+01 -1.00000E+00  1.25868E-01
      21    -1     0     0   512   501  0.000000000E+00  0.000000000E+00  1.107628663E+03  1.107628663E+03  0.000000000E+00  0.00000E+00  9.000E+00
      21    -1     0     0   501   502  0.000000000E+00  0.000000000E+00 -1.574486321E+02  1.574486321E+02  0.000000000E+00  0.00000E+00  9.000E+00
      25     1     1     2     0     0 -1.893780571E+02 -2.565273537E+02  2.449399788E+02  4.210592891E+02  1.250000000E+02  0.00000E+00  9.000E+00
      25     1     1     2     0     0  2.725590173E+02  2.215430551E+02  5.498516779E+02  6.643279393E+02  1.250000000E+02  0.00000E+00  9.000E+00
      21     1     1     2   512   502 -8.318096020E+01  3.498429858E+01  1.553883740E+02  1.796900667E+02  2.697398305E-06  0.00000E+00  9.000E+00
#rwgt            1           1   3.2233188495923597E-002           5      218131           0
</event>
<event>
      5   9999  3.19816E-02  8.39491E+01 -1.00000E+00  1.27345E-01
      21    -1     0     0   502   501  0.000000000E+00  0.000000000E+00  1.460423445E+02  1.460423445E+02  0.000000000E+00  0.00000E+00  9.000E+00
       2    -1     0     0   501     0  0.000000000E+00  0.000000000E+00 -4.159773498E+03  4.159773498E+03  0.000000000E+00  0.00000E+00  9.000E+00
      25     1     1     2     0     0  2.301337126E+02  4.107748160E+02 -6.982125547E+02  8.513655189E+02  1.250000000E+02  0.00000E+00  9.000E+00
      25     1     1     2     0     0 -1.472553847E+02 -3.974094206E+02 -6.405766544E+02  7.781913942E+02  1.250000000E+02  0.00000E+00  9.000E+00
       2     1     1     2   502     0 -8.287832793E+01 -1.336539532E+01 -2.674941945E+03  2.676258930E+03  3.051757812E-05  0.00000E+00  9.000E+00
#rwgt            1           1   3.1440360413090396E-002           5      218218           0
</event>
<event>
      5   9999  3.19816E-02  1.20011E+02 -1.00000E+00  1.20367E-01
      21    -1     0     0   511   501  0.000000000E+00  0.000000000E+00  1.642897607E+03  1.642897607E+03  0.000000000E+00  0.00000E+00  9.000E+00
      21    -1     0     0   501   502  0.000000000E+00  0.000000000E+00 -3.155613068E+02  3.155613068E+02  0.000000000E+00  0.00000E+00  9.000E+00
      25     1     1     2     0     0 -3.304022634E+02 -2.113618409E+02 -5.344573825E+01  4.151155627E+02  1.250000000E+02  0.00000E+00  9.000E+00
      25     1     1     2     0     0  4.269711616E+02  2.826160311E+02  8.579615371E+02  1.006925614E+03  1.250000000E+02  0.00000E+00  9.000E+00
      21     1     1     2   511   502 -9.656889822E+01 -7.125419014E+01  5.228205014E+02  5.364177368E+02  0.000000000E+00  0.00000E+00  9.000E+00
#rwgt            1           1   3.2564165174417105E-002           5      218331           0
</event>
<event>
      5   9999  3.19816E-02  3.74721E+01 -1.00000E+00  1.46621E-01
      21    -1     0     0   502   512  0.000000000E+00  0.000000000E+00  1.375969925E+03  1.375969925E+03  0.000000000E+00  0.00000E+00  9.000E+00
      21    -1     0     0   501   502  0.000000000E+00  0.000000000E+00 -1.970117261E+02  1.970117261E+02  0.000000000E+00  0.00000E+00  9.000E+00
      25     1     1     2     0     0 -1.735810946E+02 -4.374813533E+02  3.371971637E+02  5.923236093E+02  1.250000000E+02  0.00000E+00  9.000E+00
      25     1     1     2     0     0  1.376394921E+02  4.268814495E+02  7.761286219E+02  9.050817861E+02  1.250000000E+02  0.00000E+00  9.000E+00
      21     1     1     2   501   512  3.594160245E+01  1.059990379E+01  6.563241313E+01  7.557625554E+01  1.651812370E-06  0.00000E+00  9.000E+00
#rwgt            1           1   2.3896699310370795E-002           5      218389           0
</event>
<event>
      5   9999  3.19816E-02  6.27402E+01 -1.00000E+00  1.33675E-01
      21    -1     0     0   502   511  0.000000000E+00  0.000000000E+00  2.587113144E+02  2.587113144E+02  0.000000000E+00  0.00000E+00  9.000E+00
      21    -1     0     0   501   502  0.000000000E+00  0.000000000E+00 -1.568041338E+03  1.568041338E+03  0.000000000E+00  0.00000E+00  9.000E+00
      25     1     1     2     0     0 -2.432955120E+02  2.964267043E+02 -1.219527737E+03  1.284497723E+03  1.250000000E+02  0.00000E+00  9.000E+00
      25     1     1     2     0     0  2.904721981E+02 -3.377872065E+02 -4.444870134E+01  4.648386621E+02  1.250000000E+02  0.00000E+00  9.000E+00
      21     1     1     2   501   511 -4.717668601E+01  4.136050221E+01 -4.535358518E+01  7.741626789E+01  0.000000000E+00  0.00000E+00  9.000E+00
#rwgt            1           1   1.7825911184766337E-002           5      218447           0
</event>
<event>
      5   9999  3.19816E-02  1.87730E+02 -1.00000E+00  1.12658E-01
      21    -1     0     0   502   501  0.000000000E+00  0.000000000E+00  3.125387983E+02  3.125387983E+02  0.000000000E+00  0.00000E+00  9.000E+00
       2    -1     0     0   501     0  0.000000000E+00  0.000000000E+00 -1.080863714E+03  1.080863714E+03  0.000000000E+00  0.00000E+00  9.000E+00
      25     1     1     2     0     0 -2.271534698E+02 -2.580997920E+02  1.307412023E+02  3.885002747E+02  1.250000000E+02  0.00000E+00  9.000E+00
      25     1     1     2     0     0  4.556285072E+01  2.104827661E+02 -3.941592853E+02  4.662247424E+02  1.250000000E+02  0.00000E+00  9.000E+00
       2     1     1     2   502     0  1.815906191E+02  4.761702585E+01 -5.049068326E+02  5.386774951E+02  7.629394531E-06  0.00000E+00  9.000E+00
#rwgt            1           1   3.0725481753886352E-002           5      218539           0
</event>
<event>
      5   9999  3.19816E-02  8.68012E+01 -1.00000E+00  1.26657E-01
      21    -1     0     0   511   501  0.000000000E+00  0.000000000E+00  2.516360080E+03  2.516360080E+03  0.000000000E+00  0.00000E+00  9.000E+00
      21    -1     0     0   501   502  0.000000000E+00  0.000000000E+00 -8.087565878E+01  8.087565878E+01  0.000000000E+00  0.00000E+00  9.000E+00
      25     1     1     2     0     0  1.752396875E+02  1.358612469E+02  1.890843495E+03  1.907899721E+03  1.250000000E+02  0.00000E+00  9.000E+00
      25     1     1     2     0     0 -1.758160430E+02 -4.906194162E+01  1.117976932E+02  2.478751284E+02  1.250000000E+02  0.00000E+00  9.000E+00
      21     1     1     2   511   502  5.763555405E-01 -8.679930528E+01  4.328432333E+02  4.414608886E+02  0.000000000E+00  0.00000E+00  9.000E+00
#rwgt            1           1   3.6688283699095520E-002           5      218606           0
</event>
<event>
      5   9999  3.19816E-02  6.88737E+01 -1.00000E+00  1.31578E-01
      21    -1     0     0   502   501  0.000000000E+00  0.000000000E+00  2.519082129E+02  2.519082129E+02  0.000000000E+00  0.00000E+00  9.000E+00
      21    -1     0     0   512   502  0.000000000E+00  0.000000000E+00 -4.091117979E+02  4.091117979E+02  0.000000000E+00  0.00000E+00  9.000E+00
      25     1     1     2     0     0  9.323037623E+01  2.438952239E+02 -8.880347220E+01  3.028000000E+02  1.250000000E+02  0.00000E+00  9.000E+00
      25     1     1     2     0     0 -2.484000821E+01 -2.520403500E+02 -4.882596365E+01  2.866188039E+02  1.250000000E+02  0.00000E+00  9.000E+00
      21     1     1     2   512   501 -6.839036801E+01  8.145126015E+00 -1.957414910E+01  7.160120689E+01  1.526623782E-06  0.00000E+00  9.000E+00
#rwgt            1           1   2.9000106265516839E-002           5      218666           0
</event>
<event>
      5   9999  3.19816E-02  5.86836E+01 -1.00000E+00  1.35220E-01
      21    -1     0     0   502   501  0.000000000E+00  0.000000000E+00  3.535541845E+02  3.535541845E+02  0.000000000E+00  0.00000E+00  9.000E+00
      21    -1     0     0   511   502  0.000000000E+00  0.000000000E+00 -1.942670629E+02  1.942670629E+02  0.000000000E+00  0.00000E+00  9.000E+00
      25     1     1     2     0     0 -9.950073270E+01 -5.401098320E+01 -9.960806540E+01  1.958681924E+02  1.250000000E+02  0.00000E+00  9.000E+00
      25     1     1     2     0     0  6.710162827E+01  5.081861652E+00  2.565666696E+02  2.932233104E+02  1.250000000E+02  0.00000E+00  9.000E+00
      21     1     1     2   511   501  3.239910443E+01  4.892912155E+01  2.328517442E+00  5.872974457E+01  1.499326375E-06  0.00000E+00  9.000E+00
#rwgt            1           1   2.8239102677283912E-002           5      218795           0
</event>
<event>
      5   9999  3.19816E-02  1.87502E+02 -1.00000E+00  1.12678E-01
      21    -1     0     0   502   501  0.000000000E+00  0.000000000E+00  1.202700337E+03  1.202700337E+03  0.000000000E+00  0.00000E+00  9.000E+00
       2    -1     0     0   501     0  0.000000000E+00  0.000000000E+00 -1.238867417E+03  1.238867417E+03  0.000000000E+00  0.00000E+00  9.000E+00
      25     1     1     2     0     0  7.528101806E+02  3.804019791E+02  6.287567783E+02  1.059428582E+03  1.250000000E+02  0.00000E+00  9.000E+00
      25     1     1     2     0     0 -7.720639929E+02 -1.938911766E+02 -1.311565839E+02  8.163967461E+02  1.250000000E+02  0.00000E+00  9.000E+00
       2     1     1     2   502     0  1.925381227E+01 -1.865108025E+02 -5.337672749E+02  5.657424259E+02  7.629394531E-06  0.00000E+00  9.000E+00
#rwgt            1           1   3.2947889231315683E-002           5      218837           0
</event>
<event>
      5   9999  3.19816E-02  1.17084E+02 -1.00000E+00  1.20823E-01
      21    -1     0     0   511   501  0.000000000E+00  0.000000000E+00  1.577914454E+02  1.577914454E+02  0.000000000E+00  0.00000E+00  9.000E+00
      21    -1     0     0   501   502  0.000000000E+00  0.000000000E+00 -1.080406889E+03  1.080406889E+03  0.000000000E+00  0.00000E+00  9.000E+00
      25     1     1     2     0     0 -1.480243928E+01 -8.373289437E+01 -9.397026503E+02  9.517858902E+02  1.250000000E+02  0.00000E+00  9.000E+00
      25     1     1     2     0     0  9.893430155E+01  2.304390942E+00  4.575997487E+01  1.658682656E+02  1.250000000E+02  0.00000E+00  9.000E+00
      21     1     1     2   511   502 -8.413186227E+01  8.142850343E+01 -2.867276861E+01  1.205441789E+02  2.185142372E-06  0.00000E+00  9.000E+00
#rwgt            1           1   3.4267823082828865E-002           5      218948           0
</event>
<event>
      5   9999  3.19816E-02  2.94589E+01 -1.00000E+00  1.53591E-01
      21    -1     0     0   512   501  0.000000000E+00  0.000000000E+00  4.170088696E+02  4.170088696E+02  0.000000000E+00  0.00000E+00  9.000E+00
      21    -1     0     0   501   502  0.000000000E+00  0.000000000E+00 -9.443258972E+02  9.443258972E+02  0.000000000E+00  0.00000E+00  9.000E+00
      25     1     1     2     0     0  5.977977889E+02  9.495728773E+01 -2.256964758E+02  6.579840288E+02  1.250000000E+02  0.00000E+00  9.000E+00
      25     1     1     2     0     0 -5.860598168E+02 -6.793795193E+01 -3.006708516E+02  6.738765726E+02  1.250000000E+02  0.00000E+00  9.000E+00
      21     1     1     2   512   502 -1.173797214E+01 -2.701933580E+01 -9.497000828E-01  2.947416542E+01  5.825763286E-07  0.00000E+00  9.000E+00
#rwgt            1           1   2.7511084959078190E-002           5      219014           0
</event>
<event>
      5   9999  3.19816E-02  3.74006E+02 -1.00000E+00  1.02571E-01
       2    -1     0     0   502     0  0.000000000E+00  0.000000000E+00  2.444491905E+03  2.444491905E+03  0.000000000E+00  0.00000E+00  9.000E+00
      21    -1     0     0   501   502  0.000000000E+00  0.000000000E+00 -1.490238853E+03  1.490238853E+03  0.000000000E+00  0.00000E+00  9.000E+00
      25     1     1     2     0     0 -4.897721891E+01  2.721585150E+02 -1.009705106E+03  1.054323682E+03  1.250000000E+02  0.00000E+00  9.000E+00
      25     1     1     2     0     0 -3.130349208E+02 -3.661130777E+02 -3.031121521E+02  5.826934220E+02  1.250000000E+02  0.00000E+00  9.000E+00
       2     1     1     2   501     0  3.620121397E+02  9.395456266E+01  2.267070310E+03  2.297713655E+03  0.000000000E+00  0.00000E+00  9.000E+00
#rwgt            1           1   2.8860182693084015E-002           5      219183           0
</event>
<event>
      5   9999  3.19816E-02  5.09464E+01 -1.00000E+00  1.38612E-01
      21    -1     0     0   502   511  0.000000000E+00  0.000000000E+00  3.144211306E+02  3.144211306E+02  0.000000000E+00  0.00000E+00  9.000E+00
      21    -1     0     0   501   502  0.000000000E+00  0.000000000E+00 -5.089484004E+02  5.089484004E+02  0.000000000E+00  0.00000E+00  9.000E+00
      25     1     1     2     0     0 -1.665049323E+02 -3.053528077E+01 -3.868460095E+02  4.403761243E+02  1.250000000E+02  0.00000E+00  9.000E+00
      25     1     1     2     0     0  2.164813615E+02  2.064122940E+01  8.611117760E+01  2.651987465E+02  1.250000000E+02  0.00000E+00  9.000E+00
      21     1     1     2   501   511 -4.997642919E+01  9.894051366E+00  1.062075621E+02  1.177946602E+02  1.348699152E-06  0.00000E+00  9.000E+00
#rwgt            1           1   2.9054234334527158E-002           5      219216           0
</event>
<event>
      5   9999  3.19816E-02  3.38936E+01 -1.00000E+00  1.49448E-01
       2    -1     0     0   502     0  0.000000000E+00  0.000000000E+00  1.792181792E+03  1.792181792E+03  0.000000000E+00  0.00000E+00  9.000E+00
      21    -1     0     0   501   502  0.000000000E+00  0.000000000E+00 -1.976865743E+02  1.976865743E+02  0.000000000E+00  0.00000E+00  9.000E+00
      25     1     1     2     0     0 -6.514220364E+01 -3.824693572E+02  1.863373462E+02  4.481884899E+02  1.250000000E+02  0.00000E+00  9.000E+00
      25     1     1     2     0     0  9.662630051E+01  3.950204214E+02  6.150972390E+02  7.478953060E+02  1.250000000E+02  0.00000E+00  9.000E+00
       2     1     1     2   501     0 -3.148409687E+01 -1.255106426E+01  7.930606321E+02  7.937845701E+02  1.078959322E-05  0.00000E+00  9.000E+00
#rwgt            1           1   3.1928187446602543E-002           5      219296           0
</event>
<event>
      5   9999  3.19816E-02  1.78199E+02 -1.00000E+00  1.13504E-01
       2    -1     0     0   502     0  0.000000000E+00  0.000000000E+00  2.535484191E+03  2.535484191E+03  0.000000000E+00  0.00000E+00  9.000E+00
      21    -1     0     0   501   502  0.000000000E+00  0.000000000E+00 -1.055808065E+02  1.055808065E+02  0.000000000E+00  0.00000E+00  9.000E+00
      25     1     1     2     0     0 -1.988415097E+02  2.348352771E+02  8.114549674E+02  8.767951400E+02  1.250000000E+02  0.00000E+00  9.000E+00
      25     1     1     2     0     0  1.497507689E+02 -4.061393342E+02  7.278383217E+02  8.560070526E+02  1.250000000E+02  0.00000E+00  9.000E+00
       2     1     1     2   501     0  4.909074086E+01  1.713040571E+02  8.906100958E+02  9.082628053E+02  1.868812365E-05  0.00000E+00  9.000E+00
#rwgt            1           1   3.1167808321100221E-002           5      219432           0
</event>
<event>
      5   9999  3.19816E-02  1.96239E+02 -1.00000E+00  1.11949E-01
      21    -1     0     0   502   501  0.000000000E+00  0.000000000E+00  1.855364355E+02  1.855364355E+02  0.000000000E+00  0.00000E+00  9.000E+00
      21    -1     0     0   511   502  0.000000000E+00  0.000000000E+00 -7.200286700E+02  7.200286700E+02  0.000000000E+00  0.00000E+00  9.000E+00
      25     1     1     2     0     0 -9.174029249E+01 -1.502392639E+01  6.098125410E+01  1.672893092E+02  1.250000000E+02  0.00000E+00  9.000E+00
      25     1     1     2     0     0  4.951145772E+01 -1.766179113E+02 -4.198972887E+02  4.749568445E+02  1.250000000E+02  0.00000E+00  9.000E+00
      21     1     1     2   511   501  4.222883477E+01  1.916418377E+02 -1.755761999E+02  2.633189519E+02  3.303624740E-06  0.00000E+00  9.000E+00
#rwgt            1           1   2.6654063814086856E-002           5      219494           0
</event>
<event>
      5   9999  3.19816E-02  8.58233E+00 -1.00000E+00  2.03759E-01
      21    -1     0     0   512   501  0.000000000E+00  0.000000000E+00  6.664338280E+02  6.664338280E+02  0.000000000E+00  0.00000E+00  9.000E+00
      21    -1     0     0   501   502  0.000000000E+00  0.000000000E+00 -1.010764290E+02  1.010764290E+02  0.000000000E+00  0.00000E+00  9.000E+00
      25     1     1     2     0     0  7.745363094E+01  9.660721801E+00  1.145141901E+02  1.866303679E+02  1.250000000E+02  0.00000E+00  9.000E+00
      25     1     1     2     0     0 -7.157457070E+01 -1.591317095E+01  1.582744961E+01  1.457794785E+02  1.250000000E+02  0.00000E+00  9.000E+00
      21     1     1     2   512   502 -5.879060238E+00  6.252449152E+00  4.350157593E+02  4.351004106E+02  5.394796609E-06  0.00000E+00  9.000E+00
#rwgt            1           1   6.1129549294087919E-002           5      219570           0
</event>
<event>
      5   9999  3.19816E-02  2.16747E+02 -1.00000E+00  1.10391E-01
      21    -1     0     0   502   501  0.000000000E+00  0.000000000E+00  1.521033317E+03  1.521033317E+03  0.000000000E+00  0.00000E+00  9.000E+00
       2    -1     0     0   501     0  0.000000000E+00  0.000000000E+00 -1.007976461E+03  1.007976461E+03  0.000000000E+00  0.00000E+00  9.000E+00
      25     1     1     2     0     0 -8.054610811E+02 -8.372550753E+01  2.624255322E+02  8.603892571E+02  1.250000000E+02  0.00000E+00  9.000E+00
      25     1     1     2     0     0  6.371356088E+02  2.202748268E+02  8.144234231E+02  1.064600064E+03  1.250000000E+02  0.00000E+00  9.000E+00
       2     1     1     2   502     0  1.683254724E+02 -1.365493193E+02 -5.637921000E+02  6.040204576E+02  1.321449896E-05  0.00000E+00  9.000E+00
#rwgt            2          13   1.6153850049852798E-003           5      219754           0
</event>
<event>
      5   9999  3.19816E-02  9.98606E+01 -1.00000E+00  1.23855E-01
      21    -1     0     0   502   501  0.000000000E+00  0.000000000E+00  6.234413396E+02  6.234413396E+02  0.000000000E+00  0.00000E+00  9.000E+00
      21    -1     0     0   511   502  0.000000000E+00  0.000000000E+00 -1.223307860E+03  1.223307860E+03  0.000000000E+00  0.00000E+00  9.000E+00
      25     1     1     2     0     0 -1.133208255E+02  2.657811195E+02 -3.990893418E+02  5.083094684E+02  1.250000000E+02  0.00000E+00  9.000E+00
      25     1     1     2     0     0  1.702515316E+01 -2.393371042E+02  5.330873848E+02  5.978120651E+02  1.250000000E+02  0.00000E+00  9.000E+00
      21     1     1     2   511   501  9.629567230E+01 -2.644401530E+01 -7.338645639E+02  7.406276666E+02  1.078959322E-05  0.00000E+00  9.000E+00
#rwgt            2          11   2.3881345404398635E-003           5      219893           0
</event>
<event>
      5   9999  3.19816E-02  1.11850E+02 -1.00000E+00  1.21679E-01
      21    -1     0     0   502   501  0.000000000E+00  0.000000000E+00  8.785074544E+02  8.785074544E+02  0.000000000E+00  0.00000E+00  9.000E+00
      21    -1     0     0   501   512  0.000000000E+00  0.000000000E+00 -4.330384772E+02  4.330384772E+02  0.000000000E+00  0.00000E+00  9.000E+00
      25     1     1     2     0     0 -1.409850011E+02  1.945539539E+02  7.824057009E+02  8.279563348E+02  1.250000000E+02  0.00000E+00  9.000E+00
      25     1     1     2     0     0  1.649067411E+02 -8.529161692E+01 -1.633448809E+02  2.770838200E+02  1.250000000E+02  0.00000E+00  9.000E+00
      21     1     1     2   502   512 -2.392174005E+01 -1.092623370E+02 -1.735918429E+02  2.065057768E+02  3.303624740E-06  0.00000E+00  9.000E+00
#rwgt            2          11   3.2819166374787796E-003           5      219988           0
</event>
<event>
      5   9999  3.19816E-02  4.25823E+01 -1.00000E+00  1.43175E-01
      21    -1     0     0   502   511  0.000000000E+00  0.000000000E+00  2.318905378E+02  2.318905378E+02  0.000000000E+00  0.00000E+00  9.000E+00
      21    -1     0     0   501   502  0.000000000E+00  0.000000000E+00 -9.837414535E+02  9.837414535E+02  0.000000000E+00  0.00000E+00  9.000E+00
      25     1     1     2     0     0  2.329722721E+02  1.310945217E+02 -1.180396771E+01  2.953407978E+02  1.250000000E+02  0.00000E+00  9.000E+00
      25     1     1     2     0     0 -2.714784178E+02 -1.129141796E+02 -7.914723779E+02  8.535242634E+02  1.250000000E+02  0.00000E+00  9.000E+00
      21     1     1     2   501   511  3.850614569E+01 -1.818034213E+01  5.142542990E+01  6.676692996E+01  1.651812370E-06  0.00000E+00  9.000E+00
#rwgt            1           1   3.3625647792041830E-002           5      220008           0
</event>
<event>
      5   9999  3.19816E-02  6.19707E+01 -1.00000E+00  1.33958E-01
       1    -1     0     0   502     0  0.000000000E+00  0.000000000E+00  1.966121922E+03  1.966121922E+03  0.000000000E+00  0.00000E+00  9.000E+00
      21    -1     0     0   501   502  0.000000000E+00  0.000000000E+00 -1.392037826E+02  1.392037826E+02  0.000000000E+00  0.00000E+00  9.000E+00
      25     1     1     2     0     0 -5.999607201E+01 -1.647848532E+02  1.756333886E+03  1.769487863E+03  1.250000000E+02  0.00000E+00  9.000E+00
      25     1     1     2     0     0  9.844429259E+01  2.133863355E+02  5.276547821E+01  2.713562282E+02  1.250000000E+02  0.00000E+00  9.000E+00
       1     1     1     2   501     0 -3.844822059E+01 -4.860148226E+01  1.781877500E+01  6.448161356E+01  1.545128989E-06  0.00000E+00  9.000E+00
#rwgt            2          17   4.9255017104954723E-005           5      220287           0
</event>
<event>
      5   9999  3.19816E-02  4.31573E+01 -1.00000E+00  1.42823E-01
      21    -1     0     0   502   511  0.000000000E+00  0.000000000E+00  4.104993644E+02  4.104993644E+02  0.000000000E+00  0.00000E+00  9.000E+00
      21    -1     0     0   501   502  0.000000000E+00  0.000000000E+00 -3.104723216E+02  3.104723216E+02  0.000000000E+00  0.00000E+00  9.000E+00
      25     1     1     2     0     0  2.940358303E+02 -8.940688253E+01  1.483723340E+02  3.634418931E+02  1.250000000E+02  0.00000E+00  9.000E+00
      25     1     1     2     0     0 -2.769872250E+02  4.975972058E+01 -5.789500205E+01  3.133285558E+02  1.250000000E+02  0.00000E+00  9.000E+00
      21     1     1     2   501   511 -1.704860525E+01  3.964716195E+01  9.549710794E+00  4.420123718E+01  7.052516679E-07  0.00000E+00  9.000E+00
#rwgt            1           1   2.5795685288157361E-002           5      220336           0
</event>
<event>
      5   9999  3.19816E-02  3.12012E+02 -1.00000E+00  1.05041E-01
       1    -1     0     0   502     0  0.000000000E+00  0.000000000E+00  4.192476599E+02  4.192476599E+02  0.000000000E+00  0.00000E+00  9.000E+00
      21    -1     0     0   501   502  0.000000000E+00  0.000000000E+00 -7.771849086E+02  7.771849086E+02  0.000000000E+00  0.00000E+00  9.000E+00
      25     1     1     2     0     0 -2.527508666E+02  2.472503707E+02 -1.556025915E+02  4.060208282E+02  1.250000000E+02  0.00000E+00  9.000E+00
      25     1     1     2     0     0  3.939868541E+02  3.096552174E+01 -2.353557455E+02  4.766569329E+02  1.250000000E+02  0.00000E+00  9.000E+00
       1     1     1     2   501     0 -1.412359874E+02 -2.782158925E+02  3.302108837E+01  3.137548075E+02  1.581489940E-06  0.00000E+00  9.000E+00
#rwgt            1           1   2.7634509421329254E-002           5      220464           0
</event>
<event>
      5   9999  3.19816E-02  1.75733E+01 -1.00000E+00  1.71142E-01
      21    -1     0     0   502   501  0.000000000E+00  0.000000000E+00  5.451691538E+02  5.451691538E+02  0.000000000E+00  0.00000E+00  9.000E+00
      21    -1     0     0   501   511  0.000000000E+00  0.000000000E+00 -2.433139945E+02  2.433139945E+02  0.000000000E+00  0.00000E+00  9.000E+00
      25     1     1     2     0     0  1.808233988E+02  1.650712327E+02  1.381296940E+02  3.076530933E+02  1.250000000E+02  0.00000E+00  9.000E+00
      25     1     1     2     0     0 -1.782200849E+02 -1.824505931E+02  2.587327430E+02  3.842112048E+02  1.250000000E+02  0.00000E+00  9.000E+00
      21     1     1     2   502   511 -2.603313946E+00  1.737936041E+01 -9.500727765E+01  9.661885023E+01  1.348699152E-06  0.00000E+00  9.000E+00
#rwgt            1           1   2.5536513799055270E-002           5      220543           0
</event>
<event>
      5   9999  3.19816E-02  4.07706E+01 -1.00000E+00  1.44328E-01
      21    -1     0     0   502   501  0.000000000E+00  0.000000000E+00  5.338224822E+02  5.338224822E+02  0.000000000E+00  0.00000E+00  9.000E+00
      21    -1     0     0   501   512  0.000000000E+00  0.000000000E+00 -3.166832220E+02  3.166832220E+02  0.000000000E+00  0.00000E+00  9.000E+00
      25     1     1     2     0     0  1.449125936E+01  2.396359902E+02  1.655846651E+02  3.172990478E+02  1.250000000E+02  0.00000E+00  9.000E+00
      25     1     1     2     0     0 -4.549113711E+01 -2.661171301E+02  2.135116643E+02  3.661966702E+02  1.250000000E+02  0.00000E+00  9.000E+00
      21     1     1     2   502   512  3.099987775E+01  2.648113991E+01 -1.619570692E+02  1.670099861E+02  2.697398305E-06  0.00000E+00  9.000E+00
#rwgt            1           1   2.8314731980750487E-002           5      220705           0
</event>
<event>
      5   9999  3.19816E-02  2.39287E+01 -1.00000E+00  1.60189E-01
      21    -1     0     0   502   501  0.000000000E+00  0.000000000E+00  1.845904272E+02  1.845904272E+02  0.000000000E+00  0.00000E+00  9.000E+00
      21    -1     0     0   511   502  0.000000000E+00  0.000000000E+00 -2.609604589E+02  2.609604589E+02  0.000000000E+00  0.00000E+00  9.000E+00
      25     1     1     2     0     0 -1.325170670E+02 -3.972766609E+01  5.586751310E+00  1.865349090E+02  1.250000000E+02  0.00000E+00  9.000E+00
      25     1     1     2     0     0  1.489879303E+02  2.236990033E+01 -2.514486352E+01  1.973704131E+02  1.250000000E+02  0.00000E+00  9.000E+00
      21     1     1     2   511   501 -1.647086328E+01  1.735776576E+01 -5.681191941E+01  6.164556396E+01  9.536743164E-07  0.00000E+00  9.000E+00
#rwgt            1           1   2.5644271580621731E-002           5      220827           0
</event>
<event>
      5   9999  3.19816E-02  6.21176E+01 -1.00000E+00  1.33903E-01
      21    -1     0     0   512   501  0.000000000E+00  0.000000000E+00  1.213365168E+03  1.213365168E+03  0.000000000E+00  0.00000E+00  9.000E+00
      21    -1     0     0   501   502  0.000000000E+00  0.000000000E+00 -7.419695944E+01  7.419695944E+01  0.000000000E+00  0.00000E+00  9.000E+00
      25     1     1     2     0     0 -2.211779700E+02 -3.010566414E+00  3.337218199E+02  4.194329637E+02  1.250000000E+02  0.00000E+00  9.000E+00
      25     1     1     2     0     0  1.796937675E+02 -4.322430514E+01  4.006004635E+02  4.585454416E+02  1.250000000E+02  0.00000E+00  9.000E+00
      21     1     1     2   512   502  4.148420242E+01  4.623487155E+01  4.048459252E+02  4.095837223E+02  0.000000000E+00  0.00000E+00  9.000E+00
#rwgt            1           1   2.4633929523441265E-002           5      220961           0
</event>
<event>
      5   9999  3.19816E-02  5.90231E+01 -1.00000E+00  1.35085E-01
      21    -1     0     0   502   501  0.000000000E+00  0.000000000E+00  6.017121147E+02  6.017121147E+02  0.000000000E+00  0.00000E+00  9.000E+00
      21    -1     0     0   511   502  0.000000000E+00  0.000000000E+00 -2.441635137E+02  2.441635137E+02  0.000000000E+00  0.00000E+00  9.000E+00
      25     1     1     2     0     0  2.753706841E+02  8.197864357E+01  1.106023311E+02  3.322760709E+02  1.250000000E+02  0.00000E+00  9.000E+00
      25     1     1     2     0     0 -3.173768903E+02 -1.234419411E+02  2.679121729E+02  4.509633419E+02  1.250000000E+02  0.00000E+00  9.000E+00
      21     1     1     2   511   501  4.200620623E+01  4.146329757E+01 -2.096590301E+01  6.263621553E+01  1.563415176E-06  0.00000E+00  9.000E+00
#rwgt            1           1   2.8263698691034241E-002           5      221027           0
</event>
<event>
      5   9999  3.19816E-02  3.08867E+01 -1.00000E+00  1.52166E-01
      21    -1     0     0   512   501  0.000000000E+00  0.000000000E+00  4.288865926E+02  4.288865926E+02  0.000000000E+00  0.00000E+00  9.000E+00
      21    -1     0     0   501   502  0.000000000E+00  0.000000000E+00 -4.513404411E+02  4.513404411E+02  0.000000000E+00  0.00000E+00  9.000E+00
      25     1     1     2     0     0 -7.415036342E+01 -1.023923315E+02 -4.010370994E+02  4.386778101E+02  1.250000000E+02  0.00000E+00  9.000E+00
      25     1     1     2     0     0  4.742767281E+01  1.178806704E+02  3.680099142E+02  4.089028412E+02  1.250000000E+02  0.00000E+00  9.000E+00
      21     1     1     2   512   502  2.672269061E+01 -1.548833895E+01  1.057333682E+01  3.264638247E+01  3.371747881E-07  0.00000E+00  9.000E+00
#rwgt            1           1   2.9085552953697857E-002           5      221102           0
</event>
<event>
      5   9999  3.19816E-02  1.64793E+02 -1.00000E+00  1.14797E-01
      21    -1     0     0   511   501  0.000000000E+00  0.000000000E+00  2.698469429E+03  2.698469429E+03  0.000000000E+00  0.00000E+00  9.000E+00
      21    -1     0     0   501   502  0.000000000E+00  0.000000000E+00 -9.306557442E+01  9.306557442E+01  0.000000000E+00  0.00000E+00  9.000E+00
      25     1     1     2     0     0  3.849845054E+02 -2.175252444E+01  5.120725437E+02  6.530922842E+02  1.250000000E+02  0.00000E+00  9.000E+00
      25     1     1     2     0     0 -2.204672433E+02  3.127785840E+01  1.542303172E+03  1.563300414E+03  1.250000000E+02  0.00000E+00  9.000E+00
      21     1     1     2   511   502 -1.645172620E+02 -9.525333964E+00  5.510281389E+02  5.751423053E+02  7.629394531E-06  0.00000E+00  9.000E+00
#rwgt            1           1   3.1193736389278939E-002           5      221265           0
</event>
<event>
      5   9999  3.19816E-02  3.89477E+01 -1.00000E+00  1.45562E-01
      21    -1     0     0   512   501  0.000000000E+00  0.000000000E+00  5.667797783E+02  5.667797783E+02  0.000000000E+00  0.00000E+00  9.000E+00
      21    -1     0     0   501   502  0.000000000E+00  0.000000000E+00 -2.485800946E+02  2.485800946E+02  0.000000000E+00  0.00000E+00  9.000E+00
      25     1     1     2     0     0 -2.579358494E+02  5.030081467E+01 -3.806837056E+01  2.934881176E+02  1.250000000E+02  0.00000E+00  9.000E+00
      25     1     1     2     0     0  2.935300898E+02 -3.449018073E+01  2.442539361E+02  4.032796443E+02  1.250000000E+02  0.00000E+00  9.000E+00
      21     1     1     2   512   502 -3.559424047E+01 -1.581063394E+01  1.120141182E+02  1.185921109E+02  0.000000000E+00  0.00000E+00  9.000E+00
#rwgt            1           1   3.1960096869563095E-002           5      221321           0
</event>
<event>
      5   9999  3.19816E-02  2.99533E+01 -1.00000E+00  1.53087E-01
      21    -1     0     0   502   501  0.000000000E+00  0.000000000E+00  2.449165348E+02  2.449165348E+02  0.000000000E+00  0.00000E+00  9.000E+00
      21    -1     0     0   501   511  0.000000000E+00  0.000000000E+00 -1.273357084E+02  1.273357084E+02  0.000000000E+00  0.00000E+00  9.000E+00
      25     1     1     2     0     0 -2.296413406E+01  2.663916520E+01  1.600102194E+02  2.060710239E+02  1.250000000E+02  0.00000E+00  9.000E+00
      25     1     1     2     0     0 -2.326687005E+00 -1.059010147E+01 -1.647281363E+01  1.265461074E+02  1.250000000E+02  0.00000E+00  9.000E+00
      21     1     1     2   502   511  2.529082107E+01 -1.604906373E+01 -2.595657944E+01  3.963511187E+01  6.743495762E-07  0.00000E+00  9.000E+00
#rwgt            1           1   5.5816102199490895E-002           5      221479           0
</event>
<event>
      5   9999  3.19816E-02  9.54032E+01 -1.00000E+00  1.24754E-01
      21    -1     0     0   502   501  0.000000000E+00  0.000000000E+00  6.413855244E+02  6.413855244E+02  0.000000000E+00  0.00000E+00  9.000E+00
      21    -1     0     0   501   512  0.000000000E+00  0.000000000E+00 -9.349876496E+02  9.349876496E+02  0.000000000E+00  0.00000E+00  9.000E+00
      25     1     1     2     0     0  2.955826518E+02  4.423246249E+00  4.862656245E+02  5.826387618E+02  1.250000000E+02  0.00000E+00  9.000E+00
      25     1     1     2     0     0 -2.942658203E+02 -9.981739491E+01 -1.684316657E+02  3.749001351E+02  1.250000000E+02  0.00000E+00  9.000E+00
      21     1     1     2   502   512 -1.316831545E+00  9.539414866E+01 -6.114360840E+02  6.188342771E+02  0.000000000E+00  0.00000E+00  9.000E+00
#rwgt            1           1   2.9246965279921624E-002           5      221603           0
</event>
<event>
      5   9999  3.19816E-02  2.58885E+01 -1.00000E+00  1.57623E-01
      21    -1     0     0   502   511  0.000000000E+00  0.000000000E+00  2.074747221E+02  2.074747221E+02  0.000000000E+00  0.00000E+00  9.000E+00
      21    -1     0     0   501   502  0.000000000E+00  0.000000000E+00 -6.714476872E+02  6.714476872E+02  0.000000000E+00  0.00000E+00  9.000E+00
      25     1     1     2     0     0 -6.856621572E+01  1.574431910E+02 -5.494526361E+02  5.890779945E+02  1.250000000E+02  0.00000E+00  9.000E+00
      25     1     1     2     0     0  4.870130223E+01 -1.740444558E+02  2.146357343E+01  2.207916992E+02  1.250000000E+02  0.00000E+00  9.000E+00
      21     1     1     2   501   511  1.986491348E+01  1.660126482E+01  6.401609755E+01  6.905271557E+01  1.348699152E-06  0.00000E+00  9.000E+00
#rwgt            1           1   3.0406329116222749E-002           5      221714           0
</event>
<event>
      5   9999  3.19816E-02  1.51958E+01 -1.00000E+00  1.76855E-01
      21    -1     0     0   502   512  0.000000000E+00  0.000000000E+00  6.588816460E+02  6.588816460E+02  0.000000000E+00  0.00000E+00  9.000E+00
      21    -1     0     0   501   502  0.000000000E+00  0.000000000E+00 -7.220848356E+01  7.220848356E+01  0.000000000E+00  0.00000E+00  9.000E+00
      25     1     1     2     0     0  1.511900618E+02 -4.869319297E+01  1.834394934E+02  2.729551420E+02  1.250000000E+02  0.00000E+00  9.000E+00
      25     1     1     2     0     0 -1.459496781E+02  6.295683290E+01  3.775908707E+02  4.283278382E+02  1.250000000E+02  0.00000E+00  9.000E+00
      21     1     1     2   501   512 -5.240383625E+00 -1.426363992E+01  2.564279843E+01  2.980714941E+01  4.768371582E-07  0.00000E+00  9.000E+00
#rwgt            1           1   2.6271847475587005E-002           5      221800           0
</event>
<event>
      5   9999  3.19816E-02  8.35542E+01 -1.00000E+00  1.27442E-01
      21    -1     0     0   502   501  0.000000000E+00  0.000000000E+00  3.825546341E+02  3.825546341E+02  0.000000000E+00  0.00000E+00  9.000E+00
      21    -1     0     0   501   511  0.000000000E+00  0.000000000E+00 -6.028115893E+02  6.028115893E+02  0.000000000E+00  0.00000E+00  9.000E+00
      25     1     1     2     0     0 -1.794214908E+02 -2.732963457E+02  1.366072126E+02  3.757252913E+02  1.250000000E+02  0.00000E+00  9.000E+00
      25     1     1     2     0     0  1.042184872E+02  2.368845649E+02 -5.014562445E+01  2.917453921E+02  1.250000000E+02  0.00000E+00  9.000E+00
      21     1     1     2   502   511  7.520300361E+01  3.641178085E+01 -3.067185434E+02  3.178955400E+02  5.394796609E-06  0.00000E+00  9.000E+00
#rwgt            1           1   2.4884304479100006E-002           5      221991           0
</event>
<event>
      5   9999  3.19816E-02  1.98578E+02 -1.00000E+00  1.11761E-01
      21    -1     0     0   512   501  0.000000000E+00  0.000000000E+00  1.237912800E+03  1.237912800E+03  0.000000000E+00  0.00000E+00  9.000E+00
      21    -1     0     0   501   502  0.000000000E+00  0.000000000E+00 -2.496733941E+02  2.496733941E+02  0.000000000E+00  0.00000E+00  9.000E+00
      25     1     1     2     0     0  2.635420428E+02 -2.857682620E+02  3.290425476E+02  5.244157759E+02  1.250000000E+02  0.00000E+00  9.000E+00
      25     1     1     2     0     0 -1.651914211E+02  4.582798721E+02  4.522582757E+02  6.763661691E+02  1.250000000E+02  0.00000E+00  9.000E+00
      21     1     1     2   512   502 -9.835062162E+01 -1.725116101E+02  2.069385826E+02  2.868042492E+02  2.697398305E-06  0.00000E+00  9.000E+00
#rwgt            2          11   4.4257810565770106E-003           5      222088           0
</event>
<event>
      5   9999  3.19816E-02  2.45781E+02 -1.00000E+00  1.08483E-01
       2    -1     0     0   502     0  0.000000000E+00  0.000000000E+00  1.499322682E+03  1.499322682E+03  0.000000000E+00  0.00000E+00  9.000E+00
      21    -1     0     0   501   502  0.000000000E+00  0.000000000E+00 -2.093063118E+02  2.093063118E+02  0.000000000E+00  0.00000E+00  9.000E+00
      25     1     1     2     0     0 -1.362056449E+02  2.448559959E+02  7.136132822E+01  3.149982152E+02  1.250000000E+02  0.00000E+00  9.000E+00
      25     1     1     2     0     0  3.702251306E+02 -1.697362817E+02  8.461213670E+02  9.473243480E+02  1.250000000E+02  0.00000E+00  9.000E+00
       2     1     1     2   501     0 -2.340194856E+02 -7.511971414E+01  3.725336753E+02  4.463064310E+02  5.394796609E-06  0.00000E+00  9.000E+00
#rwgt            1           1   2.8354106604905744E-002           5      222123           0
</event>
<event>
      5   9999  3.19816E-02  4.86351E+01 -1.00000E+00  1.39765E-01
      21    -1     0     0   502   501  0.000000000E+00  0.000000000E+00  3.241928471E+02  3.241928471E+02  0.000000000E+00  0.00000E+00  9.000E+00
       1    -1     0     0   501     0  0.000000000E+00  0.000000000E+00 -7.626185481E+02  7.626185481E+02  0.000000000E+00  0.00000E+00  9.000E+00
      25     1     1     2     0     0  2.032148380E+02 -1.331449197E+02 -7.515779089E+01  2.833681943E+02  1.250000000E+02  0.00000E+00  9.000E+00
      25     1     1     2     0     0 -1.843219453E+02  1.779604066E+02  1.260587902E+02  3.117054771E+02  1.250000000E+02  0.00000E+00  9.000E+00
       1     1     1     2   502     0 -1.889289275E+01 -4.481548697E+01 -4.893267004E+02  4.917377238E+02  7.629394531E-06  0.00000E+00  9.000E+00
#rwgt            1           1   2.3122034598719945E-002           5      222170           0
</event>
<event>
      5   9999  3.19816E-02  6.03151E+01 -1.00000E+00  1.34582E-01
      21    -1     0     0   502   501  0.000000000E+00  0.000000000E+00  5.246938343E+02  5.246938343E+02  0.000000000E+00  0.00000E+00  9.000E+00
      21    -1     0     0   501   511  0.000000000E+00  0.000000000E+00 -1.305395287E+02  1.305395287E+02  0.000000000E+00  0.00000E+00  9.000E+00
      25     1     1     2     0     0  7.945653249E+00  1.396057457E+02  9.042362778E+01  2.082170265E+02  1.250000000E+02  0.00000E+00  9.000E+00
      25     1     1     2     0     0 -3.746099896E+01 -1.922057189E+02  3.088653293E+02  3.864830610E+02  1.250000000E+02  0.00000E+00  9.000E+00
      21     1     1     2   502   511  2.951534571E+01  5.259997312E+01 -5.134651515E+00  6.053327557E+01  1.475741673E-06  0.00000E+00  9.000E+00
#rwgt            1           1   2.6390823892693038E-002           5      222309           0
</event>
<event>
      5   9999  3.19816E-02  6.21813E+01 -1.00000E+00  1.33880E-01
      21    -1     0     0   512   501  0.000000000E+00  0.000000000E+00  3.329796307E+02  3.329796307E+02  0.000000000E+00  0.00000E+00  9.000E+00
      21    -1     0     0   501   502  0.000000000E+00  0.000000000E+00 -1.680303943E+03  1.680303943E+03  0.000000000E+00  0.00000E+00  9.000E+00
      25     1     1     2     0     0 -2.254790879E+02  4.075973295E+01  6.327914122E+01  2.685729410E+02  1.250000000E+02  0.00000E+00  9.000E+00
      25     1     1     2     0     0  1.635742412E+02 -4.661672551E+01 -1.564526936E+03  1.578701740E+03  1.250000000E+02  0.00000E+00  9.000E+00
      21     1     1     2   512   502  6.190484674E+01  5.856992563E+00  1.539234816E+02  1.660088932E+02  4.264961200E-06  0.00000E+00  9.000E+00
#rwgt            1           1   2.7732258775534986E-002           5      222435           0
</event>
<event>
      5   9999  3.19816E-02  4.82394E+01 -1.00000E+00  1.39970E-01
      21    -1     0     0   502   511  0.000000000E+00  0.000000000E+00  3.820321701E+02  3.820321701E+02  0.000000000E+00  0.00000E+00  9.000E+00
      21    -1     0     0   501   502  0.000000000E+00  0.000000000E+00 -1.930768763E+02  1.930768763E+02  0.000000000E+00  0.00000E+00  9.000E+00
      25     1     1     2     0     0  1.631420904E+02  2.851345558E+01 -8.144511862E+00  2.076528157E+02  1.250000000E+02  0.00000E+00  9.000E+00
      25     1     1     2     0     0 -1.160957429E+02 -3.917560729E+01  1.119494324E+01  1.753946307E+02  1.250000000E+02  0.00000E+00  9.000E+00
      21     1     1     2   501   511 -4.704634750E+01  1.066215171E+01  1.859048624E+02  1.920615999E+02  2.697398305E-06  0.00000E+00  9.000E+00
#rwgt            1           1   2.8351544633683983E-002           5      222509           0
</event>
<event>
      5   9999  3.19816E-02  1.66287E+02 -1.00000E+00  1.14647E-01
      21    -1     0     0   502   501  0.000000000E+00  0.000000000E+00  4.432520077E+02  4.432520077E+02  0.000000000E+00  0.00000E+00  9.000E+00
      -3    -1     0     0     0   502  0.000000000E+00  0.000000000E+00 -2.882290153E+02  2.882290153E+02  0.000000000E+00  0.00000E+00  9.000E+00
      25     1     1     2     0     0 -2.133071205E+01  1.177430814E+02  1.616475435E+02  2.367981436E+02  1.250000000E+02  0.00000E+00  9.000E+00
      25     1     1     2     0     0 -2.963197793E+01 -2.760279016E+02 -7.711556645E+01  3.140720732E+02  1.250000000E+02  0.00000E+00  9.000E+00
      -3     1     1     2     0   501  5.096268998E+01  1.582848202E+02  7.049101541E+01  1.806108062E+02  9.536743164E-07  0.00000E+00  9.000E+00
#rwgt            1           1   2.8387150629321307E-002           5      222587           0
</event>
<event>
      5   9999  3.19816E-02  1.42147E+02 -1.00000E+00  1.17327E-01
      21    -1     0     0   502   501  0.000000000E+00  0.000000000E+00  3.429254535E+02  3.429254535E+02  0.000000000E+00  0.00000E+00  9.000E+00
      21    -1     0     0   511   502  0.000000000E+00  0.000000000E+00 -2.349593698E+02  2.349593698E+02  0.000000000E+00  0.00000E+00  9.000E+00
      25     1     1     2     0     0  3.765281113E+01  3.328032210E+01 -6.612911368E+01  1.500778921E+02  1.250000000E+02  0.00000E+00  9.000E+00
      25     1     1     2     0     0 -1.006723644E+02 -1.606947585E+02  1.732546646E+02  2.856569781E+02  1.250000000E+02  0.00000E+00  9.000E+00
      21     1     1     2   511   501  6.301955326E+01  1.274144364E+02  8.405328546E-01  1.421499532E+02  2.495688721E-06  0.00000E+00  9.000E+00
#rwgt            1           1   3.0194584488625508E-002           5      222616           0
</event>
<event>
      5   9999  3.19816E-02  5.34194E+01 -1.00000E+00  1.37456E-01
      21    -1     0     0   502   501  0.000000000E+00  0.000000000E+00  4.490040152E+02  4.490040152E+02  0.000000000E+00  0.00000E+00  9.000E+00
      21    -1     0     0   512   502  0.000000000E+00  0.000000000E+00 -1.473226321E+02  1.473226321E+02  0.000000000E+00  0.00000E+00  9.000E+00
      25     1     1     2     0     0 -9.729570512E+01 -8.567979125E+01  2.610752530E+02  3.171636307E+02  1.250000000E+02  0.00000E+00  9.000E+00
      25     1     1     2     0     0  1.320401978E+02  1.262562689E+02  2.138407279E+01  2.223905075E+02  1.250000000E+02  0.00000E+00  9.000E+00
      21     1     1     2   512   501 -3.474449267E+01 -4.057647765E+01  1.922205721E+01  5.677250912E+01  2.384185791E-07  0.00000E+00  9.000E+00
#rwgt            1           1   2.7543992100088385E-002           5      222669           0
</event>
<event>
      5   9999  3.19816E-02  1.11111E+01 -1.00000E+00  1.90612E-01
      21    -1     0     0   502   501  0.000000000E+00  0.000000000E+00  7.518090318E+02  7.518090318E+02  0.000000000E+00  0.00000E+00  9.000E+00
      -1    -1     0     0     0   502  0.000000000E+00  0.000000000E+00 -1.134341199E+03  1.134341199E+03  0.000000000E+00  0.00000E+00  9.000E+00
      25     1     1     2     0     0  4.924494427E+02  3.883383852E+02 -8.481985907E+01  6.450833772E+02  1.250000000E+02  0.00000E+00  9.000E+00
      25     1     1     2     0     0 -4.816486162E+02 -3.909456990E+02  2.593496317E+02  6.838941150E+02  1.250000000E+02  0.00000E+00  9.000E+00
      -1     1     1     2     0   501 -1.080082654E+01  2.607313808E+00 -5.570619393E+02  5.571727382E+02  0.000000000E+00  0.00000E+00  9.000E+00
#rwgt            2          10   2.9098881108637950E-005           5      222856           0
</event>
<event>
      5   9999  3.19816E-02  1.21117E+02 -1.00000E+00  1.20198E-01
      21    -1     0     0   502   501  0.000000000E+00  0.000000000E+00  2.652282253E+03  2.652282253E+03  0.000000000E+00  0.00000E+00  9.000E+00
      -4    -1     0     0     0   502  0.000000000E+00  0.000000000E+00 -1.352284978E+02  1.352284978E+02  0.000000000E+00  0.00000E+00  9.000E+00
      25     1     1     2     0     0  1.833062065E+02 -2.645639476E+01  1.278840817E+03  1.298214135E+03  1.250000000E+02  0.00000E+00  9.000E+00
      25     1     1     2     0     0 -1.322122697E+02 -8.335640381E+01  1.325169196E+03  1.340196542E+03  1.250000000E+02  0.00000E+00  9.000E+00
      -4     1     1     2     0   501 -5.109393679E+01  1.098127986E+02 -8.695625758E+01  1.491000732E+02  7.136645101E-06  0.00000E+00  9.000E+00
#rwgt            1           1   3.8131707711793278E-002           5      222875           0
</event>
<event>
      5   9999  3.19816E-02  2.19210E+01 -1.00000E+00  1.63148E-01
      21    -1     0     0   502   501  0.000000000E+00  0.000000000E+00  9.764302963E+01  9.764302963E+01  0.000000000E+00  0.00000E+00  9.000E+00
      21    -1     0     0   501   511  0.000000000E+00  0.000000000E+00 -1.049682971E+03  1.049682971E+03  0.000000000E+00  0.00000E+00  9.000E+00
      25     1     1     2     0     0  1.905290082E+02  8.715583282E+01 -8.047106427E+02  8.408814784E+02  1.250000000E+02  0.00000E+00  9.000E+00
      25     1     1     2     0     0 -1.686343447E+02 -8.823106086E+01 -8.960206634E+01  2.446953056E+02  1.250000000E+02  0.00000E+00  9.000E+00
      21     1     1     2   502   511 -2.189466350E+01  1.075228042E+00 -5.772723276E+01  6.174921705E+01  6.743495762E-07  0.00000E+00  9.000E+00
#rwgt            1           1   3.5641808305985859E-002           5      222957           0
</event>
<event>
      5   9999  3.19816E-02  3.12160E+01 -1.00000E+00  1.51851E-01
      21    -1     0     0   502   501  0.000000000E+00  0.000000000E+00  1.697729915E+03  1.697729915E+03  0.000000000E+00  0.00000E+00  9.000E+00
      21    -1     0     0   512   502  0.000000000E+00  0.000000000E+00 -3.348880132E+01  3.348880132E+01  0.000000000E+00  0.00000E+00  9.000E+00
      25     1     1     2     0     0 -7.800648858E+01 -7.285786878E+01  3.235912636E+02  3.629457083E+02  1.250000000E+02  0.00000E+00  9.000E+00
      25     1     1     2     0     0  1.014885797E+02  5.229016644E+01  1.320076049E+03  1.330886911E+03  1.250000000E+02  0.00000E+00  9.000E+00
      21     1     1     2   512   501 -2.348209116E+01  2.056770234E+01  2.057380069E+01  3.738609714E+01  4.768371582E-07  0.00000E+00  9.000E+00
#rwgt            1           1   2.6609094375999412E-002           5      223104           0
</event>
<event>
      5   9999  3.19816E-02  8.09956E+01 -1.00000E+00  1.28090E-01
      21    -1     0     0   502   501  0.000000000E+00  0.000000000E+00  5.908001943E+02  5.908001943E+02  0.000000000E+00  0.00000E+00  9.000E+00
      21    -1     0     0   511   502  0.000000000E+00  0.000000000E+00 -2.292287109E+02  2.292287109E+02  0.000000000E+00  0.00000E+00  9.000E+00
      25     1     1     2     0     0  8.771700876E+01 -5.383000549E+00  4.533309442E+02  4.783902124E+02  1.250000000E+02  0.00000E+00  9.000E+00
      25     1     1     2     0     0 -1.283151336E+02  7.546918977E+01  2.868881588E+01  1.964902549E+02  1.250000000E+02  0.00000E+00  9.000E+00
      21     1     1     2   511   501  4.059812486E+01 -7.008618922E+01 -1.204482767E+02  1.451484379E+02  2.336015456E-06  0.00000E+00  9.000E+00
#rwgt            2          11   2.4780498040742759E-003           5      223350           0
</event>
<event>
      5   9999  3.19816E-02  1.70328E+02 -1.00000E+00  1.14247E-01
      21    -1     0     0   502   512  0.000000000E+00  0.000000000E+00  8.053763642E+02  8.053763642E+02  0.000000000E+00  0.00000E+00  9.000E+00
      21    -1     0     0   501   502  0.000000000E+00  0.000000000E+00 -6.883393981E+02  6.883393981E+02  0.000000000E+00  0.00000E+00  9.000E+00
      25     1     1     2     0     0 -2.511234954E+01 -5.128732708E+02 -4.967371796E+00  5.285066667E+02  1.250000000E+02  0.00000E+00  9.000E+00
      25     1     1     2     0     0  6.322820105E+01  3.468651919E+02 -3.195220449E+02  4.919680924E+02  1.250000000E+02  0.00000E+00  9.000E+00
      21     1     1     2   501   512 -3.811585151E+01  1.660080789E+02  4.415263828E+02  4.732410032E+02  5.394796609E-06  0.00000E+00  9.000E+00
#rwgt            1           1   2.9336139362572847E-002           5      223370           0
</event>
<event>
      5   9999  3.19816E-02  1.73222E+01 -1.00000E+00  1.71690E-01
      21    -1     0     0   511   501  0.000000000E+00  0.000000000E+00  3.699511629E+02  3.699511629E+02  0.000000000E+00  0.00000E+00  9.000E+00
      21    -1     0     0   501   502  0.000000000E+00  0.000000000E+00 -1.164376003E+02  1.164376003E+02  0.000000000E+00  0.00000E+00  9.000E+00
      25     1     1     2     0     0 -9.846081170E+01 -1.133843392E+00 -1.517132770E+01  1.598467586E+02  1.250000000E+02  0.00000E+00  9.000E+00
      25     1     1     2     0     0  1.121147444E+02 -9.525841799E+00  2.409004343E+02  2.938000627E+02  1.250000000E+02  0.00000E+00  9.000E+00
      21     1     1     2   511   502 -1.365393272E+01  1.065968519E+01  2.778445595E+01  3.274194190E+01  4.768371582E-07  0.00000E+00  9.000E+00
#rwgt            1           1   2.5769249473882615E-002           5      223432           0
</event>
<event>
      5   9999  3.19816E-02  1.06887E+01 -1.00000E+00  1.92472E-01
      21    -1     0     0   502   501  0.000000000E+00  0.000000000E+00  1.716024290E+02  1.716024290E+02  0.000000000E+00  0.00000E+00  9.000E+00
      21    -1     0     0   512   502  0.000000000E+00  0.000000000E+00 -3.882900910E+02  3.882900910E+02  0.000000000E+00  0.00000E+00  9.000E+00
      25     1     1     2     0     0  1.508274599E+02 -1.774770464E+01  5.950744717E+01  2.054994889E+02  1.250000000E+02  0.00000E+00  9.000E+00
      25     1     1     2     0     0 -1.609483461E+02  1.431025053E+01 -2.329128894E+02  3.098105347E+02  1.250000000E+02  0.00000E+00  9.000E+00
      21     1     1     2   512   501  1.012088625E+01  3.437454109E+00 -4.328221978E+01  4.458249632E+01  0.000000000E+00  0.00000E+00  9.000E+00
#rwgt            1           1   2.6961423595679133E-002           5      223594           0
</event>
<event>
      5   9999  3.19816E-02  5.08003E+01 -1.00000E+00  1.38683E-01
      21    -1     0     0   502   511  0.000000000E+00  0.000000000E+00  2.752018549E+02  2.752018549E+02  0.000000000E+00  0.00000E+00  9.000E+00
      21    -1     0     0   501   502  0.000000000E+00  0.000000000E+00 -4.763134491E+02  4.763134491E+02  0.000000000E+00  0.00000E+00  9.000E+00
      25     1     1     2     0     0  2.014652447E+02 -2.189358303E+02 -1.216746407E+02  3.448925352E+02  1.250000000E+02  0.00000E+00  9.000E+00
      25     1     1     2     0     0 -1.692287313E+02  2.581975317E+02 -1.057058571E+02  3.494324786E+02  1.250000000E+02  0.00000E+00  9.000E+00
      21     1     1     2   501   511 -3.223651335E+01 -3.926170139E+01  2.626890366E+01  5.719029016E+01  1.507891493E-06  0.00000E+00  9.000E+00
#rwgt            1           1   2.6082111297964589E-002           5      223802           0
</event>
<event>
      5   9999  3.19816E-02  3.95910E+01 -1.00000E+00  1.45118E-01
      21    -1     0     0   512   501  0.000000000E+00  0.000000000E+00  8.305639454E+02  8.305639454E+02  0.000000000E+00  0.00000E+00  9.000E+00
      21    -1     0     0   501   502  0.000000000E+00  0.000000000E+00 -3.383286141E+02  3.383286141E+02  0.000000000E+00  0.00000E+00  9.000E+00
      25     1     1     2     0     0  2.649147468E+02 -1.164128711E+02  5.995604946E+02  6.773695936E+02  1.250000000E+02  0.00000E+00  9.000E+00
      25     1     1     2     0     0 -2.253240693E+02  1.162637813E+02 -2.288505622E+02  3.637111255E+02  1.250000000E+02  0.00000E+00  9.000E+00
      21     1     1     2   512   502 -3.959067750E+01  1.490897767E-01  1.215253989E+02  1.278118404E+02  1.348699152E-06  0.00000E+00  9.000E+00
#rwgt            1           1   2.8415830415583095E-002           5      223892           0
</event>
<event>
      5   9999  3.19816E-02  7.54037E+01 -1.00000E+00  1.29606E-01
       2    -1     0     0   502     0  0.000000000E+00  0.000000000E+00  1.164413991E+03  1.164413991E+03  0.000000000E+00  0.00000E+00  9.000E+00
      21    -1     0     0   501   502  0.000000000E+00  0.000000000E+00 -5.001834074E+01  5.001834074E+01  0.000000000E+00  0.00000E+00  9.000E+00
      25     1     1     2     0     0 -7.504199766E+01  1.379211471E+01  1.026856425E+02  1.788599034E+02  1.250000000E+02  0.00000E+00  9.000E+00
      25     1     1     2     0     0  1.391828577E+01 -5.794652990E+01  5.203941468E+02  5.385040270E+02  1.250000000E+02  0.00000E+00  9.000E+00
       2     1     1     2   501     0  6.112371189E+01  4.415441519E+01  4.913158614E+02  4.970684019E+02  0.000000000E+00  0.00000E+00  9.000E+00
#rwgt            1           1   2.8921928048575785E-002           5      224119           0
</event>
<event>
      5   9999  3.19816E-02  5.72230E+01 -1.00000E+00  1.35812E-01
      21    -1     0     0   502   501  0.000000000E+00  0.000000000E+00  1.082972437E+03  1.082972437E+03  0.000000000E+00  0.00000E+00  9.000E+00
      21    -1     0     0   511   502  0.000000000E+00  0.000000000E+00 -6.279882984E+02  6.279882984E+02  0.000000000E+00  0.00000E+00  9.000E+00
      25     1     1     2     0     0  7.453624118E+02  9.929998085E+01  1.408445285E+02  7.751695249E+02  1.250000000E+02  0.00000E+00  9.000E+00
      25     1     1     2     0     0 -7.695425263E+02 -4.743672935E+01  3.622927882E+02  8.610034886E+02  1.250000000E+02  0.00000E+00  9.000E+00
      21     1     1     2   511   501  2.418011445E+01 -5.186325150E+01 -4.815317803E+01  7.478772189E+01  1.507891493E-06  0.00000E+00  9.000E+00
#rwgt            1           1   3.3392661555888201E-002           5      224168           0
</event>
<event>
      5   9999  3.19816E-02  3.03389E+01 -1.00000E+00  1.52702E-01
      21    -1     0     0   502   501  0.000000000E+00  0.000000000E+00  1.091034562E+03  1.091034562E+03  0.000000000E+00  0.00000E+00  9.000E+00
      21    -1     0     0   501   512  0.000000000E+00  0.000000000E+00 -9.488838657E+02  9.488838657E+02  0.000000000E+00  0.00000E+00  9.000E+00
      25     1     1     2     0     0 -3.019302581E+02  1.316255034E+01 -8.819198910E+02  9.406076906E+02  1.250000000E+02  0.00000E+00  9.000E+00
      25     1     1     2     0     0  2.722231565E+02 -1.932203801E+01  1.025903805E+03  1.068916463E+03  1.250000000E+02  0.00000E+00  9.000E+00
      21     1     1     2   502   512  2.970710159E+01  6.159487675E+00 -1.833218199E+00  3.039427351E+01  5.832429466E-07  0.00000E+00  9.000E+00
#rwgt            1           1   3.2480901086454829E-002           5      224313           0
</event>
<event>
      5   9999  3.19816E-02  8.29000E+01 -1.00000E+00  1.27605E-01
      21    -1     0     0   502   501  0.000000000E+00  0.000000000E+00  5.111861054E+02  5.111861054E+02  0.000000000E+00  0.00000E+00  9.000E+00
      21    -1     0     0   511   502  0.000000000E+00  0.000000000E+00 -6.075157371E+02  6.075157371E+02  0.000000000E+00  0.00000E+00  9.000E+00
      25     1     1     2     0     0 -2.433307585E+02  2.457132371E+02  3.534741537E+02  5.100527720E+02  1.250000000E+02  0.00000E+00  9.000E+00
      25     1     1     2     0     0  1.617646668E+02 -2.309018364E+02 -2.669693624E+02  4.078984015E+02  1.250000000E+02  0.00000E+00  9.000E+00
      21     1     1     2   511   501  8.156609168E+01 -1.481140079E+01 -1.828344229E+02  2.007506690E+02  2.697398305E-06  0.00000E+00  9.000E+00
#rwgt            1           1   2.4100000468317073E-002           5      224538           0
</event>
<event>
      5   9999  3.19816E-02  3.66390E+01 -1.00000E+00  1.47244E-01
      21    -1     0     0   512   501  0.000000000E+00  0.000000000E+00  1.109166327E+03  1.109166327E+03  0.000000000E+00  0.00000E+00  9.000E+00
      21    -1     0     0   501   502  0.000000000E+00  0.000000000E+00 -1.482724088E+02  1.482724088E+02  0.000000000E+00  0.00000E+00  9.000E+00
      25     1     1     2     0     0 -1.444798267E+02  2.234429119E+02  8.098271385E+01  3.049333618E+02  1.250000000E+02  0.00000E+00  9.000E+00
      25     1     1     2     0     0  1.811167318E+02 -2.238315021E+02  6.759132499E+02  7.452432712E+02  1.250000000E+02  0.00000E+00  9.000E+00
      21     1     1     2   512   502 -3.663690510E+01  3.885901814E-01  2.039979544E+02  2.072621027E+02  2.697398305E-06  0.00000E+00  9.000E+00
#rwgt            1           1   2.7961144316688950E-002           5      224624           0
</event>
<event>
      5   9999  3.19816E-02  1.37620E+02 -1.00000E+00  1.17896E-01
       2    -1     0     0   502     0  0.000000000E+00  0.000000000E+00  1.648329995E+03  1.648329995E+03  0.000000000E+00  0.00000E+00  9.000E+00
      21    -1     0     0   501   502  0.000000000E+00  0.000000000E+00 -5.777352222E+02  5.777352222E+02  0.000000000E+00  0.00000E+00  9.000E+00
      25     1     1     2     0     0  6.682031699E+02 -2.902378632E+02  1.850802369E+01  7.393923454E+02  1.250000000E+02  0.00000E+00  9.000E+00
      25     1     1     2     0     0 -5.365441938E+02  3.303017710E+02  2.771017903E+02  6.995636740E+02  1.250000000E+02  0.00000E+00  9.000E+00
       2     1     1     2   501     0 -1.316589762E+02 -4.006390779E+01  7.749849586E+02  7.871091975E+02  1.525878906E-05  0.00000E+00  9.000E+00
#rwgt            1           1   3.1254081423126474E-002           5      224713           0
</event>
<event>
      5   9999  3.19816E-02  1.11843E+02 -1.00000E+00  1.21680E-01
      21    -1     0     0   511   501  0.000000000E+00  0.000000000E+00  3.778029656E+02  3.778029656E+02  0.000000000E+00  0.00000E+00  9.000E+00
      21    -1     0     0   501   502  0.000000000E+00  0.000000000E+00 -3.249786372E+02  3.249786372E+02  0.000000000E+00  0.00000E+00  9.000E+00
      25     1     1     2     0     0  3.259697125E+01  1.964159110E+02 -2.145800349E+02  3.182944612E+02  1.250000000E+02  0.00000E+00  9.000E+00
      25     1     1     2     0     0 -5.594664874E+01 -8.703749456E+01  1.815060162E+02  2.434645495E+02  1.250000000E+02  0.00000E+00  9.000E+00
      21     1     1     2   511   502  2.334967750E+01 -1.093784164E+02  8.589834714E+01  1.410225920E+02  1.348699152E-06  0.00000E+00  9.000E+00
#rwgt            1           1   3.2314897367772967E-002           5      224791           0
</event>
<event>
      5   9999  3.19816E-02  1.09754E+02 -1.00000E+00  1.22037E-01
      21    -1     0     0   502   501  0.000000000E+00  0.000000000E+00  3.996142819E+02  3.996142819E+02  0.000000000E+00  0.00000E+00  9.000E+00
      21    -1     0     0   501   512  0.000000000E+00  0.000000000E+00 -3.409986172E+02  3.409986172E+02  0.000000000E+00  0.00000E+00  9.000E+00
      25     1     1     2     0     0 -4.020160291E+01 -2.984617322E+02 -4.418788302E+01  3.290488466E+02  1.250000000E+02  0.00000E+00  9.000E+00
      25     1     1     2     0     0 -5.559914762E+01  2.449067795E+02  1.105793578E+02  3.015350563E+02  1.250000000E+02  0.00000E+00  9.000E+00
      21     1     1     2   502   512  9.580075052E+01  5.355495269E+01 -7.775810034E+00  1.100289961E+02  5.264139692E-07  0.00000E+00  9.000E+00
#rwgt            1           1   2.9399784753507623E-002           5      224891           0
</event>
<event>
      5   9999  3.19816E-02  8.68194E+01 -1.00000E+00  1.26653E-01
      21    -1     0     0   502   501  0.000000000E+00  0.000000000E+00  3.401463701E+02  3.401463701E+02  0.000000000E+00  0.00000E+00  9.000E+00
      21    -1     0     0   511   502  0.000000000E+00  0.000000000E+00 -3.671052849E+02  3.671052849E+02  0.000000000E+00  0.00000E+00  9.000E+00
      25     1     1     2     0     0  2.141579492E+02 -2.107653354E+02  1.010350133E+02  3.407619810E+02  1.250000000E+02  0.00000E+00  9.000E+00
      25     1     1     2     0     0 -1.412552788E+02  1.636185955E+02 -6.157586921E+01  2.571783161E+02  1.250000000E+02  0.00000E+00  9.000E+00
      21     1     1     2   511   501 -7.290267038E+01  4.714673985E+01 -6.641805880E+01  1.093113579E+02  2.132480600E-06  0.00000E+00  9.000E+00
#rwgt            1           1   2.4948067831021690E-002           5      224987           0
</event>
<event>
      5   9999  3.19816E-02  1.06084E+02 -1.00000E+00  1.22685E-01
      21    -1     0     0   512   501  0.000000000E+00  0.000000000E+00  1.961836613E+03  1.961836613E+03  0.000000000E+00  0.00000E+00  9.000E+00
      21    -1     0     0   501   502  0.000000000E+00  0.000000000E+00 -1.390693606E+02  1.390693606E+02  0.000000000E+00  0.00000E+00  9.000E+00
      25     1     1     2     0     0  1.348314087E+02  3.543557440E+02  2.433582558E+02  4.675422363E+02  1.250000000E+02  0.00000E+00  9.000E+00
      25     1     1     2     0     0 -1.163414811E+02 -2.498951179E+02  1.018901261E+03  1.062905307E+03  1.250000000E+02  0.00000E+00  9.000E+00
      21     1     1     2   512   502 -1.848992764E+01 -1.044606262E+02  5.605077348E+02  5.704584302E+02  1.078959322E-05  0.00000E+00  9.000E+00
#rwgt            1           1   2.8891456412163397E-002           5      225089           0
</event>
<event>
      5   9999  3.19816E-02  5.64957E+00 -1.00000E+00  2.29609E-01
      21    -1     0     0   502   501  0.000000000E+00  0.000000000E+00  5.281771970E+02  5.281771970E+02  0.000000000E+00  0.00000E+00  9.000E+00
      21    -1     0     0   501   511  0.000000000E+00  0.000000000E+00 -6.052154253E+01  6.052154253E+01  0.000000000E+00  0.00000E+00  9.000E+00
      25     1     1     2     0     0  1.110484088E+02  4.123806184E+00  1.897084421E+02  2.529091692E+02  1.250000000E+02  0.00000E+00  9.000E+00
      25     1     1     2     0     0 -1.143246710E+02 -8.726381212E+00  2.818282883E+02  3.289353496E+02  1.250000000E+02  0.00000E+00  9.000E+00
      21     1     1     2   502   511  3.276262209E+00  4.602575027E+00 -3.881075947E+00  6.854220703E+00  1.332800375E-07  0.00000E+00  9.000E+00
#rwgt            1           1   3.1260814783969630E-002           5      225174           0
</event>
<event>
      5   9999  3.19816E-02  6.34931E+01 -1.00000E+00  1.33403E-01
      21    -1     0     0   502   501  0.000000000E+00  0.000000000E+00  8.680748202E+02  8.680748202E+02  0.000000000E+00  0.00000E+00  9.000E+00
      21    -1     0     0   512   502  0.000000000E+00  0.000000000E+00 -5.198867956E+02  5.198867956E+02  0.000000000E+00  0.00000E+00  9.000E+00
      25     1     1     2     0     0  1.080080277E+02 -3.207372689E+02  9.847508274E+01  3.739792395E+02  1.250000000E+02  0.00000E+00  9.000E+00
      25     1     1     2     0     0 -1.384357824E+02  3.764645232E+02  5.584169440E+02  6.988164898E+02  1.250000000E+02  0.00000E+00  9.000E+00
      21     1     1     2   512   501  3.042775473E+01 -5.572725431E+01 -3.087040021E+02  3.151658865E+02  3.814697266E-06  0.00000E+00  9.000E+00
#rwgt            1           1   3.0252819017045122E-002           5      225487           0
</event>
<event>
      5   9999  3.19816E-02  2.91651E+01 -1.00000E+00  1.53896E-01
      21    -1     0     0   511   501  0.000000000E+00  0.000000000E+00  4.082643266E+03  4.082643266E+03  0.000000000E+00  0.00000E+00  9.000E+00
      21    -1     0     0   501   502  0.000000000E+00  0.000000000E+00 -2.952696249E+01  2.952696249E+01  0.000000000E+00  0.00000E+00  9.000E+00
      25     1     1     2     0     0 -9.449072994E+01 -1.483325658E+02  5.030631891E+02  5.473834308E+02  1.250000000E+02  0.00000E+00  9.000E+00
      25     1     1     2     0     0  1.215146117E+02  1.373637452E+02  1.690774578E+03  1.705279529E+03  1.250000000E+02  0.00000E+00  9.000E+00
      21     1     1     2   511   502 -2.702388179E+01  1.096882060E+01  1.859278537E+03  1.859507269E+03  2.157918644E-05  0.00000E+00  9.000E+00
#rwgt            1           1   8.0054142237823006E-002           5      225582           0
</event>
<event>
      5   9999  3.19816E-02  5.00012E+01 -1.00000E+00  1.39075E-01
      21    -1     0     0   502   501  0.000000000E+00  0.000000000E+00  5.674185163E+02  5.674185163E+02  0.000000000E+00  0.00000E+00  9.000E+00
      21    -1     0     0   512   502  0.000000000E+00  0.000000000E+00 -1.512086204E+02  1.512086204E+02  0.000000000E+00  0.00000E+00  9.000E+00
      25     1     1     2     0     0 -1.144827766E+02  2.220813326E+02  1.734058562E+02  3.288176020E+02  1.250000000E+02  0.00000E+00  9.000E+00
      25     1     1     2     0     0  1.136348950E+02 -1.720873509E+02  2.392302365E+02  3.396808087E+02  1.250000000E+02  0.00000E+00  9.000E+00
      21     1     1     2   512   501  8.478815464E-01 -4.999398166E+01  3.573803202E+00  5.012872604E+01  3.862822472E-07  0.00000E+00  9.000E+00
#rwgt            1           1   2.0816068623864807E-002           5      225708           0
</event>
<event>
      5   9999  3.19816E-02  1.31625E+02 -1.00000E+00  1.18688E-01
      21    -1     0     0   502   501  0.000000000E+00  0.000000000E+00  2.853442748E+03  2.853442748E+03  0.000000000E+00  0.00000E+00  9.000E+00
      21    -1     0     0   501   511  0.000000000E+00  0.000000000E+00 -2.026889305E+03  2.026889305E+03  0.000000000E+00  0.00000E+00  9.000E+00
      25     1     1     2     0     0 -1.287382551E+03  1.087336505E+03 -1.039843095E+03  1.984074890E+03  1.250000000E+02  0.00000E+00  9.000E+00
      25     1     1     2     0     0  1.203536668E+03 -9.858722959E+02  2.106929998E+03  2.622064780E+03  1.250000000E+02  0.00000E+00  9.000E+00
      21     1     1     2   502   511  8.384588317E+01 -1.014642093E+02 -2.405334592E+02  2.741923830E+02  2.697398305E-06  0.00000E+00  9.000E+00
#rwgt            1           1   3.3725525216373874E-003           5      225770           0
</event>
<event>
      5   9999  3.19816E-02  6.89999E+01 -1.00000E+00  1.31538E-01
      21    -1     0     0   502   501  0.000000000E+00  0.000000000E+00  6.701110187E+02  6.701110187E+02  0.000000000E+00  0.00000E+00  9.000E+00
      21    -1     0     0   501   512  0.000000000E+00  0.000000000E+00 -4.871115193E+02  4.871115193E+02  0.000000000E+00  0.00000E+00  9.000E+00
      25     1     1     2     0     0  2.455212333E+01  4.562268233E+02 -2.082915195E+02  5.174515225E+02  1.250000000E+02  0.00000E+00  9.000E+00
      25     1     1     2     0     0 -2.550008679E+01 -3.872333959E+02  3.988524636E+02  5.703579973E+02  1.250000000E+02  0.00000E+00  9.000E+00
      21     1     1     2   502   512  9.479634576E-01 -6.899342738E+01 -7.561444666E+00  6.941301825E+01  1.474537477E-06  0.00000E+00  9.000E+00
#rwgt            1           1   2.6958604150053463E-002           5      225879           0
</event>
<event>
      5   9999  3.19816E-02  2.18689E+02 -1.00000E+00  1.10254E-01
      21    -1     0     0   502   511  0.000000000E+00  0.000000000E+00  4.751975701E+02  4.751975701E+02  0.000000000E+00  0.00000E+00  9.000E+00
      21    -1     0     0   501   502  0.000000000E+00  0.000000000E+00 -5.823792027E+02  5.823792027E+02  0.000000000E+00  0.00000E+00  9.000E+00
      25     1     1     2     0     0  4.336364459E+02 -2.099313630E+02 -1.318199439E+02  5.148914856E+02  1.250000000E+02  0.00000E+00  9.000E+00
      25     1     1     2     0     0 -2.726970295E+02  6.186617479E+01 -5.255930098E+01  3.107709343E+02  1.250000000E+02  0.00000E+00  9.000E+00
      21     1     1     2   501   511 -1.609394164E+02  1.480651882E+02  7.719761223E+01  2.319143528E+02  1.907348633E-06  0.00000E+00  9.000E+00
#rwgt            1           1   2.8745501540800578E-002           5      225967           0
</event>
<event>
      5   9999  3.19816E-02  7.52831E+01 -1.00000E+00  1.29640E-01
      21    -1     0     0   502   501  0.000000000E+00  0.000000000E+00  1.283731883E+02  1.283731883E+02  0.000000000E+00  0.00000E+00  9.000E+00
      21    -1     0     0   512   502  0.000000000E+00  0.000000000E+00 -6.116089081E+02  6.116089081E+02  0.000000000E+00  0.00000E+00  9.000E+00
      25     1     1     2     0     0  1.006715867E+02  6.765233922E+01 -2.262287750E+02  2.855101854E+02  1.250000000E+02  0.00000E+00  9.000E+00
      25     1     1     2     0     0 -1.436290981E+02 -5.828462187E+00 -4.037049989E+00  1.905376251E+02  1.250000000E+02  0.00000E+00  9.000E+00
      21     1     1     2   512   501  4.295751148E+01 -6.182387703E+01 -2.529698948E+02  2.639342859E+02  5.394796609E-06  0.00000E+00  9.000E+00
#rwgt            1           1   2.5754684380648797E-002           5      226013           0
</event>
<event>
      5   9999  3.19816E-02  1.18570E+01 -1.00000E+00  1.87577E-01
      21    -1     0     0   502   501  0.000000000E+00  0.000000000E+00  2.364919165E+02  2.364919165E+02  0.000000000E+00  0.00000E+00  9.000E+00
      21    -1     0     0   501   511  0.000000000E+00  0.000000000E+00 -2.036501969E+03  2.036501969E+03  0.000000000E+00  0.00000E+00  9.000E+00
      25     1     1     2     0     0 -1.833233857E+02  2.732096470E+02  5.681557419E+01  3.565164574E+02  1.250000000E+02  0.00000E+00  9.000E+00
      25     1     1     2     0     0  1.930861892E+02 -2.799384563E+02 -1.072199505E+03  1.131761721E+03  1.250000000E+02  0.00000E+00  9.000E+00
      21     1     1     2   502   511 -9.762803559E+00  6.728809284E+00 -7.846261222E+02  7.847157070E+02  1.078959322E-05  0.00000E+00  9.000E+00
#rwgt            1           1   2.6990698154699122E-002           5      226053           0
</event>
<event>
      5   9999  3.19816E-02  3.59472E+01 -1.00000E+00  1.47777E-01
      21    -1     0     0   502   501  0.000000000E+00  0.000000000E+00  7.132769987E+01  7.132769987E+01  0.000000000E+00  0.00000E+00  9.000E+00
       1    -1     0     0   501     0  0.000000000E+00  0.000000000E+00 -7.926877159E+02  7.926877159E+02  0.000000000E+00  0.00000E+00  9.000E+00
      25     1     1     2     0     0 -5.394463898E+01  5.729611063E+00 -2.459821888E+01  1.384663312E+02  1.250000000E+02  0.00000E+00  9.000E+00
      25     1     1     2     0     0  8.984309760E+01 -3.859112973E+00 -4.375209610E+02  4.638278412E+02  1.250000000E+02  0.00000E+00  9.000E+00
       1     1     1     2   502     0 -3.589845862E+01 -1.870498090E+00 -2.592408361E+02  2.617212433E+02  3.814697266E-06  0.00000E+00  9.000E+00
#rwgt            1           1   2.6223361216280629E-002           5      226307           0
</event>
<event>
      5   9999  3.19816E-02  1.42020E+02 -1.00000E+00  1.17342E-01
      21    -1     0     0   511   501  0.000000000E+00  0.000000000E+00  1.850752703E+03  1.850752703E+03  0.000000000E+00  0.00000E+00  9.000E+00
      21    -1     0     0   501   502  0.000000000E+00  0.000000000E+00 -5.392941756E+01  5.392941756E+01  0.000000000E+00  0.00000E+00  9.000E+00
      25     1     1     2     0     0  2.264746995E+01  1.349696605E+01  7.114436102E+01  1.462244716E+02  1.250000000E+02  0.00000E+00  9.000E+00
      25     1     1     2     0     0  8.123181964E+01 -1.103412868E+02  1.185535037E+03  1.199955054E+03  1.250000000E+02  0.00000E+00  9.000E+00
      21     1     1     2   511   502 -1.038792896E+02  9.684432076E+01  5.401438879E+02  5.585025952E+02  1.078959322E-05  0.00000E+00  9.000E+00
#rwgt            1           1   3.8761117804420160E-002           5      226441           0
</event>
<event>
      5   9999  3.19816E-02  7.80442E+01 -1.00000E+00  1.28872E-01
      21    -1     0     0   512   501  0.000000000E+00  0.000000000E+00  8.721894058E+02  8.721894058E+02  0.000000000E+00  0.00000E+00  9.000E+00
      21    -1     0     0   501   502  0.000000000E+00  0.000000000E+00 -3.258310781E+02  3.258310781E+02  0.000000000E+00  0.00000E+00  9.000E+00
      25     1     1     2     0     0  1.417624552E+02 -3.192660314E+01  2.370200195E+02  3.048268219E+02  1.250000000E+02  0.00000E+00  9.000E+00
      25     1     1     2     0     0 -1.443256935E+02 -4.607550248E+01 -2.559030440E+02  3.225898722E+02  1.250000000E+02  0.00000E+00  9.000E+00
      21     1     1     2   512   502  2.563238277E+00  7.800210562E+01  5.652413522E+02  5.706037898E+02  0.000000000E+00  0.00000E+00  9.000E+00
#rwgt            1           1   2.9428283758519934E-002           5      226511           0
</event>
<event>
      5   9999  3.19816E-02  2.85245E+01 -1.00000E+00  1.54577E-01
      21    -1     0     0   502   501  0.000000000E+00  0.000000000E+00  2.355882552E+02  2.355882552E+02  0.000000000E+00  0.00000E+00  9.000E+00
      21    -1     0     0   501   511  0.000000000E+00  0.000000000E+00 -4.069856256E+02  4.069856256E+02  0.000000000E+00  0.00000E+00  9.000E+00
      25     1     1     2     0     0 -2.226402409E+01 -2.386832104E+02 -6.206695105E+00  2.704235285E+02  1.250000000E+02  0.00000E+00  9.000E+00
      25     1     1     2     0     0  2.803894687E+01  2.666170502E+02 -1.210767086E+02  3.196175892E+02  1.250000000E+02  0.00000E+00  9.000E+00
      21     1     1     2   502   511 -5.774922784E+00 -2.793383977E+01 -4.411396668E+01  5.253276305E+01  4.768371582E-07  0.00000E+00  9.000E+00
#rwgt            1           1   2.9312634686919803E-002           5      226597           0
</event>
<event>
      5   9999  3.19816E-02  2.28670E+01 -1.00000E+00  1.61708E-01
      21    -1     0     0   502   501  0.000000000E+00  0.000000000E+00  9.067737477E+02  9.067737477E+02  0.000000000E+00  0.00000E+00  9.000E+00
      21    -1     0     0   501   512  0.000000000E+00  0.000000000E+00 -6.126506776E+02  6.126506776E+02  0.000000000E+00  0.00000E+00  9.000E+00
      25     1     1     2     0     0  1.023241414E+02  3.042835401E+02  8.046315313E+02  8.752803001E+02  1.250000000E+02  0.00000E+00  9.000E+00
      25     1     1     2     0     0 -1.236256478E+02 -3.125988357E+02 -5.069727892E+02  6.210054282E+02  1.250000000E+02  0.00000E+00  9.000E+00
      21     1     1     2   502   512  2.130150646E+01  8.315295575E+00 -3.535672013E+00  2.313869690E+01  5.607273496E-07  0.00000E+00  9.000E+00
#rwgt            1           1   3.4450952541827520E-002           5      226707           0
</event>
<event>
      5   9999  3.19816E-02  1.72900E+01 -1.00000E+00  1.71761E-01
      21    -1     0     0   502   511  0.000000000E+00  0.000000000E+00  7.686725079E+02  7.686725079E+02  0.000000000E+00  0.00000E+00  9.000E+00
      21    -1     0     0   501   502  0.000000000E+00  0.000000000E+00 -1.031453684E+03  1.031453684E+03  0.000000000E+00  0.00000E+00  9.000E+00
      25     1     1     2     0     0 -3.959631745E+02 -1.472953402E+02 -7.862976322E+02  9.013166587E+02  1.250000000E+02  0.00000E+00  9.000E+00
      25     1     1     2     0     0  3.802786252E+02  1.400193160E+02  5.231704230E+01  4.272930079E+02  1.250000000E+02  0.00000E+00  9.000E+00
      21     1     1     2   501   511  1.568454930E+01  7.276024278E+00  4.711994140E+02  4.715165251E+02  7.629394531E-06  0.00000E+00  9.000E+00
#rwgt            1           1   2.9638647615448554E-002           5      226989           0
</event>
<event>
      5   9999  3.19816E-02  6.40347E+01 -1.00000E+00  1.33210E-01
      21    -1     0     0   512   501  0.000000000E+00  0.000000000E+00  4.816319089E+02  4.816319089E+02  0.000000000E+00  0.00000E+00  9.000E+00
      21    -1     0     0   501   502  0.000000000E+00  0.000000000E+00 -3.331830227E+02  3.331830227E+02  0.000000000E+00  0.00000E+00  9.000E+00
      25     1     1     2     0     0 -2.143924768E+02  1.384354930E+02 -1.819426646E+02  3.374265150E+02  1.250000000E+02  0.00000E+00  9.000E+00
      25     1     1     2     0     0  1.516116935E+02 -1.510457806E+02  1.590885717E+02  2.945082463E+02  1.250000000E+02  0.00000E+00  9.000E+00
      21     1     1     2   512   502  6.278078323E+01  1.261028763E+01  1.713029790E+02  1.828801703E+02  3.303624740E-06  0.00000E+00  9.000E+00
#rwgt            1           1   2.7508217833076967E-002           5      227251           0
</event>
<event>
      5   9999  3.19816E-02  6.62509E+01 -1.00000E+00  1.32443E-01
      21    -1     0     0   502   511  0.000000000E+00  0.000000000E+00  1.878787961E+02  1.878787961E+02  0.000000000E+00  0.00000E+00  9.000E+00
      21    -1     0     0   501   502  0.000000000E+00  0.000000000E+00 -1.676466953E+03  1.676466953E+03  0.000000000E+00  0.00000E+00  9.000E+00
      25     1     1     2     0     0  2.309226439E+01  3.713009058E+02 -1.227258277E+03  1.288481857E+03  1.250000000E+02  0.00000E+00  9.000E+00
      25     1     1     2     0     0 -6.491623943E+01 -4.226812401E+02 -2.411476280E+02  5.066070740E+02  1.250000000E+02  0.00000E+00  9.000E+00
      21     1     1     2   501   511  4.182397505E+01  5.138033437E+01 -2.018225148E+01  6.925681861E+01  1.348699152E-06  0.00000E+00  9.000E+00
#rwgt            1           1   2.9132981378811981E-002           5      227326           0
</event>
<event>
      5   9999  3.19816E-02  1.24519E+01 -1.00000E+00  1.85356E-01
      21    -1     0     0   502   512  0.000000000E+00  0.000000000E+00  1.517437031E+02  1.517437031E+02  0.000000000E+00  0.00000E+00  9.000E+00
      21    -1     0     0   501   502  0.000000000E+00  0.000000000E+00 -3.826381226E+02  3.826381226E+02  0.000000000E+00  0.00000E+00  9.000E+00
      25     1     1     2     0     0 -1.913398816E+02 -1.920361431E+01 -9.361605877E+01  2.477270586E+02  1.250000000E+02  0.00000E+00  9.000E+00
      25     1     1     2     0     0  2.017641307E+02  1.239297077E+01 -1.367225770E+02  2.741904688E+02  1.250000000E+02  0.00000E+00  9.000E+00
      21     1     1     2   501   512 -1.042424905E+01  6.810643538E+00 -5.557837747E-01  1.246429819E+01  2.001975304E-07  0.00000E+00  9.000E+00
#rwgt            1           1   2.4664420293371053E-002           5      227456           0
</event>
<event>
      5   9999  3.19816E-02  2.26211E+01 -1.00000E+00  1.62074E-01
      21    -1     0     0   502   511  0.000000000E+00  0.000000000E+00  6.759696869E+02  6.759696869E+02  0.000000000E+00  0.00000E+00  9.000E+00
      21    -1     0     0   501   502  0.000000000E+00  0.000000000E+00 -4.131965229E+02  4.131965229E+02  0.000000000E+00  0.00000E+00  9.000E+00
      25     1     1     2     0     0  4.565123024E+02  2.152458162E+01  2.547147562E+02  5.379325208E+02  1.250000000E+02  0.00000E+00  9.000E+00
      25     1     1     2     0     0 -4.704877208E+02 -3.736952047E+00 -4.955380223E+01  4.893395954E+02  1.250000000E+02  0.00000E+00  9.000E+00
      21     1     1     2   501   511  1.397541845E+01 -1.778762957E+01  5.761221003E+01  6.189409367E+01  6.743495762E-07  0.00000E+00  9.000E+00
#rwgt            1           1   2.9676849659053466E-002           5      227588           0
</event>
<event>
      5   9999  3.19816E-02  5.45494E+01 -1.00000E+00  1.36951E-01
      21    -1     0     0   512   501  0.000000000E+00  0.000000000E+00  5.485537149E+02  5.485537149E+02  0.000000000E+00  0.00000E+00  9.000E+00
      21    -1     0     0   501   502  0.000000000E+00  0.000000000E+00 -1.668454697E+02  1.668454697E+02  0.000000000E+00  0.00000E+00  9.000E+00
      25     1     1     2     0     0  1.718283168E+02 -7.464390024E+01 -3.642263669E+01  2.281409449E+02  1.250000000E+02  0.00000E+00  9.000E+00
      25     1     1     2     0     0 -1.482468416E+02  2.545501689E+01  3.308626022E+02  3.843437855E+02  1.250000000E+02  0.00000E+00  9.000E+00
      21     1     1     2   512   502 -2.358147516E+01  4.918888336E+01  8.726827970E+01  1.029144541E+02  0.000000000E+00  0.00000E+00  9.000E+00
#rwgt            1           1   3.4240900069331504E-002           5      227739           0
</event>
<event>
      5   9999  3.19816E-02  1.58409E+02 -1.00000E+00  1.15462E-01
      21    -1     0     0   502   501  0.000000000E+00  0.000000000E+00  1.869619150E+02  1.869619150E+02  0.000000000E+00  0.00000E+00  9.000E+00
      21    -1     0     0   511   502  0.000000000E+00  0.000000000E+00 -3.197792336E+03  3.197792336E+03  0.000000000E+00  0.00000E+00  9.000E+00
      25     1     1     2     0     0  2.572152902E+02 -3.471072824E+01 -4.525695375E+02  5.364780764E+02  1.250000000E+02  0.00000E+00  9.000E+00
      25     1     1     2     0     0 -9.998720483E+01  5.401549823E+01  9.262315202E+01  1.926633423E+02  1.250000000E+02  0.00000E+00  9.000E+00
      21     1     1     2   511   501 -1.572280854E+02 -1.930476999E+01 -2.650884035E+03  2.655612832E+03  3.051757812E-05  0.00000E+00  9.000E+00
#rwgt            1           1   2.7476514991627732E-002           5      227803           0
</event>
<event>
      5   9999  3.19816E-02  5.05736E+01 -1.00000E+00  1.38793E-01
      21    -1     0     0   502   501  0.000000000E+00  0.000000000E+00  5.842217893E+02  5.842217893E+02  0.000000000E+00  0.00000E+00  9.000E+00
      21    -1     0     0   512   502  0.000000000E+00  0.000000000E+00 -1.311597329E+02  1.311597329E+02  0.000000000E+00  0.00000E+00  9.000E+00
      25     1     1     2     0     0 -1.542612444E+01 -9.218287784E+01  4.836127873E+02  5.081751434E+02  1.250000000E+02  0.00000E+00  9.000E+00
      25     1     1     2     0     0  3.312199576E+01  4.480624137E+01  1.685244832E+01  1.378900681E+02  1.250000000E+02  0.00000E+00  9.000E+00
      21     1     1     2   512   501 -1.769587131E+01  4.737663647E+01 -4.740317921E+01  6.931631081E+01  0.000000000E+00  0.00000E+00  9.000E+00
#rwgt            1           1   3.1208565119178824E-002           5      227833           0
</event>
<event>
      5   9999  3.19816E-02  1.25777E+01 -1.00000E+00  1.84906E-01
      21    -1     0     0   502   511  0.000000000E+00  0.000000000E+00  7.112387904E+02  7.112387904E+02  0.000000000E+00  0.00000E+00  9.000E+00
      21    -1     0     0   501   502  0.000000000E+00  0.000000000E+00 -4.814979903E+02  4.814979903E+02  0.000000000E+00  0.00000E+00  9.000E+00
      25     1     1     2     0     0  1.668092254E+02 -2.914898239E+02 -2.809375193E+02  4.553487947E+02  1.250000000E+02  0.00000E+00  9.000E+00
      25     1     1     2     0     0 -1.548561695E+02  2.875753271E+02  1.567622509E+02  3.832484903E+02  1.250000000E+02  0.00000E+00  9.000E+00
      21     1     1     2   501   511 -1.195305590E+01  3.914496744E+00  3.539160685E+02  3.541394957E+02  5.394796609E-06  0.00000E+00  9.000E+00
#rwgt            1           1   2.7134535667521113E-002           5      227920           0
</event>
<event>
      5   9999  3.19816E-02  3.01324E+01 -1.00000E+00  1.52907E-01
      21    -1     0     0   502   501  0.000000000E+00  0.000000000E+00  1.663551239E+03  1.663551239E+03  0.000000000E+00  0.00000E+00  9.000E+00
      21    -1     0     0   512   502  0.000000000E+00  0.000000000E+00 -1.281793604E+03  1.281793604E+03  0.000000000E+00  0.00000E+00  9.000E+00
      25     1     1     2     0     0  8.473147329E+02  5.545928206E+02 -8.216351540E+02  1.310047625E+03  1.250000000E+02  0.00000E+00  9.000E+00
      25     1     1     2     0     0 -8.245252932E+02 -5.743058989E+02  1.231335699E+03  1.594202568E+03  1.250000000E+02  0.00000E+00  9.000E+00
      21     1     1     2   512   501 -2.278943969E+01  1.971307832E+01 -2.794291035E+01  4.109464998E+01  6.743495762E-07  0.00000E+00  9.000E+00
#rwgt            1           1   3.3580608203453655E-002           5      228162           0
</event>
<event>
      5   9999  3.19816E-02  4.59985E+01 -1.00000E+00  1.41174E-01
      21    -1     0     0   502   501  0.000000000E+00  0.000000000E+00  2.269151759E+02  2.269151759E+02  0.000000000E+00  0.00000E+00  9.000E+00
      21    -1     0     0   511   502  0.000000000E+00  0.000000000E+00 -9.504310694E+02  9.504310694E+02  0.000000000E+00  0.00000E+00  9.000E+00
      25     1     1     2     0     0  7.911358135E+01  2.644340529E+01 -8.129624345E+02  8.267352251E+02  1.250000000E+02  0.00000E+00  9.000E+00
      25     1     1     2     0     0 -4.017159730E+01 -5.092563243E+01  1.920607965E+02  2.381586170E+02  1.250000000E+02  0.00000E+00  9.000E+00
      21     1     1     2   511   501 -3.894198405E+01  2.448222714E+01 -1.026142555E+02  1.124524033E+02  1.907348633E-06  0.00000E+00  9.000E+00
#rwgt            1           1   3.2213214877296295E-002           5      228459           0
</event>
<event>
      5   9999  3.19816E-02  1.53475E+01 -1.00000E+00  1.76452E-01
      21    -1     0     0   502   501  0.000000000E+00  0.000000000E+00  5.875251454E+01  5.875251454E+01  0.000000000E+00  0.00000E+00  9.000E+00
      21    -1     0     0   512   502  0.000000000E+00  0.000000000E+00 -1.824040738E+03  1.824040738E+03  0.000000000E+00  0.00000E+00  9.000E+00
      25     1     1     2     0     0  7.814291385E+01 -1.607274735E+02 -3.001007043E+02  3.709785283E+02  1.250000000E+02  0.00000E+00  9.000E+00
      25     1     1     2     0     0 -8.762834047E+01  1.486621556E+02 -4.648625742E+02  5.113720519E+02  1.250000000E+02  0.00000E+00  9.000E+00
      21     1     1     2   512   501  9.485426619E+00  1.206531781E+01 -1.000324945E+03  1.000442672E+03  1.525878906E-05  0.00000E+00  9.000E+00
#rwgt            1           1   3.5283991575316524E-002           5      228595           0
</event>
<event>
      5   9999  3.19816E-02  1.44772E+01 -1.00000E+00  1.78847E-01
      21    -1     0     0   511   501  0.000000000E+00  0.000000000E+00  9.447997272E+01  9.447997272E+01  0.000000000E+00  0.00000E+00  9.000E+00
      21    -1     0     0   501   502  0.000000000E+00  0.000000000E+00 -1.345918748E+03  1.345918748E+03  0.000000000E+00  0.00000E+00  9.000E+00
      25     1     1     2     0     0 -4.360466903E+01  1.162137101E+02 -3.060172943E+02  3.530985386E+02  1.250000000E+02  0.00000E+00  9.000E+00
      25     1     1     2     0     0  2.961854268E+01 -1.199523714E+02 -1.007928942E+03  1.023138105E+03  1.250000000E+02  0.00000E+00  9.000E+00
      21     1     1     2   511   502  1.398612635E+01  3.738661297E+00  6.250746163E+01  6.416207663E+01  2.336015456E-06  0.00000E+00  9.000E+00
#rwgt            1           1   4.1098818415013567E-002           5      228715           0
</event>
<event>
      5   9999  3.19816E-02  1.10220E+01 -1.00000E+00  1.90995E-01
      21    -1     0     0   502   501  0.000000000E+00  0.000000000E+00  3.016700151E+02  3.016700151E+02  0.000000000E+00  0.00000E+00  9.000E+00
      21    -1     0     0   501   512  0.000000000E+00  0.000000000E+00 -4.270464639E+02  4.270464639E+02  0.000000000E+00  0.00000E+00  9.000E+00
      25     1     1     2     0     0  2.783228740E+01  2.311186060E+02 -2.141184590E+02  3.400914006E+02  1.250000000E+02  0.00000E+00  9.000E+00
      25     1     1     2     0     0 -3.349847151E+01 -2.405726928E+02  1.599601820E+02  3.165590434E+02  1.250000000E+02  0.00000E+00  9.000E+00
      21     1     1     2   502   512  5.666184103E+00  9.454086819E+00 -7.121817179E+01  7.206603495E+01  9.536743164E-07  0.00000E+00  9.000E+00
#rwgt            1           1   2.7735689874114067E-002           5      228808           0
</event>
<event>
      5   9999  3.19816E-02  1.36015E+01 -1.00000E+00  1.81484E-01
      21    -1     0     0   502   501  0.000000000E+00  0.000000000E+00  1.337255515E+02  1.337255515E+02  0.000000000E+00  0.00000E+00  9.000E+00
      21    -1     0     0   501   511  0.000000000E+00  0.000000000E+00 -3.191620820E+02  3.191620820E+02  0.000000000E+00  0.00000E+00  9.000E+00
      25     1     1     2     0     0 -4.903747071E+01  9.664537075E+01 -1.193660410E+02  2.040055219E+02  1.250000000E+02  0.00000E+00  9.000E+00
      25     1     1     2     0     0  5.704376492E+01 -1.076408304E+02  6.875226279E+00  1.746791580E+02  1.250000000E+02  0.00000E+00  9.000E+00
      21     1     1     2   502   511 -8.006294213E+00  1.099545966E+01 -7.294571572E+01  7.420295360E+01  0.000000000E+00  0.00000E+00  9.000E+00
#rwgt            1           1   2.7859192282131785E-002           5      229057           0
</event>
<event>
      5   9999  3.19816E-02  2.76208E+02 -1.00000E+00  1.06771E-01
      -4    -1     0     0     0   501  0.000000000E+00  0.000000000E+00  2.234001709E+03  2.234001709E+03  0.000000000E+00  0.00000E+00  9.000E+00
      21    -1     0     0   501   502  0.000000000E+00  0.000000000E+00 -2.090268142E+02  2.090268142E+02  0.000000000E+00  0.00000E+00  9.000E+00
      25     1     1     2     0     0  5.699544690E+02 -2.458573376E+02  6.176927464E+02  8.845695315E+02  1.250000000E+02  0.00000E+00  9.000E+00
      25     1     1     2     0     0 -3.578121983E+02  6.897736410E+01  6.973184783E+02  7.966589648E+02  1.250000000E+02  0.00000E+00  9.000E+00
      -4     1     1     2     0   502 -2.121422706E+02  1.768799735E+02  7.099636697E+02  7.618000265E+02  1.078959322E-05  0.00000E+00  9.000E+00
#rwgt            1           1   2.5873620087328488E-002           5      229219           0
</event>
<event>
      5   9999  3.19816E-02  2.08951E+01 -1.00000E+00  1.64815E-01
      21    -1     0     0   502   511  0.000000000E+00  0.000000000E+00  4.993585239E+01  4.993585239E+01  0.000000000E+00  0.00000E+00  9.000E+00
      21    -1     0     0   501   502  0.000000000E+00  0.000000000E+00 -2.414402832E+03  2.414402832E+03  0.000000000E+00  0.00000E+00  9.000E+00
      25     1     1     2     0     0 -4.508186825E+01 -7.048009196E+01 -1.157975753E+02  1.898259641E+02  1.250000000E+02  0.00000E+00  9.000E+00
      25     1     1     2     0     0  2.489018793E+01  6.510411260E+01 -2.249064797E+03  2.253613882E+03  1.250000000E+02  0.00000E+00  9.000E+00
      21     1     1     2   501   511  2.019168031E+01  5.375979353E+00  3.953928633E-01  2.089883833E+01  4.184613800E-07  0.00000E+00  9.000E+00
#rwgt            1           1   8.1639924074519768E-002           5      229258           0
</event>
<event>
      5   9999  3.19816E-02  1.97007E+02 -1.00000E+00  1.11887E-01
       2    -1     0     0   502     0  0.000000000E+00  0.000000000E+00  9.573480526E+02  9.573480526E+02  0.000000000E+00  0.00000E+00  9.000E+00
      21    -1     0     0   501   502  0.000000000E+00  0.000000000E+00 -7.307249682E+02  7.307249682E+02  0.000000000E+00  0.00000E+00  9.000E+00
      25     1     1     2     0     0 -2.686500388E+02  1.650713978E+02 -5.998235095E+02  6.890824713E+02  1.250000000E+02  0.00000E+00  9.000E+00
      25     1     1     2     0     0  1.143934445E+02 -2.876142949E+02  3.512331963E+02  4.845591821E+02  1.250000000E+02  0.00000E+00  9.000E+00
       2     1     1     2   501     0  1.542565943E+02  1.225428971E+02  4.752133976E+02  5.144313674E+02  5.394796609E-06  0.00000E+00  9.000E+00
#rwgt            1           1   2.8578157556462640E-002           5      229425           0
</event>
<event>
      5   9999  3.19816E-02  1.69630E+02 -1.00000E+00  1.14315E-01
      21    -1     0     0   502   501  0.000000000E+00  0.000000000E+00  1.710890786E+03  1.710890786E+03  0.000000000E+00  0.00000E+00  9.000E+00
      21    -1     0     0   511   502  0.000000000E+00  0.000000000E+00 -1.286701395E+02  1.286701395E+02  0.000000000E+00  0.00000E+00  9.000E+00
      25     1     1     2     0     0 -2.390659671E+01  3.064458884E+02  2.299838114E+02  4.037303078E+02  1.250000000E+02  0.00000E+00  9.000E+00
      25     1     1     2     0     0  8.580230861E+01 -1.485115562E+02  1.160844627E+03  1.180085999E+03  1.250000000E+02  0.00000E+00  9.000E+00
      21     1     1     2   511   501 -6.189571190E+01 -1.579343322E+02  1.913922087E+02  2.557446187E+02  3.814697266E-06  0.00000E+00  9.000E+00
#rwgt            1           1   2.4338737617037941E-002           5      229484           0
</event>
<event>
      5   9999  3.19816E-02  1.87866E+02 -1.00000E+00  1.12647E-01
      21    -1     0     0   502   501  0.000000000E+00  0.000000000E+00  5.884768083E+02  5.884768083E+02  0.000000000E+00  0.00000E+00  9.000E+00
      21    -1     0     0   501   512  0.000000000E+00  0.000000000E+00 -5.882772100E+02  5.882772100E+02  0.000000000E+00  0.00000E+00  9.000E+00
      25     1     1     2     0     0  4.576953362E+02  7.225008800E+00 -2.689963542E+02  5.454550944E+02  1.250000000E+02  0.00000E+00  9.000E+00
      25     1     1     2     0     0 -2.768756042E+02  4.374545455E+01  3.130254122E+02  4.383875839E+02  1.250000000E+02  0.00000E+00  9.000E+00
      21     1     1     2   502   512 -1.808197319E+02 -5.097046335E+01 -4.382945963E+01  1.929113400E+02  2.977847099E-06  0.00000E+00  9.000E+00
#rwgt            1           1   3.0231066843201912E-002           5      229558           0
</event>
<event>
      5   9999  3.19816E-02  2.50855E+02 -1.00000E+00  1.08180E-01
      21    -1     0     0   502   501  0.000000000E+00  0.000000000E+00  3.134833880E+02  3.134833880E+02  0.000000000E+00  0.00000E+00  9.000E+00
       1    -1     0     0   501     0  0.000000000E+00  0.000000000E+00 -1.484624388E+03  1.484624388E+03  0.000000000E+00  0.00000E+00  9.000E+00
      25     1     1     2     0     0  7.793419070E+01 -1.126988787E+02  2.246930934E+02  2.913533277E+02  1.250000000E+02  0.00000E+00  9.000E+00
      25     1     1     2     0     0 -2.704363137E+02 -4.814642744E+01 -5.888894395E+02  6.617171980E+02  1.250000000E+02  0.00000E+00  9.000E+00
       1     1     1     2   502     0  1.925021230E+02  1.608453062E+02 -8.069446537E+02  8.450372501E+02  1.868812365E-05  0.00000E+00  9.000E+00
#rwgt            2          12   5.8018880688287826E-004           5      229614           0
</event>
<event>
      5   9999  3.19816E-02  5.19474E+01 -1.00000E+00  1.38135E-01
      21    -1     0     0   502   501  0.000000000E+00  0.000000000E+00  1.393830124E+03  1.393830124E+03  0.000000000E+00  0.00000E+00  9.000E+00
      21    -1     0     0   511   502  0.000000000E+00  0.000000000E+00 -5.508118511E+02  5.508118511E+02  0.000000000E+00  0.00000E+00  9.000E+00
      25     1     1     2     0     0  1.753075300E+02  1.813170043E+02 -9.005321020E+01  2.955387738E+02  1.250000000E+02  0.00000E+00  9.000E+00
      25     1     1     2     0     0 -1.857013387E+02 -2.322139535E+02  1.268914723E+03  1.309266162E+03  1.250000000E+02  0.00000E+00  9.000E+00
      21     1     1     2   511   501  1.039380865E+01  5.089694923E+01 -3.358432408E+02  3.398370390E+02  1.078959322E-05  0.00000E+00  9.000E+00
#rwgt            1           1   2.8291861998836817E-002           5      229633           0
</event>
<event>
      5   9999  3.19816E-02  9.95102E+01 -1.00000E+00  1.23924E-01
      21    -1     0     0   502   501  0.000000000E+00  0.000000000E+00  6.088992273E+02  6.088992273E+02  0.000000000E+00  0.00000E+00  9.000E+00
      21    -1     0     0   501   512  0.000000000E+00  0.000000000E+00 -1.162181706E+03  1.162181706E+03  0.000000000E+00  0.00000E+00  9.000E+00
      25     1     1     2     0     0 -5.885762405E+02  3.044046969E+02 -2.704227826E+02  7.265243917E+02  1.250000000E+02  0.00000E+00  9.000E+00
      25     1     1     2     0     0  6.783986870E+02 -3.472323766E+02 -3.004940897E+01  7.728667860E+02  1.250000000E+02  0.00000E+00  9.000E+00
      21     1     1     2   502   512 -8.982244653E+01  4.282767962E+01 -2.528102874E+02  2.716897559E+02  2.697398305E-06  0.00000E+00  9.000E+00
#rwgt            1           1   2.8623169122040888E-002           5      229739           0
</event>
<event>
      5   9999  3.24465E-02  5.54207E+01 -1.00000E+00  1.36572E-01
      21    -1     0     0   511   501  0.000000000E+00  0.000000000E+00  1.456325443E+03  1.456325443E+03  0.000000000E+00  0.00000E+00  9.000E+00
      21    -1     0     0   501   502  0.000000000E+00  0.000000000E+00 -9.470490141E+02  9.470490141E+02  0.000000000E+00  0.00000E+00  9.000E+00
      25     1     1     2     0     0  7.807614891E+02  5.886535861E+02 -3.413072901E+02  1.043176502E+03  1.250000000E+02  0.00000E+00  9.000E+00
      25     1     1     2     0     0 -8.164606034E+02 -5.462621724E+02  7.390359789E+02  1.235641314E+03  1.250000000E+02  0.00000E+00  9.000E+00
      21     1     1     2   511   502  3.569911434E+01 -4.239141376E+01  1.115477406E+02  1.245566423E+02  0.000000000E+00  0.00000E+00  9.000E+00
#rwgt            1           1   3.1717579960874043E-002           5      229790           0
</event>
<event>
      5   9999  3.19816E-02  2.61351E+02 -1.00000E+00  1.07575E-01
       1    -1     0     0   502     0  0.000000000E+00  0.000000000E+00  6.210610035E+02  6.210610035E+02  0.000000000E+00  0.00000E+00  9.000E+00
      21    -1     0     0   501   502  0.000000000E+00  0.000000000E+00 -5.777306101E+02  5.777306101E+02  0.000000000E+00  0.00000E+00  9.000E+00
      25     1     1     2     0     0 -1.150464749E+02 -1.823547872E+02 -4.663608925E+02  5.287782540E+02  1.250000000E+02  0.00000E+00  9.000E+00
      25     1     1     2     0     0 -4.651843079E+01 -2.307440799E+01  5.611163209E+01  1.465261341E+02  1.250000000E+02  0.00000E+00  9.000E+00
       1     1     1     2   501     0  1.615649057E+02  2.054291952E+02  4.535796538E+02  5.234872256E+02  0.000000000E+00  0.00000E+00  9.000E+00
#rwgt            1           1   2.7164000968438726E-002           5      229975           0
</event>
<event>
      5   9999  3.19816E-02  1.11659E+02 -1.00000E+00  1.21711E-01
      21    -1     0     0   511   501  0.000000000E+00  0.000000000E+00  1.547839015E+02  1.547839015E+02  0.000000000E+00  0.00000E+00  9.000E+00
      21    -1     0     0   501   502  0.000000000E+00  0.000000000E+00 -1.220011045E+03  1.220011045E+03  0.000000000E+00  0.00000E+00  9.000E+00
      25     1     1     2     0     0 -3.008832439E+01 -4.955865568E+01  8.866430250E+01  1.638527575E+02  1.250000000E+02  0.00000E+00  9.000E+00
      25     1     1     2     0     0 -6.709500108E+01  1.045413328E+02 -1.026608418E+03  1.041623960E+03  1.250000000E+02  0.00000E+00  9.000E+00
      21     1     1     2   511   502  9.718332546E+01 -5.498267716E+01 -1.272830276E+02  1.693182289E+02  2.697398305E-06  0.00000E+00  9.000E+00
#rwgt            1           1   2.7061049585277049E-002           5      230004           0
</event>
<event>
      5   9999  3.19816E-02  3.85603E+01 -1.00000E+00  1.45834E-01
      21    -1     0     0   502   501  0.000000000E+00  0.000000000E+00  4.267696316E+01  4.267696316E+01  0.000000000E+00  0.00000E+00  9.000E+00
      21    -1     0     0   501   512  0.000000000E+00  0.000000000E+00 -1.835429008E+03  1.835429008E+03  0.000000000E+00  0.00000E+00  9.000E+00
      25     1     1     2     0     0 -6.272471756E+01  8.802831660E+01 -1.505068253E+02  2.235188564E+02  1.250000000E+02  0.00000E+00  9.000E+00
      25     1     1     2     0     0  8.717299983E+01 -5.820924641E+01 -1.337783021E+03  1.347692791E+03  1.250000000E+02  0.00000E+00  9.000E+00
      21     1     1     2   502   512 -2.444828228E+01 -2.981907018E+01 -3.044621989E+02  3.068943239E+02  3.814697266E-06  0.00000E+00  9.000E+00
#rwgt            1           1   3.6573423338257756E-002           5      230084           0
</event>
<event>
      5   9999  3.19816E-02  3.16891E+01 -1.00000E+00  1.51406E-01
      21    -1     0     0   502   501  0.000000000E+00  0.000000000E+00  4.784542139E+01  4.784542139E+01  0.000000000E+00  0.00000E+00  9.000E+00
       1    -1     0     0   501     0  0.000000000E+00  0.000000000E+00 -1.770692779E+03  1.770692779E+03  0.000000000E+00  0.00000E+00  9.000E+00
      25     1     1     2     0     0 -1.347836688E+02 -1.637112843E+02 -1.308682889E+03  1.331632053E+03  1.250000000E+02  0.00000E+00  9.000E+00
      25     1     1     2     0     0  1.113298795E+02  1.424012785E+02 -3.254549843E+02  3.927065227E+02  1.250000000E+02  0.00000E+00  9.000E+00
       1     1     1     2   502     0  2.345378936E+01  2.131000572E+01 -8.870948404E+01  9.419962387E+01  1.348699152E-06  0.00000E+00  9.000E+00
#rwgt            1           1   3.3816902048478280E-002           5      230197           0
</event>
<event>
      5   9999  3.19816E-02  1.40434E+01 -1.00000E+00  1.80123E-01
      21    -1     0     0   502   501  0.000000000E+00  0.000000000E+00  9.651386928E+01  9.651386928E+01  0.000000000E+00  0.00000E+00  9.000E+00
      21    -1     0     0   511   502  0.000000000E+00  0.000000000E+00 -5.948515942E+02  5.948515942E+02  0.000000000E+00  0.00000E+00  9.000E+00
      25     1     1     2     0     0 -7.238697106E+01  5.592962240E+01 -4.584731108E+02  4.839324225E+02  1.250000000E+02  0.00000E+00  9.000E+00
      25     1     1     2     0     0  6.800312131E+01 -6.927125172E+01  7.089208746E+00  1.584240755E+02  1.250000000E+02  0.00000E+00  9.000E+00
      21     1     1     2   511   501  4.383849751E+00  1.334162932E+01 -4.695382286E+01  4.900896543E+01  0.000000000E+00  0.00000E+00  9.000E+00
#rwgt            1           1   3.0115939797485326E-002           5      230330           0
</event>
<event>
      5   9999  3.19816E-02  3.06402E+01 -1.00000E+00  1.52406E-01
      21    -1     0     0   502   501  0.000000000E+00  0.000000000E+00  1.068011335E+03  1.068011335E+03  0.000000000E+00  0.00000E+00  9.000E+00
      21    -1     0     0   501   512  0.000000000E+00  0.000000000E+00 -8.519578765E+01  8.519578765E+01  0.000000000E+00  0.00000E+00  9.000E+00
      25     1     1     2     0     0 -6.375037212E+01 -1.615511506E+02  7.806809458E+02  8.094755237E+02  1.250000000E+02  0.00000E+00  9.000E+00
      25     1     1     2     0     0  8.658523428E+01  1.819812818E+02  2.043015539E+02  3.130148792E+02  1.250000000E+02  0.00000E+00  9.000E+00
      21     1     1     2   502   512 -2.283486216E+01 -2.043013119E+01 -2.166952364E+00  3.071671976E+01  3.358551165E-07  0.00000E+00  9.000E+00
#rwgt            1           1   3.0790680796445802E-002           5      230486           0
</event>
<event>
      5   9999  3.19816E-02  1.31236E+02 -1.00000E+00  1.18741E-01
      21    -1     0     0   502   501  0.000000000E+00  0.000000000E+00  3.699525598E+02  3.699525598E+02  0.000000000E+00  0.00000E+00  9.000E+00
      21    -1     0     0   501   511  0.000000000E+00  0.000000000E+00 -5.726334035E+02  5.726334035E+02  0.000000000E+00  0.00000E+00  9.000E+00
      25     1     1     2     0     0 -2.006504214E+02  2.813476263E+02 -9.998882767E+01  3.808409696E+02  1.250000000E+02  0.00000E+00  9.000E+00
      25     1     1     2     0     0  8.348545930E+01 -3.404694527E+02  3.217578926E+01  3.735633166E+02  1.250000000E+02  0.00000E+00  9.000E+00
      21     1     1     2   502   511  1.171649621E+02  5.912182635E+01 -1.348678052E+02  1.881816771E+02  2.697398305E-06  0.00000E+00  9.000E+00
#rwgt            1           1   2.5547923533715301E-002           5      230632           0
</event>
<event>
      5   9999  3.19816E-02  2.77452E+01 -1.00000E+00  1.55435E-01
      21    -1     0     0   512   501  0.000000000E+00  0.000000000E+00  1.574102182E+03  1.574102182E+03  0.000000000E+00  0.00000E+00  9.000E+00
      21    -1     0     0   501   502  0.000000000E+00  0.000000000E+00 -8.643855898E+02  8.643855898E+02  0.000000000E+00  0.00000E+00  9.000E+00
      25     1     1     2     0     0 -8.129676116E+02  1.381272833E+02 -1.744439979E+02  8.520863761E+02  1.250000000E+02  0.00000E+00  9.000E+00
      25     1     1     2     0     0  7.871822254E+02 -1.278846185E+02  1.134278641E+02  8.151694376E+02  1.250000000E+02  0.00000E+00  9.000E+00
      21     1     1     2   512   502  2.578538625E+01 -1.024266475E+01  7.707327255E+02  7.712319577E+02  1.078959322E-05  0.00000E+00  9.000E+00
#rwgt            1           1   2.7805083672226425E-002           5      230683           0
</event>
<event>
      5   9999  3.19816E-02  1.43716E+01 -1.00000E+00  1.79153E-01
      21    -1     0     0   502   501  0.000000000E+00  0.000000000E+00  2.656857056E+02  2.656857056E+02  0.000000000E+00  0.00000E+00  9.000E+00
      21    -1     0     0   501   511  0.000000000E+00  0.000000000E+00 -2.383681822E+02  2.383681822E+02  0.000000000E+00  0.00000E+00  9.000E+00
      25     1     1     2     0     0  9.350191361E+01 -1.701031293E+02  1.693861459E+01  2.314942745E+02  1.250000000E+02  0.00000E+00  9.000E+00
      25     1     1     2     0     0 -1.052400483E+02  1.618110352E+02  4.566973302E+01  2.344546937E+02  1.250000000E+02  0.00000E+00  9.000E+00
      21     1     1     2   502   511  1.173813467E+01  8.292094096E+00 -3.529082418E+01  3.810491965E+01  6.743495762E-07  0.00000E+00  9.000E+00
#rwgt            1           1   2.3242696157486923E-002           5      230968           0
</event>
<event>
      5   9999  3.19816E-02  2.15217E+01 -1.00000E+00  1.63784E-01
      21    -1     0     0   502   501  0.000000000E+00  0.000000000E+00  1.992600454E+02  1.992600454E+02  0.000000000E+00  0.00000E+00  9.000E+00
      21    -1     0     0   501   512  0.000000000E+00  0.000000000E+00 -8.679810237E+02  8.679810237E+02  0.000000000E+00  0.00000E+00  9.000E+00
      25     1     1     2     0     0  7.663403169E+01 -2.845995828E+02 -2.830088260E+02  4.273039819E+02  1.250000000E+02  0.00000E+00  9.000E+00
      25     1     1     2     0     0 -5.511316534E+01  2.844123206E+02 -6.961543144E+01  3.231085536E+02  1.250000000E+02  0.00000E+00  9.000E+00
      21     1     1     2   502   512 -2.152086635E+01  1.872621903E-01 -3.160967209E+02  3.168285336E+02  5.394796609E-06  0.00000E+00  9.000E+00
#rwgt            1           1   3.2377476430486933E-002           5      231126           0
</event>
<event>
      5   9999  3.19816E-02  1.89175E+02 -1.00000E+00  1.12535E-01
      21    -1     0     0   502   501  0.000000000E+00  0.000000000E+00  6.482463363E+02  6.482463363E+02  0.000000000E+00  0.00000E+00  9.000E+00
      21    -1     0     0   501   511  0.000000000E+00  0.000000000E+00 -5.281013962E+02  5.281013962E+02  0.000000000E+00  0.00000E+00  9.000E+00
      25     1     1     2     0     0  1.511528408E+02 -3.331879327E+02  2.626455395E+02  4.674067385E+02  1.250000000E+02  0.00000E+00  9.000E+00
      25     1     1     2     0     0  2.397032558E+01  2.616403174E+02  1.748730715E+02  3.394640236E+02  1.250000000E+02  0.00000E+00  9.000E+00
      21     1     1     2   502   511 -1.751231664E+02  7.154761529E+01 -3.173736709E+02  3.694769704E+02  6.607249480E-06  0.00000E+00  9.000E+00
#rwgt            1           1   2.7043587788969325E-002           5      231266           0
</event>
<event>
      5   9999  3.19816E-02  1.09865E+02 -1.00000E+00  1.22018E-01
      21    -1     0     0   502   501  0.000000000E+00  0.000000000E+00  4.607434952E+02  4.607434952E+02  0.000000000E+00  0.00000E+00  9.000E+00
      21    -1     0     0   501   512  0.000000000E+00  0.000000000E+00 -8.943691336E+02  8.943691336E+02  0.000000000E+00  0.00000E+00  9.000E+00
      25     1     1     2     0     0  9.333920516E+01  5.946410570E+01  1.857493883E+02  2.497519216E+02  1.250000000E+02  0.00000E+00  9.000E+00
      25     1     1     2     0     0 -2.003797287E+02 -3.471192739E+01  1.796878901E+02  2.987803397E+02  1.250000000E+02  0.00000E+00  9.000E+00
      21     1     1     2   502   512  1.070405235E+02 -2.475217830E+01 -7.990629169E+02  8.065803674E+02  0.000000000E+00  0.00000E+00  9.000E+00
#rwgt            1           1   2.6634080634724059E-002           5      231304           0
</event>
<event>
      5   9999  3.19816E-02  5.79391E+01 -1.00000E+00  1.35520E-01
      21    -1     0     0   502   501  0.000000000E+00  0.000000000E+00  4.068682889E+02  4.068682889E+02  0.000000000E+00  0.00000E+00  9.000E+00
       1    -1     0     0   501     0  0.000000000E+00  0.000000000E+00 -1.184592761E+03  1.184592761E+03  0.000000000E+00  0.00000E+00  9.000E+00
      25     1     1     2     0     0 -8.371564758E+01 -2.307180982E+02  3.597575455E+01  2.777740186E+02  1.250000000E+02  0.00000E+00  9.000E+00
      25     1     1     2     0     0  9.212758018E+01  2.880432981E+02  1.416542328E+02  3.565772767E+02  1.250000000E+02  0.00000E+00  9.000E+00
       1     1     1     2   502     0 -8.411932601E+00 -5.732519990E+01 -9.553544594E+02  9.571097545E+02  1.078959322E-05  0.00000E+00  9.000E+00
#rwgt            1           1   3.0889866169193977E-002           5      231348           0
</event>
<event>
      5   9999  3.19816E-02  3.52244E+01 -1.00000E+00  1.48350E-01
       2    -1     0     0   502     0  0.000000000E+00  0.000000000E+00  2.016229744E+03  2.016229744E+03  0.000000000E+00  0.00000E+00  9.000E+00
      21    -1     0     0   501   502  0.000000000E+00  0.000000000E+00 -3.957778588E+02  3.957778588E+02  0.000000000E+00  0.00000E+00  9.000E+00
      25     1     1     2     0     0  7.240329066E+01 -7.328717449E+01 -3.325314697E+02  3.698856915E+02  1.250000000E+02  0.00000E+00  9.000E+00
      25     1     1     2     0     0 -6.734699676E+01  3.842755097E+01  7.741698299E+01  1.662247993E+02  1.250000000E+02  0.00000E+00  9.000E+00
       2     1     1     2   501     0 -5.056293898E+00  3.485962351E+01  1.875566372E+03  1.875897112E+03  3.051757812E-05  0.00000E+00  9.000E+00
#rwgt            1           1   2.8808872509022834E-002           5      231409           0
</event>
<event>
      5   9999  3.19816E-02  1.89770E+02 -1.00000E+00  1.12484E-01
      21    -1     0     0   502   501  0.000000000E+00  0.000000000E+00  1.931951407E+02  1.931951407E+02  0.000000000E+00  0.00000E+00  9.000E+00
      21    -1     0     0   501   511  0.000000000E+00  0.000000000E+00 -5.381777320E+02  5.381777320E+02  0.000000000E+00  0.00000E+00  9.000E+00
      25     1     1     2     0     0 -1.487276329E+02  4.444315509E+00  5.601262696E+01  2.022426144E+02  1.250000000E+02  0.00000E+00  9.000E+00
      25     1     1     2     0     0 -3.240577225E+01 -6.104242606E+01 -1.040033665E+02  1.766861967E+02  1.250000000E+02  0.00000E+00  9.000E+00
      21     1     1     2   502   511  1.811334051E+02  5.659811055E+01 -2.969918517E+02  3.524440616E+02  3.814697266E-06  0.00000E+00  9.000E+00
#rwgt            1           1   2.0476223693324105E-002           5      231503           0
</event>
<event>
      5   9999  3.19816E-02  1.49077E+01 -1.00000E+00  1.77637E-01
      21    -1     0     0   512   501  0.000000000E+00  0.000000000E+00  1.423296003E+03  1.423296003E+03  0.000000000E+00  0.00000E+00  9.000E+00
      21    -1     0     0   501   502  0.000000000E+00  0.000000000E+00 -1.371719863E+02  1.371719863E+02  0.000000000E+00  0.00000E+00  9.000E+00
      25     1     1     2     0     0 -1.950222891E+02 -1.159127414E+02  2.325139283E+02  3.480764050E+02  1.250000000E+02  0.00000E+00  9.000E+00
      25     1     1     2     0     0  1.961634990E+02  1.010488330E+02  1.233512885E+02  2.820133426E+02  1.250000000E+02  0.00000E+00  9.000E+00
      21     1     1     2   512   502 -1.141209955E+00  1.486390831E+01  9.302587997E+02  9.303782417E+02  0.000000000E+00  0.00000E+00  9.000E+00
#rwgt            1           1   2.6757095413437709E-002           5      231531           0
</event>
<event>
      5   9999  3.19816E-02  3.09966E+01 -1.00000E+00  1.52061E-01
      21    -1     0     0   502   501  0.000000000E+00  0.000000000E+00  1.076457328E+02  1.076457328E+02  0.000000000E+00  0.00000E+00  9.000E+00
      21    -1     0     0   501   511  0.000000000E+00  0.000000000E+00 -3.986318990E+02  3.986318990E+02  0.000000000E+00  0.00000E+00  9.000E+00
      25     1     1     2     0     0  7.354642372E+01  8.670627558E+01 -2.537227932E+02  3.048398112E+02  1.250000000E+02  0.00000E+00  9.000E+00
      25     1     1     2     0     0 -8.346871475E+01 -5.734074054E+01 -1.176690687E+01  1.613023464E+02  1.250000000E+02  0.00000E+00  9.000E+00
      21     1     1     2   502   511  9.922291034E+00 -2.936553504E+01 -2.549646606E+01  4.013547420E+01  6.743495762E-07  0.00000E+00  9.000E+00
#rwgt            1           1   3.4107597523832585E-002           5      231619           0
</event>
<event>
      5   9999  3.19816E-02  1.09526E+01 -1.00000E+00  1.91297E-01
      21    -1     0     0   502   501  0.000000000E+00  0.000000000E+00  2.373688286E+02  2.373688286E+02  0.000000000E+00  0.00000E+00  9.000E+00
      21    -1     0     0   512   502  0.000000000E+00  0.000000000E+00 -3.935788566E+02  3.935788566E+02  0.000000000E+00  0.00000E+00  9.000E+00
      25     1     1     2     0     0  5.612436134E+01  2.519985320E+02 -1.534456176E+02  3.253056434E+02  1.250000000E+02  0.00000E+00  9.000E+00
      25     1     1     2     0     0 -4.988676288E+01 -2.610013807E+02  2.079763115E+00  2.936660267E+02  1.250000000E+02  0.00000E+00  9.000E+00
      21     1     1     2   512   501 -6.237598464E+00  9.002848711E+00 -4.844173534E+00  1.197601506E+01  1.685873940E-07  0.00000E+00  9.000E+00
#rwgt            1           1   2.7932179429288700E-002           5      231711           0
</event>
<event>
      5   9999  3.19816E-02  1.25497E+02 -1.00000E+00  1.19548E-01
      21    -1     0     0   511   501  0.000000000E+00  0.000000000E+00  1.950745139E+02  1.950745139E+02  0.000000000E+00  0.00000E+00  9.000E+00
      21    -1     0     0   501   502  0.000000000E+00  0.000000000E+00 -2.552838585E+03  2.552838585E+03  0.000000000E+00  0.00000E+00  9.000E+00
      25     1     1     2     0     0 -2.122405452E+02  4.290798985E+02 -2.106434489E+03  2.163757580E+03  1.250000000E+02  0.00000E+00  9.000E+00
      25     1     1     2     0     0  2.262681438E+02 -3.043693659E+02 -2.148849292E+02  4.534738324E+02  1.250000000E+02  0.00000E+00  9.000E+00
      21     1     1     2   511   502 -1.402759859E+01 -1.247105326E+02 -3.644465265E+01  1.306816864E+02  4.768371582E-07  0.00000E+00  9.000E+00
#rwgt            2          11   2.0090202384264285E-002           5      232028           0
</event>
<event>
      5   9999  3.19816E-02  4.81735E+01 -1.00000E+00  1.40004E-01
      21    -1     0     0   502   512  0.000000000E+00  0.000000000E+00  1.287141998E+02  1.287141998E+02  0.000000000E+00  0.00000E+00  9.000E+00
      21    -1     0     0   501   502  0.000000000E+00  0.000000000E+00 -2.229167674E+03  2.229167674E+03  0.000000000E+00  0.00000E+00  9.000E+00
      25     1     1     2     0     0 -3.256031355E+02  1.961413351E+02 -1.128278766E+03  1.197132741E+03  1.250000000E+02  0.00000E+00  9.000E+00
      25     1     1     2     0     0  3.705887721E+02 -2.133745110E+02 -1.007101671E+03  1.101246338E+03  1.250000000E+02  0.00000E+00  9.000E+00
      21     1     1     2   501   512 -4.498563658E+01  1.723317590E+01  3.492696347E+01  5.950279512E+01  1.966049969E-06  0.00000E+00  9.000E+00
#rwgt            1           1   2.9648653535781236E-002           5      232048           0
</event>
<event>
      5   9999  3.19816E-02  2.38053E+02 -1.00000E+00  1.08962E-01
       2    -1     0     0   502     0  0.000000000E+00  0.000000000E+00  1.466027957E+03  1.466027957E+03  0.000000000E+00  0.00000E+00  9.000E+00
      21    -1     0     0   501   502  0.000000000E+00  0.000000000E+00 -7.236315127E+02  7.236315127E+02  0.000000000E+00  0.00000E+00  9.000E+00
      25     1     1     2     0     0 -2.011573520E+02  3.381034452E+02 -4.939182467E+02  6.437068077E+02  1.250000000E+02  0.00000E+00  9.000E+00
      25     1     1     2     0     0  2.185076040E+02 -1.006836927E+02 -1.563301489E+01  2.715735078E+02  1.250000000E+02  0.00000E+00  9.000E+00
       2     1     1     2   501     0 -1.735025202E+01 -2.374197525E+02  1.251947706E+03  1.274379155E+03  1.525878906E-05  0.00000E+00  9.000E+00
#rwgt            1           1   2.8391167748936314E-002           5      232138           0
</event>
<event>
      5   9999  3.19816E-02  1.35100E+01 -1.00000E+00  1.81774E-01
      21    -1     0     0   502   501  0.000000000E+00  0.000000000E+00  8.953967060E+02  8.953967060E+02  0.000000000E+00  0.00000E+00  9.000E+00
      21    -1     0     0   511   502  0.000000000E+00  0.000000000E+00 -1.516198911E+02  1.516198911E+02  0.000000000E+00  0.00000E+00  9.000E+00
      25     1     1     2     0     0 -2.637998506E+02 -1.687167139E+02  1.745972857E+02  3.796905357E+02  1.250000000E+02  0.00000E+00  9.000E+00
      25     1     1     2     0     0  2.624275368E+02  1.552766227E+02  5.632429788E+02  6.525693027E+02  1.250000000E+02  0.00000E+00  9.000E+00
      21     1     1     2   511   501  1.372313768E+00  1.344009125E+01  5.936550314E+00  1.475675870E+01  2.064765462E-07  0.00000E+00  9.000E+00
#rwgt            1           1   2.8288453818564048E-002           5      232169           0
</event>
<event>
      5   9999  3.19816E-02  1.70800E+01 -1.00000E+00  1.72230E-01
      21    -1     0     0   502   512  0.000000000E+00  0.000000000E+00  4.223718699E+02  4.223718699E+02  0.000000000E+00  0.00000E+00  9.000E+00
      21    -1     0     0   501   502  0.000000000E+00  0.000000000E+00 -1.482864521E+02  1.482864521E+02  0.000000000E+00  0.00000E+00  9.000E+00
      25     1     1     2     0     0 -1.516435791E+02 -1.318334947E+01  2.618134209E+01  1.986958441E+02  1.250000000E+02  0.00000E+00  9.000E+00
      25     1     1     2     0     0  1.641807870E+02  1.584075161E+00  1.116156167E+02  2.346079410E+02  1.250000000E+02  0.00000E+00  9.000E+00
      21     1     1     2   501   512 -1.253720791E+01  1.159927431E+01  1.362884589E+02  1.373545368E+02  1.907348633E-06  0.00000E+00  9.000E+00
#rwgt            1           1   2.7460653345942141E-002           5      232321           0
</event>
<event>
      5   9999  3.19816E-02  1.11639E+02 -1.00000E+00  1.21715E-01
      21    -1     0     0   511   501  0.000000000E+00  0.000000000E+00  6.848692925E+02  6.848692925E+02  0.000000000E+00  0.00000E+00  9.000E+00
      21    -1     0     0   501   502  0.000000000E+00  0.000000000E+00 -6.106496441E+02  6.106496441E+02  0.000000000E+00  0.00000E+00  9.000E+00
      25     1     1     2     0     0 -3.148765552E+01 -4.569164053E+02 -3.598798213E+02  5.957369887E+02  1.250000000E+02  0.00000E+00  9.000E+00
      25     1     1     2     0     0 -6.777329733E+01  4.058232387E+02  3.873520777E+02  5.787506830E+02  1.250000000E+02  0.00000E+00  9.000E+00
      21     1     1     2   511   502  9.926095285E+01  5.109316658E+01  4.674739205E+01  1.210312649E+02  1.168007728E-06  0.00000E+00  9.000E+00
#rwgt            1           1   2.6554978441761141E-002           5      232438           0
</event>
<event>
      5   9999  3.19816E-02  6.81673E+00 -1.00000E+00  2.17195E-01
      21    -1     0     0   502   512  0.000000000E+00  0.000000000E+00  3.936658426E+02  3.936658426E+02  0.000000000E+00  0.00000E+00  9.000E+00
      21    -1     0     0   501   502  0.000000000E+00  0.000000000E+00 -1.940034978E+02  1.940034978E+02  0.000000000E+00  0.00000E+00  9.000E+00
      25     1     1     2     0     0  1.262394969E+01  1.839477591E+02  1.200105933E+02  2.530290194E+02  1.250000000E+02  0.00000E+00  9.000E+00
      25     1     1     2     0     0 -1.319867558E+01 -1.771552970E+02 -3.479898717E+01  2.199867582E+02  1.250000000E+02  0.00000E+00  9.000E+00
      21     1     1     2   501   512  5.747258927E-01 -6.792462086E+00  1.144507387E+02  1.146535627E+02  1.907348633E-06  0.00000E+00  9.000E+00
#rwgt            1           1   2.2935138190747658E-002           5      232581           0
</event>
<event>
      5   9999  3.19816E-02  1.67925E+02 -1.00000E+00  1.14483E-01
       1    -1     0     0   502     0  0.000000000E+00  0.000000000E+00  1.616069963E+03  1.616069963E+03  0.000000000E+00  0.00000E+00  9.000E+00
      21    -1     0     0   501   502  0.000000000E+00  0.000000000E+00 -7.549487339E+01  7.549487339E+01  0.000000000E+00  0.00000E+00  9.000E+00
      25     1     1     2     0     0  1.584119940E+01 -7.096305979E+01  3.027224281E+02  3.354885512E+02  1.250000000E+02  0.00000E+00  9.000E+00
      25     1     1     2     0     0 -8.638137366E+01  2.233536852E+02  3.016288158E+02  4.049117842E+02  1.250000000E+02  0.00000E+00  9.000E+00
       1     1     1     2   501     0  7.054017426E+01 -1.523906255E+02  9.362238453E+02  9.511645007E+02  0.000000000E+00  0.00000E+00  9.000E+00
#rwgt            2          17   4.8843406921419389E-004           5      232876           0
</event>
<event>
      5   9999  3.19816E-02  1.60179E+01 -1.00000E+00  1.74739E-01
      -1    -1     0     0     0   501  0.000000000E+00  0.000000000E+00  9.070989250E+02  9.070989250E+02  0.000000000E+00  0.00000E+00  9.000E+00
      21    -1     0     0   501   502  0.000000000E+00  0.000000000E+00 -1.461487643E+02  1.461487643E+02  0.000000000E+00  0.00000E+00  9.000E+00
      25     1     1     2     0     0 -9.171833920E+01 -5.808917612E+01 -6.365488609E+01  1.773796794E+02  1.250000000E+02  0.00000E+00  9.000E+00
      25     1     1     2     0     0  1.052188941E+02  6.670944567E+01  2.796756419E+02  3.307032362E+02  1.250000000E+02  0.00000E+00  9.000E+00
      -1     1     1     2     0   502 -1.350055487E+01 -8.620269552E+00  5.449294050E+02  5.451647737E+02  0.000000000E+00  0.00000E+00  9.000E+00
#rwgt            1           1   2.2176200549837863E-002           5      232910           0
</event>
<event>
      5   9999  3.19816E-02  6.92344E+01 -1.00000E+00  1.31463E-01
      21    -1     0     0   502   501  0.000000000E+00  0.000000000E+00  1.224447784E+03  1.224447784E+03  0.000000000E+00  0.00000E+00  9.000E+00
      21    -1     0     0   511   502  0.000000000E+00  0.000000000E+00 -5.495020241E+02  5.495020241E+02  0.000000000E+00  0.00000E+00  9.000E+00
      25     1     1     2     0     0 -4.531242940E+02 -5.241442756E+02  5.968415104E+01  7.065663772E+02  1.250000000E+02  0.00000E+00  9.000E+00
      25     1     1     2     0     0  5.199968756E+02  5.062150349E+02  6.567162153E+02  9.866871843E+02  1.250000000E+02  0.00000E+00  9.000E+00
      21     1     1     2   511   501 -6.687258162E+01  1.792924073E+01 -4.145460630E+01  8.069624669E+01  1.430511475E-06  0.00000E+00  9.000E+00
#rwgt            1           1   3.0159812697693102E-002           5      233039           0
</event>
<event>
      5   9999  3.19816E-02  1.72956E+01 -1.00000E+00  1.71749E-01
      21    -1     0     0   502   501  0.000000000E+00  0.000000000E+00  1.934477456E+02  1.934477456E+02  0.000000000E+00  0.00000E+00  9.000E+00
      21    -1     0     0   501   512  0.000000000E+00  0.000000000E+00 -2.916368880E+02  2.916368880E+02  0.000000000E+00  0.00000E+00  9.000E+00
      25     1     1     2     0     0 -1.239155022E+02 -9.238465115E+01 -1.413495405E+02  2.439152887E+02  1.250000000E+02  0.00000E+00  9.000E+00
      25     1     1     2     0     0  1.210200382E+02  7.533318151E+01  7.583611187E+01  2.041985645E+02  1.250000000E+02  0.00000E+00  9.000E+00
      21     1     1     2   502   512  2.895463945E+00  1.705146964E+01 -3.267571377E+01  3.697078033E+01  6.743495762E-07  0.00000E+00  9.000E+00
#rwgt            1           1   2.7878123772084411E-002           5      233162           0
</event>
<event>
      5   9999  3.19816E-02  5.36566E+01 -1.00000E+00  1.37349E-01
      21    -1     0     0   502   511  0.000000000E+00  0.000000000E+00  7.665445138E+02  7.665445138E+02  0.000000000E+00  0.00000E+00  9.000E+00
      21    -1     0     0   501   502  0.000000000E+00  0.000000000E+00 -2.097529973E+02  2.097529973E+02  0.000000000E+00  0.00000E+00  9.000E+00
      25     1     1     2     0     0  1.721526241E+01 -1.384467772E+02 -8.510516452E+01  2.057468455E+02  1.250000000E+02  0.00000E+00  9.000E+00
      25     1     1     2     0     0 -7.084869623E+01  1.400239223E+02  9.669173427E+01  2.227117600E+02  1.250000000E+02  0.00000E+00  9.000E+00
      21     1     1     2   501   511  5.363343381E+01 -1.577145090E+00  5.452049467E+02  5.478389056E+02  0.000000000E+00  0.00000E+00  9.000E+00
#rwgt            1           1   2.9653240166337753E-002           5      233298           0
</event>
<event>
      5   9999  3.19816E-02  1.04103E+01 -1.00000E+00  1.93760E-01
      21    -1     0     0   512   501  0.000000000E+00  0.000000000E+00  1.333453521E+02  1.333453521E+02  0.000000000E+00  0.00000E+00  9.000E+00
      21    -1     0     0   501   502  0.000000000E+00  0.000000000E+00 -1.635302152E+03  1.635302152E+03  0.000000000E+00  0.00000E+00  9.000E+00
      25     1     1     2     0     0  4.257532546E+02 -1.046257784E+02 -5.740326951E+02  7.330422378E+02  1.250000000E+02  0.00000E+00  9.000E+00
      25     1     1     2     0     0 -4.153523416E+02  1.041828809E+02 -9.202523959E+02  1.022673512E+03  1.250000000E+02  0.00000E+00  9.000E+00
      21     1     1     2   512   502 -1.040091299E+01  4.428975191E-01 -7.671708967E+00  1.293175424E+01  1.460009660E-07  0.00000E+00  9.000E+00
#rwgt            1           1   2.5279587671203384E-002           5      233420           0
</event>
<event>
      5   9999  3.19816E-02  4.05920E+01 -1.00000E+00  1.44446E-01
      21    -1     0     0   502   501  0.000000000E+00  0.000000000E+00  7.444447160E+02  7.444447160E+02  0.000000000E+00  0.00000E+00  9.000E+00
       2    -1     0     0   501     0  0.000000000E+00  0.000000000E+00 -1.961422230E+03  1.961422230E+03  0.000000000E+00  0.00000E+00  9.000E+00
      25     1     1     2     0     0  3.192587822E+02  1.040388775E+03 -5.269837355E+02  1.215595258E+03  1.250000000E+02  0.00000E+00  9.000E+00
      25     1     1     2     0     0 -3.455099109E+02 -1.071349919E+03 -4.056672522E+02  1.203062204E+03  1.250000000E+02  0.00000E+00  9.000E+00
       2     1     1     2   502     0  2.625112867E+01  3.096114419E+01 -2.843265267E+02  2.872094845E+02  3.814697266E-06  0.00000E+00  9.000E+00
#rwgt            1           1   2.8512023072600506E-002           5      233719           0
</event>
<event>
      5   9999  3.19816E-02  8.75861E+00 -1.00000E+00  2.02656E-01
      21    -1     0     0   502   501  0.000000000E+00  0.000000000E+00  7.439017466E+02  7.439017466E+02  0.000000000E+00  0.00000E+00  9.000E+00
      21    -1     0     0   501   511  0.000000000E+00  0.000000000E+00 -5.617737837E+01  5.617737837E+01  0.000000000E+00  0.00000E+00  9.000E+00
      25     1     1     2     0     0 -1.184372085E+02  1.621206684E+01  5.122963172E+02  5.407057611E+02  1.250000000E+02  0.00000E+00  9.000E+00
      25     1     1     2     0     0  1.243930103E+02 -9.790100126E+00  1.774700327E+02  2.503798706E+02  1.250000000E+02  0.00000E+00  9.000E+00
      21     1     1     2   502   511 -5.955801833E+00 -6.421966710E+00 -2.041981715E+00  8.993493271E+00  8.940696716E-08  0.00000E+00  9.000E+00
#rwgt            1           1   3.0280277852033809E-002           5      233835           0
</event>
<event>
      5   9999  3.19816E-02  4.61985E+02 -1.00000E+00  9.98375E-02
      21    -1     0     0   502   512  0.000000000E+00  0.000000000E+00  8.210365316E+02  8.210365316E+02  0.000000000E+00  0.00000E+00  9.000E+00
      21    -1     0     0   501   502  0.000000000E+00  0.000000000E+00 -3.591503873E+02  3.591503873E+02  0.000000000E+00  0.00000E+00  9.000E+00
      25     1     1     2     0     0 -1.259584273E+02  1.946183549E+02  2.999187883E+02  3.991467263E+02  1.250000000E+02  0.00000E+00  9.000E+00
      25     1     1     2     0     0 -1.033996648E+02  2.064116969E+02 -5.877154205E+01  2.690285737E+02  1.250000000E+02  0.00000E+00  9.000E+00
      21     1     1     2   501   512  2.293580921E+02 -4.010300518E+02  2.207388979E+02  5.120116190E+02  7.136645101E-06  0.00000E+00  9.000E+00
#rwgt            2          11   3.2093377484978527E-003           5      234186           0
</event>
<event>
      5   9999  3.19816E-02  6.62158E+00 -1.00000E+00  2.19022E-01
       2    -1     0     0   502     0  0.000000000E+00  0.000000000E+00  1.384074175E+03  1.384074175E+03  0.000000000E+00  0.00000E+00  9.000E+00
      21    -1     0     0   501   502  0.000000000E+00  0.000000000E+00 -1.695131867E+03  1.695131867E+03  0.000000000E+00  0.00000E+00  9.000E+00
      25     1     1     2     0     0  1.458043656E+02 -6.577288668E+01 -1.586258344E+03  1.599195273E+03  1.250000000E+02  0.00000E+00  9.000E+00
      25     1     1     2     0     0 -1.516681537E+02  6.884881894E+01  3.487097988E+00  2.082799764E+02  1.250000000E+02  0.00000E+00  9.000E+00
       2     1     1     2   501     0  5.863788026E+00 -3.075932257E+00  1.271713555E+03  1.271730793E+03  1.525878906E-05  0.00000E+00  9.000E+00
#rwgt            1           1   3.1174444454775182E-002           5      234206           0
</event>
<event>
      5   9999  3.19816E-02  5.16365E+01 -1.00000E+00  1.38282E-01
      21    -1     0     0   502   501  0.000000000E+00  0.000000000E+00  7.010433085E+02  7.010433085E+02  0.000000000E+00  0.00000E+00  9.000E+00
      21    -1     0     0   511   502  0.000000000E+00  0.000000000E+00 -6.541953600E+02  6.541953600E+02  0.000000000E+00  0.00000E+00  9.000E+00
      25     1     1     2     0     0 -4.318660755E+02  3.072712676E+02  3.042294892E+02  6.237824310E+02  1.250000000E+02  0.00000E+00  9.000E+00
      25     1     1     2     0     0  3.822595125E+02 -3.216069844E+02 -4.958090547E+01  5.173361127E+02  1.250000000E+02  0.00000E+00  9.000E+00
      21     1     1     2   511   501  4.960656299E+01  1.433571672E+01 -2.078006353E+02  2.141201249E+02  2.697398305E-06  0.00000E+00  9.000E+00
#rwgt            1           1   3.4507461875196647E-002           5      234456           0
</event>
<event>
      5   9999  3.19816E-02  1.57174E+01 -1.00000E+00  1.75493E-01
      21    -1     0     0   502   501  0.000000000E+00  0.000000000E+00  2.273444045E+02  2.273444045E+02  0.000000000E+00  0.00000E+00  9.000E+00
      21    -1     0     0   512   502  0.000000000E+00  0.000000000E+00 -1.962100815E+02  1.962100815E+02  0.000000000E+00  0.00000E+00  9.000E+00
      25     1     1     2     0     0 -1.130410684E+02 -8.597408455E+01 -2.036734104E+01  1.902883468E+02  1.250000000E+02  0.00000E+00  9.000E+00
      25     1     1     2     0     0  9.815110443E+01  9.100648768E+01  8.067897317E+01  2.001247531E+02  1.250000000E+02  0.00000E+00  9.000E+00
      21     1     1     2   512   501  1.488996392E+01 -5.032403131E+00 -2.917730914E+01  3.314138614E+01  4.768371582E-07  0.00000E+00  9.000E+00
#rwgt            1           1   2.7874694708508375E-002           5      234551           0
</event>
<event>
      5   9999  3.19816E-02  4.54032E+02 -1.00000E+00  1.00057E-01
      21    -1     0     0   502   501  0.000000000E+00  0.000000000E+00  3.515505422E+02  3.515505422E+02  0.000000000E+00  0.00000E+00  9.000E+00
      21    -1     0     0   511   502  0.000000000E+00  0.000000000E+00 -1.783739392E+03  1.783739392E+03  0.000000000E+00  0.00000E+00  9.000E+00
      25     1     1     2     0     0 -4.407765658E+01 -2.959314381E+02  1.346397564E+02  3.510998717E+02  1.250000000E+02  0.00000E+00  9.000E+00
      25     1     1     2     0     0  3.410076360E+02 -4.754725420E+01 -4.611760025E+02  5.889441863E+02  1.250000000E+02  0.00000E+00  9.000E+00
      21     1     1     2   511   501 -2.969299794E+02  3.434786923E+02 -1.105652604E+03  1.195245877E+03  2.642899792E-05  0.00000E+00  9.000E+00
#rwgt            1           1   2.6851299217716344E-002           5      234652           0
</event>
<event>
      5   9999  3.19816E-02  3.33982E+02 -1.00000E+00  1.04100E-01
      21    -1     0     0   502   501  0.000000000E+00  0.000000000E+00  6.183393894E+02  6.183393894E+02  0.000000000E+00  0.00000E+00  9.000E+00
      21    -1     0     0   501   512  0.000000000E+00  0.000000000E+00 -1.674841962E+03  1.674841962E+03  0.000000000E+00  0.00000E+00  9.000E+00
      25     1     1     2     0     0 -1.639289427E+02  5.885896893E+02 -1.985020420E+02  6.544758065E+02  1.250000000E+02  0.00000E+00  9.000E+00
      25     1     1     2     0     0 -6.581003479E+01 -8.310028334E+02 -1.503874114E+02  8.562348062E+02  1.250000000E+02  0.00000E+00  9.000E+00
      21     1     1     2   502   512  2.297389775E+02  2.424131441E+02 -7.076131191E+02  7.824707385E+02  7.629394531E-06  0.00000E+00  9.000E+00
#rwgt            2          11   2.1241209044398786E-003           5      234860           0
</event>
<event>
      5   9999  3.19816E-02  6.38245E+01 -1.00000E+00  1.33285E-01
      21    -1     0     0   502   501  0.000000000E+00  0.000000000E+00  1.344447931E+03  1.344447931E+03  0.000000000E+00  0.00000E+00  9.000E+00
      21    -1     0     0   501   511  0.000000000E+00  0.000000000E+00 -1.318257274E+03  1.318257274E+03  0.000000000E+00  0.00000E+00  9.000E+00
      25     1     1     2     0     0 -5.310332263E+02  2.061113829E+01 -4.172024273E+02  6.870982257E+02  1.250000000E+02  0.00000E+00  9.000E+00
      25     1     1     2     0     0  5.755808834E+02 -6.631748954E+01  1.135327031E+03  1.280735660E+03  1.250000000E+02  0.00000E+00  9.000E+00
      21     1     1     2   502   511 -4.454765714E+01  4.570635124E+01 -6.919339469E+02  6.948713199E+02  7.629394531E-06  0.00000E+00  9.000E+00
#rwgt            1           1   3.1134401754946750E-002           5      234880           0
</event>
<event>
      5   9999  3.19816E-02  3.57868E+01 -1.00000E+00  1.47903E-01
      21    -1     0     0   502   501  0.000000000E+00  0.000000000E+00  1.598665242E+03  1.598665242E+03  0.000000000E+00  0.00000E+00  9.000E+00
      21    -1     0     0   501   512  0.000000000E+00  0.000000000E+00 -2.324807493E+01  2.324807493E+01  0.000000000E+00  0.00000E+00  9.000E+00
      25     1     1     2     0     0  1.334455626E+02 -1.337075437E+01  8.690873991E+02  8.882141648E+02  1.250000000E+02  0.00000E+00  9.000E+00
      25     1     1     2     0     0 -1.004670446E+02  2.726736159E+01  5.714444826E+02  5.941472315E+02  1.250000000E+02  0.00000E+00  9.000E+00
      21     1     1     2   502   512 -3.297851793E+01 -1.389660722E+01  1.348852856E+02  1.395519208E+02  0.000000000E+00  0.00000E+00  9.000E+00
#rwgt            1           1   3.1157666796447429E-002           5      235018           0
</event>
<event>
      5   9999  3.19816E-02  3.50711E+01 -1.00000E+00  1.48473E-01
      21    -1     0     0   502   501  0.000000000E+00  0.000000000E+00  1.394648797E+03  1.394648797E+03  0.000000000E+00  0.00000E+00  9.000E+00
      21    -1     0     0   511   502  0.000000000E+00  0.000000000E+00 -4.528604430E+02  4.528604430E+02  0.000000000E+00  0.00000E+00  9.000E+00
      25     1     1     2     0     0  6.173507048E+01 -2.642282434E+02  1.575776791E+02  3.377625031E+02  1.250000000E+02  0.00000E+00  9.000E+00
      25     1     1     2     0     0 -5.562754804E+01  2.296930863E+02  1.130501263E+03  1.161684744E+03  1.250000000E+02  0.00000E+00  9.000E+00
      21     1     1     2   511   501 -6.107522444E+00  3.453515716E+01 -3.462905887E+02  3.480619926E+02  5.394796609E-06  0.00000E+00  9.000E+00
#rwgt            1           1   2.8862987502494216E-002           5      235100           0
</event>
<event>
      5   9999  3.19816E-02  9.52463E+01 -1.00000E+00  1.24787E-01
       1    -1     0     0   502     0  0.000000000E+00  0.000000000E+00  3.566001609E+03  3.566001609E+03  0.000000000E+00  0.00000E+00  9.000E+00
      21    -1     0     0   501   502  0.000000000E+00  0.000000000E+00 -2.716024001E+02  2.716024001E+02  0.000000000E+00  0.00000E+00  9.000E+00
      25     1     1     2     0     0  4.029282182E+02  1.917684284E+02  2.057613164E+03  2.109152250E+03  1.250000000E+02  0.00000E+00  9.000E+00
      25     1     1     2     0     0 -4.812715969E+02 -2.459364114E+02  7.155205757E+01  5.593315344E+02  1.250000000E+02  0.00000E+00  9.000E+00
       1     1     1     2   501     0  7.834337872E+01  5.416798301E+01  1.165233987E+03  1.169120225E+03  0.000000000E+00  0.00000E+00  9.000E+00
#rwgt            1           1   2.8779300393430296E-002           5      235231           0
</event>
<event>
      5   9999  3.19816E-02  2.58020E+01 -1.00000E+00  1.57731E-01
      21    -1     0     0   502   511  0.000000000E+00  0.000000000E+00  6.260056557E+02  6.260056557E+02  0.000000000E+00  0.00000E+00  9.000E+00
      21    -1     0     0   501   502  0.000000000E+00  0.000000000E+00 -4.769705493E+01  4.769705493E+01  0.000000000E+00  0.00000E+00  9.000E+00
      25     1     1     2     0     0 -1.934424848E+00 -1.794519768E+00  7.087597389E+01  1.437197480E+02  1.250000000E+02  0.00000E+00  9.000E+00
      25     1     1     2     0     0 -1.593106454E+01 -1.682184029E+01  4.185488908E+02  4.374299340E+02  1.250000000E+02  0.00000E+00  9.000E+00
      21     1     1     2   501   511  1.786548939E+01  1.861636005E+01  8.888373605E+01  9.255302862E+01  1.907348633E-06  0.00000E+00  9.000E+00
#rwgt            1           1   6.9068888790466951E-002           5      235338           0
</event>
<event>
      5   9999  3.19816E-02  1.01911E+01 -1.00000E+00  1.94811E-01
      21    -1     0     0   512   501  0.000000000E+00  0.000000000E+00  1.228927073E+03  1.228927073E+03  0.000000000E+00  0.00000E+00  9.000E+00
      21    -1     0     0   501   502  0.000000000E+00  0.000000000E+00 -9.072003162E+01  9.072003162E+01  0.000000000E+00  0.00000E+00  9.000E+00
      25     1     1     2     0     0 -2.602268421E+01 -1.249040014E+02  2.015942217E+02  2.693388570E+02  1.250000000E+02  0.00000E+00  9.000E+00
      25     1     1     2     0     0  1.909892278E+01  1.323819964E+02  9.065093832E+01  2.042849834E+02  1.250000000E+02  0.00000E+00  9.000E+00
      21     1     1     2   512   502  6.923761430E+00 -7.477994993E+00  8.459618810E+02  8.460232638E+02  0.000000000E+00  0.00000E+00  9.000E+00
#rwgt            1           1   3.2755915385063603E-002           5      235452           0
</event>
<event>
      5   9999  3.19816E-02  5.69079E+01 -1.00000E+00  1.35943E-01
      21    -1     0     0   502   501  0.000000000E+00  0.000000000E+00  3.456110302E+02  3.456110302E+02  0.000000000E+00  0.00000E+00  9.000E+00
       2    -1     0     0   501     0  0.000000000E+00  0.000000000E+00 -1.155633848E+03  1.155633848E+03  0.000000000E+00  0.00000E+00  9.000E+00
      25     1     1     2     0     0  3.982070560E+01 -4.830762961E+01  3.208673870E+02  3.500002796E+02  1.250000000E+02  0.00000E+00  9.000E+00
      25     1     1     2     0     0  8.094709664E+00  1.760542185E+01 -4.346380911E+02  4.526706810E+02  1.250000000E+02  0.00000E+00  9.000E+00
       2     1     1     2   502     0 -4.791541526E+01  3.070220777E+01 -6.962521136E+02  6.985739176E+02  1.078959322E-05  0.00000E+00  9.000E+00
#rwgt            1           1   2.8007830645753056E-002           5      235627           0
</event>
<event>
      5   9999  3.19816E-02  1.87998E+01 -1.00000E+00  1.68618E-01
      21    -1     0     0   502   501  0.000000000E+00  0.000000000E+00  1.985808022E+02  1.985808022E+02  0.000000000E+00  0.00000E+00  9.000E+00
      21    -1     0     0   511   502  0.000000000E+00  0.000000000E+00 -3.090547874E+02  3.090547874E+02  0.000000000E+00  0.00000E+00  9.000E+00
      25     1     1     2     0     0 -3.338141751E-01 -1.311170659E+02 -2.036751116E+02  2.725809008E+02  1.250000000E+02  0.00000E+00  9.000E+00
      25     1     1     2     0     0 -1.355841505E+01  1.437835338E+02  9.932081115E+01  2.152839027E+02  1.250000000E+02  0.00000E+00  9.000E+00
      21     1     1     2   511   501  1.389222923E+01 -1.266646796E+01 -6.119684682E+00  1.977078613E+01  1.685873940E-07  0.00000E+00  9.000E+00
#rwgt            1           1   3.0761956880654761E-002           5      235706           0
</event>
<event>
      5   9999  3.19816E-02  1.10387E+01 -1.00000E+00  1.90923E-01
      21    -1     0     0   512   501  0.000000000E+00  0.000000000E+00  4.610345314E+02  4.610345314E+02  0.000000000E+00  0.00000E+00  9.000E+00
      21    -1     0     0   501   502  0.000000000E+00  0.000000000E+00 -1.113485793E+02  1.113485793E+02  0.000000000E+00  0.00000E+00  9.000E+00
      25     1     1     2     0     0  8.995337849E+01 -1.046781465E+02  3.121226162E+01  1.888076533E+02  1.250000000E+02  0.00000E+00  9.000E+00
      25     1     1     2     0     0 -9.751694235E+01  1.127183809E+02  2.636136002E+02  3.276158080E+02  1.250000000E+02  0.00000E+00  9.000E+00
      21     1     1     2   512   502  7.563563859E+00 -8.040234358E+00  5.486009025E+01  5.595964947E+01  6.743495762E-07  0.00000E+00  9.000E+00
#rwgt            1           1   2.7749468752735502E-002           5      235840           0
</event>
<event>
      5   9999  3.19816E-02  6.38699E+01 -1.00000E+00  1.33269E-01
      21    -1     0     0   511   501  0.000000000E+00  0.000000000E+00  3.874351950E+02  3.874351950E+02  0.000000000E+00  0.00000E+00  9.000E+00
      21    -1     0     0   501   502  0.000000000E+00  0.000000000E+00 -7.941439198E+02  7.941439198E+02  0.000000000E+00  0.00000E+00  9.000E+00
      25     1     1     2     0     0  1.079242804E+02 -3.948015836E+02 -2.613331891E+02  5.014339203E+02  1.250000000E+02  0.00000E+00  9.000E+00
      25     1     1     2     0     0 -5.226911591E+01  4.261363072E+02 -2.824697928E+02  5.289030125E+02  1.250000000E+02  0.00000E+00  9.000E+00
      21     1     1     2   511   502 -5.565516451E+01 -3.133472362E+01  1.370942572E+02  1.512421819E+02  1.907348633E-06  0.00000E+00  9.000E+00
#rwgt            1           1   3.0127693823062181E-002           5      236080           0
</event>
<event>
      5   9999  3.19816E-02  1.50837E+02 -1.00000E+00  1.16298E-01
      21    -1     0     0   502   501  0.000000000E+00  0.000000000E+00  2.139751261E+03  2.139751261E+03  0.000000000E+00  0.00000E+00  9.000E+00
      21    -1     0     0   501   512  0.000000000E+00  0.000000000E+00 -4.483398124E+02  4.483398124E+02  0.000000000E+00  0.00000E+00  9.000E+00
      25     1     1     2     0     0  2.798937032E+02 -1.866692037E+02 -2.251725262E+02  4.236903861E+02  1.250000000E+02  0.00000E+00  9.000E+00
      25     1     1     2     0     0 -4.077340892E+02  2.667237923E+02  1.946657816E+03  2.010594519E+03  1.250000000E+02  0.00000E+00  9.000E+00
      21     1     1     2   502   512  1.278403859E+02 -8.005458859E+01 -3.007384093E+01  1.538061681E+02  1.305872339E-06  0.00000E+00  9.000E+00
#rwgt            1           1   2.2235807359233199E-002           5      236172           0
</event>
<event>
      5   9999  3.19816E-02  4.01549E+01 -1.00000E+00  1.44736E-01
      21    -1     0     0   502   501  0.000000000E+00  0.000000000E+00  7.199681760E+02  7.199681760E+02  0.000000000E+00  0.00000E+00  9.000E+00
      21    -1     0     0   511   502  0.000000000E+00  0.000000000E+00 -1.972307377E+02  1.972307377E+02  0.000000000E+00  0.00000E+00  9.000E+00
      25     1     1     2     0     0  2.515029705E+02 -1.766343450E+02  3.307155336E+02  4.684561881E+02  1.250000000E+02  0.00000E+00  9.000E+00
      25     1     1     2     0     0 -2.897564346E+02  1.644242872E+02  1.994287035E+02  4.079104625E+02  1.250000000E+02  0.00000E+00  9.000E+00
      21     1     1     2   511   501  3.825346417E+01  1.221005786E+01 -7.406798864E+00  4.083226302E+01  6.637292341E-07  0.00000E+00  9.000E+00
#rwgt            1           1   2.8895833781646629E-002           5      236245           0
</event>
<event>
      5   9999  3.19816E-02  6.16666E+01 -1.00000E+00  1.34071E-01
      21    -1     0     0   512   501  0.000000000E+00  0.000000000E+00  4.065146994E+02  4.065146994E+02  0.000000000E+00  0.00000E+00  9.000E+00
      21    -1     0     0   501   502  0.000000000E+00  0.000000000E+00 -2.295937759E+02  2.295937759E+02  0.000000000E+00  0.00000E+00  9.000E+00
      25     1     1     2     0     0 -1.765593779E+02 -6.031366249E+01  1.866992804E+02  2.920489224E+02  1.250000000E+02  0.00000E+00  9.000E+00
      25     1     1     2     0     0  2.236409252E+02  1.001395581E+02 -3.527261774E+01  2.773307630E+02  1.250000000E+02  0.00000E+00  9.000E+00
      21     1     1     2   512   502 -4.708154730E+01 -3.982589563E+01  2.549426094E+01  6.672878989E+01  8.259061849E-07  0.00000E+00  9.000E+00
#rwgt            1           1   2.8699096521637664E-002           5      236333           0
</event>
<event>
      5   9999  3.19816E-02  3.32696E+01 -1.00000E+00  1.49984E-01
      21    -1     0     0   502   501  0.000000000E+00  0.000000000E+00  1.670659485E+03  1.670659485E+03  0.000000000E+00  0.00000E+00  9.000E+00
      21    -1     0     0   511   502  0.000000000E+00  0.000000000E+00 -1.674098139E+02  1.674098139E+02  0.000000000E+00  0.00000E+00  9.000E+00
      25     1     1     2     0     0 -1.308896507E+02 -7.748642528E+01  8.512794523E+02  8.737493649E+02  1.250000000E+02  0.00000E+00  9.000E+00
      25     1     1     2     0     0  1.294202537E+02  4.424924742E+01  7.955977676E+02  8.168894697E+02  1.250000000E+02  0.00000E+00  9.000E+00
      21     1     1     2   511   501  1.469396987E+00  3.323717786E+01 -1.436275486E+02  1.474304644E+02  6.325959759E-06  0.00000E+00  9.000E+00
#rwgt            1           1   2.3421151444052483E-002           5      236459           0
</event>
<event>
      5   9999  3.19816E-02  1.30628E+02 -1.00000E+00  1.18824E-01
      21    -1     0     0   502   501  0.000000000E+00  0.000000000E+00  3.525367481E+02  3.525367481E+02  0.000000000E+00  0.00000E+00  9.000E+00
      21    -1     0     0   512   502  0.000000000E+00  0.000000000E+00 -2.246469676E+03  2.246469676E+03  0.000000000E+00  0.00000E+00  9.000E+00
      25     1     1     2     0     0 -1.077381082E+02 -3.357462560E+02 -1.127973631E+03  1.188394951E+03  1.250000000E+02  0.00000E+00  9.000E+00
      25     1     1     2     0     0  1.088075448E+02  4.663697289E+02  1.247140449E+02  5.104100301E+02  1.250000000E+02  0.00000E+00  9.000E+00
      21     1     1     2   512   501 -1.069436615E+00 -1.306234728E+02 -8.906733416E+02  9.002014424E+02  0.000000000E+00  0.00000E+00  9.000E+00
#rwgt            1           1   2.6568113130285839E-002           5      236551           0
</event>
<event>
      5   9999  3.19816E-02  2.66200E+02 -1.00000E+00  1.07307E-01
      21    -1     0     0   502   511  0.000000000E+00  0.000000000E+00  1.118250899E+03  1.118250899E+03  0.000000000E+00  0.00000E+00  9.000E+00
      21    -1     0     0   501   502  0.000000000E+00  0.000000000E+00 -5.146892445E+02  5.146892445E+02  0.000000000E+00  0.00000E+00  9.000E+00
      25     1     1     2     0     0 -5.210314118E+01  5.562212373E+02  5.726562491E+02  8.097264858E+02  1.250000000E+02  0.00000E+00  9.000E+00
      25     1     1     2     0     0 -1.951109166E+02 -4.574914752E+02 -1.063094844E+02  5.237302990E+02  1.250000000E+02  0.00000E+00  9.000E+00
      21     1     1     2   501   511  2.472140578E+02 -9.872976210E+01  1.372148903E+02  2.994833591E+02  3.814697266E-06  0.00000E+00  9.000E+00
#rwgt            1           1   3.0367965894232810E-002           5      236675           0
</event>
<event>
      5   9999  3.19816E-02  1.24616E+02 -1.00000E+00  1.19677E-01
      21    -1     0     0   502   501  0.000000000E+00  0.000000000E+00  5.751171295E+02  5.751171295E+02  0.000000000E+00  0.00000E+00  9.000E+00
      21    -1     0     0   512   502  0.000000000E+00  0.000000000E+00 -5.503789307E+02  5.503789307E+02  0.000000000E+00  0.00000E+00  9.000E+00
      25     1     1     2     0     0 -1.162957359E+02 -2.353170642E+02  3.343516839E+02  4.430743362E+02  1.250000000E+02  0.00000E+00  9.000E+00
      25     1     1     2     0     0  2.050407149E+02  1.478325614E+02  6.349309740E+01  2.890545526E+02  1.250000000E+02  0.00000E+00  9.000E+00
      21     1     1     2   512   501 -8.874497902E+01  8.748450286E+01 -3.731065825E+02  3.933671713E+02  5.394796609E-06  0.00000E+00  9.000E+00
#rwgt            1           1   3.1265969961875514E-002           5      236756           0
</event>
<event>
      5   9999  3.19816E-02  2.26935E+01 -1.00000E+00  1.61965E-01
       1    -1     0     0   502     0  0.000000000E+00  0.000000000E+00  1.186066021E+03  1.186066021E+03  0.000000000E+00  0.00000E+00  9.000E+00
      21    -1     0     0   501   502  0.000000000E+00  0.000000000E+00 -1.255000726E+02  1.255000726E+02  0.000000000E+00  0.00000E+00  9.000E+00
      25     1     1     2     0     0  1.914037041E+02 -1.084714723E+02  8.938978604E+01  2.683597811E+02  1.250000000E+02  0.00000E+00  9.000E+00
      25     1     1     2     0     0 -2.102166331E+02  1.211626833E+02  4.851994927E+02  5.567000776E+02  1.250000000E+02  0.00000E+00  9.000E+00
       1     1     1     2   501     0  1.881292899E+01 -1.269121105E+01  4.859766698E+02  4.865062350E+02  7.629394531E-06  0.00000E+00  9.000E+00
#rwgt            1           1   3.1093997968391407E-002           5      236810           0
</event>
<event>
      5   9999  3.19816E-02  6.09694E+01 -1.00000E+00  1.34332E-01
      21    -1     0     0   511   501  0.000000000E+00  0.000000000E+00  8.656305706E+02  8.656305706E+02  0.000000000E+00  0.00000E+00  9.000E+00
      21    -1     0     0   501   502  0.000000000E+00  0.000000000E+00 -2.108356151E+03  2.108356151E+03  0.000000000E+00  0.00000E+00  9.000E+00
      25     1     1     2     0     0  9.372821229E+01 -3.674687624E+02 -1.551979640E+03  1.602524282E+03  1.250000000E+02  0.00000E+00  9.000E+00
      25     1     1     2     0     0 -1.042400435E+02  3.074123370E+02 -4.728365555E+02  5.869989266E+02  1.250000000E+02  0.00000E+00  9.000E+00
      21     1     1     2   511   502  1.051183118E+01  6.005642535E+01  7.820906155E+02  7.844635133E+02  1.078959322E-05  0.00000E+00  9.000E+00
#rwgt            1           1   2.8025925182436282E-002           5      236921           0
</event>
<event>
      5   9999  3.19816E-02  1.12869E+01 -1.00000E+00  1.89870E-01
      21    -1     0     0   502   501  0.000000000E+00  0.000000000E+00  8.890931820E+02  8.890931820E+02  0.000000000E+00  0.00000E+00  9.000E+00
      21    -1     0     0   512   502  0.000000000E+00  0.000000000E+00 -4.446264205E+01  4.446264205E+01  0.000000000E+00  0.00000E+00  9.000E+00
      25     1     1     2     0     0  9.524021677E+01  7.158613128E+01  2.081344392E+02  2.704444821E+02  1.250000000E+02  0.00000E+00  9.000E+00
      25     1     1     2     0     0 -8.732014233E+01 -7.962770206E+01  6.175275172E+02  6.410386983E+02  1.250000000E+02  0.00000E+00  9.000E+00
      21     1     1     2   512   501 -7.920074445E+00  8.041570777E+00  1.896858350E+01  2.207264370E+01  0.000000000E+00  0.00000E+00  9.000E+00
#rwgt            1           1   2.9010406420955315E-002           5      237014           0
</event>
<event>
      5   9999  3.19816E-02  6.93328E+00 -1.00000E+00  2.16143E-01
      21    -1     0     0   502   501  0.000000000E+00  0.000000000E+00  4.859475183E+02  4.859475183E+02  0.000000000E+00  0.00000E+00  9.000E+00
      21    -1     0     0   501   511  0.000000000E+00  0.000000000E+00 -7.070865137E+02  7.070865137E+02  0.000000000E+00  0.00000E+00  9.000E+00
      25     1     1     2     0     0  8.024893718E+01 -3.762830097E+02 -5.366328067E+02  6.720331573E+02  1.250000000E+02  0.00000E+00  9.000E+00
      25     1     1     2     0     0 -8.225794790E+01  3.696471793E+02  3.211737412E+02  5.120380642E+02  1.250000000E+02  0.00000E+00  9.000E+00
      21     1     1     2   502   511  2.009010721E+00  6.635830339E+00 -5.679929855E+00  8.962810470E+00  0.000000000E+00  0.00000E+00  9.000E+00
#rwgt            1           1   2.7995271011673810E-002           5      237209           0
</event>
<event>
      5   9999  3.19816E-02  2.04304E+01 -1.00000E+00  1.65610E-01
      21    -1     0     0   502   501  0.000000000E+00  0.000000000E+00  6.228554999E+02  6.228554999E+02  0.000000000E+00  0.00000E+00  9.000E+00
      21    -1     0     0   512   502  0.000000000E+00  0.000000000E+00 -3.900526144E+02  3.900526144E+02  0.000000000E+00  0.00000E+00  9.000E+00
      25     1     1     2     0     0  2.341026123E+02 -1.411423365E+02  5.523932587E+01  3.056167131E+02  1.250000000E+02  0.00000E+00  9.000E+00
      25     1     1     2     0     0 -2.143639420E+02  1.358710968E+02  3.966771041E+02  4.872274413E+02  1.250000000E+02  0.00000E+00  9.000E+00
      21     1     1     2   512   501 -1.973867024E+01  5.271239633E+00 -2.191135445E+02  2.200639599E+02  3.814697266E-06  0.00000E+00  9.000E+00
#rwgt            1           1   3.0007579161878458E-002           5      237503           0
</event>
<event>
      5   9999  3.19816E-02  4.34192E+01 -1.00000E+00  1.42665E-01
      21    -1     0     0   502   511  0.000000000E+00  0.000000000E+00  8.624883421E+01  8.624883421E+01  0.000000000E+00  0.00000E+00  9.000E+00
      21    -1     0     0   501   502  0.000000000E+00  0.000000000E+00 -2.977774229E+02  2.977774229E+02  0.000000000E+00  0.00000E+00  9.000E+00
      25     1     1     2     0     0  2.737331065E+01 -1.226966394E+01 -1.635351643E+02  2.080110400E+02  1.250000000E+02  0.00000E+00  9.000E+00
      25     1     1     2     0     0  1.438445930E+01  3.735341972E-01 -3.832262983E+01  1.315320347E+02  1.250000000E+02  0.00000E+00  9.000E+00
      21     1     1     2   501   511 -4.175776996E+01  1.189612975E+01 -9.670794607E+00  4.448318247E+01  1.250277577E-06  0.00000E+00  9.000E+00
#rwgt            1           1   7.6299065138624332E-003           5      237672           0
</event>
<event>
      5   9999  3.19816E-02  4.73655E+01 -1.00000E+00  1.40430E-01
      21    -1     0     0   502   512  0.000000000E+00  0.000000000E+00  7.271188958E+02  7.271188958E+02  0.000000000E+00  0.00000E+00  9.000E+00
      21    -1     0     0   501   502  0.000000000E+00  0.000000000E+00 -3.115898029E+02  3.115898029E+02  0.000000000E+00  0.00000E+00  9.000E+00
      25     1     1     2     0     0  3.977017284E+02 -3.881813984E+01  5.329976777E+01  4.220656087E+02  1.250000000E+02  0.00000E+00  9.000E+00
      25     1     1     2     0     0 -4.268351300E+02  7.616434134E+01  3.199953239E+02  5.531828291E+02  1.250000000E+02  0.00000E+00  9.000E+00
      21     1     1     2   501   512  2.913340160E+01 -3.734620150E+01  4.223400120E+01  6.346026089E+01  8.259061849E-07  0.00000E+00  9.000E+00
#rwgt            1           1   2.9752766173963777E-002           5      237767           0
</event>
<event>
      5   9999  3.19816E-02  2.19381E+01 -1.00000E+00  1.63122E-01
      21    -1     0     0   511   501  0.000000000E+00  0.000000000E+00  2.426145302E+03  2.426145302E+03  0.000000000E+00  0.00000E+00  9.000E+00
      21    -1     0     0   501   502  0.000000000E+00  0.000000000E+00 -2.818675772E+02  2.818675772E+02  0.000000000E+00  0.00000E+00  9.000E+00
      25     1     1     2     0     0  3.938430394E+02  4.400640888E+02  1.367389757E+03  1.494706824E+03  1.250000000E+02  0.00000E+00  9.000E+00
      25     1     1     2     0     0 -4.135793670E+02 -4.304851612E+02  2.086021487E+02  6.445969463E+02  1.250000000E+02  0.00000E+00  9.000E+00
      21     1     1     2   511   502  1.973632759E+01 -9.578927636E+00  5.682858189E+02  5.687091088E+02  1.078959322E-05  0.00000E+00  9.000E+00
#rwgt            1           1   2.7416022183688681E-002           5      237894           0
</event>
<event>
      5   9999  3.19816E-02  4.81907E+01 -1.00000E+00  1.39995E-01
      21    -1     0     0   502   501  0.000000000E+00  0.000000000E+00  3.640718706E+02  3.640718706E+02  0.000000000E+00  0.00000E+00  9.000E+00
      21    -1     0     0   501   512  0.000000000E+00  0.000000000E+00 -8.218667889E+02  8.218667889E+02  0.000000000E+00  0.00000E+00  9.000E+00
      25     1     1     2     0     0 -1.411001984E+02  1.357247565E+01 -4.963335747E+01  1.954020170E+02  1.250000000E+02  0.00000E+00  9.000E+00
      25     1     1     2     0     0  1.072948343E+02  2.077190418E+01  2.665889766E+02  3.140674067E+02  1.250000000E+02  0.00000E+00  9.000E+00
      21     1     1     2   502   512  3.380536409E+01 -3.434437983E+01 -6.747505375E+02  6.764692357E+02  7.629394531E-06  0.00000E+00  9.000E+00
#rwgt            1           1   2.8606761848358003E-002           5      238110           0
</event>
<event>
      5   9999  3.19816E-02  2.30821E+01 -1.00000E+00  1.61392E-01
       1    -1     0     0   502     0  0.000000000E+00  0.000000000E+00  5.482275502E+02  5.482275502E+02  0.000000000E+00  0.00000E+00  9.000E+00
      21    -1     0     0   501   502  0.000000000E+00  0.000000000E+00 -1.497899172E+02  1.497899172E+02  0.000000000E+00  0.00000E+00  9.000E+00
      25     1     1     2     0     0 -1.860261457E+02  1.267054040E+02  1.220488513E+02  2.849226358E+02  1.250000000E+02  0.00000E+00  9.000E+00
      25     1     1     2     0     0  1.674164759E+02 -1.130501646E+02  1.420519451E+02  2.767893987E+02  1.250000000E+02  0.00000E+00  9.000E+00
       1     1     1     2   501     0  1.860966981E+01 -1.365523942E+01  1.343368366E+02  1.363054329E+02  1.907348633E-06  0.00000E+00  9.000E+00
#rwgt            1           1   2.7215481355094214E-002           5      238174           0
</event>
<event>
      5   9999  3.19816E-02  6.61095E+02 -1.00000E+00  9.55241E-02
      21    -1     0     0   502   501  0.000000000E+00  0.000000000E+00  1.940885709E+03  1.940885709E+03  0.000000000E+00  0.00000E+00  9.000E+00
      21    -1     0     0   511   502  0.000000000E+00  0.000000000E+00 -8.313517814E+02  8.313517814E+02  0.000000000E+00  0.00000E+00  9.000E+00
      25     1     1     2     0     0  1.037624419E+02 -3.999585223E+02  1.310918431E+03  1.380168684E+03  1.250000000E+02  0.00000E+00  9.000E+00
      25     1     1     2     0     0 -6.384383711E+02  1.115459578E+01  1.123867586E+02  6.602906649E+02  1.250000000E+02  0.00000E+00  9.000E+00
      21     1     1     2   511   501  5.346759292E+02  3.888039265E+02 -3.137712624E+02  7.317781409E+02  3.814697266E-06  0.00000E+00  9.000E+00
#rwgt            2          11   1.9771430580374180E-003           5      238301           0
</event>
<event>
      5   9999  3.19816E-02  3.96073E+01 -1.00000E+00  1.45106E-01
      21    -1     0     0   512   501  0.000000000E+00  0.000000000E+00  1.329552529E+03  1.329552529E+03  0.000000000E+00  0.00000E+00  9.000E+00
      21    -1     0     0   501   502  0.000000000E+00  0.000000000E+00 -4.330342624E+01  4.330342624E+01  0.000000000E+00  0.00000E+00  9.000E+00
      25     1     1     2     0     0 -1.377406732E+02  4.973964381E+01  5.025995355E+02  5.382172593E+02  1.250000000E+02  0.00000E+00  9.000E+00
      25     1     1     2     0     0  1.562369615E+02 -8.476286338E+01  4.619162121E+02  5.104765598E+02  1.250000000E+02  0.00000E+00  9.000E+00
      21     1     1     2   512   502 -1.849628836E+01  3.502321957E+01  3.217333551E+02  3.241621360E+02  0.000000000E+00  0.00000E+00  9.000E+00
#rwgt            1           1   3.2165913664085895E-002           5      238336           0
</event>
<event>
      5   9999  3.19816E-02  2.98742E+01 -1.00000E+00  1.53167E-01
      21    -1     0     0   502   501  0.000000000E+00  0.000000000E+00  3.450588327E+02  3.450588327E+02  0.000000000E+00  0.00000E+00  9.000E+00
      -1    -1     0     0     0   502  0.000000000E+00  0.000000000E+00 -7.982273308E+02  7.982273308E+02  0.000000000E+00  0.00000E+00  9.000E+00
      25     1     1     2     0     0 -2.034417237E+02 -2.295227118E+01 -3.975410791E+01  2.431475494E+02  1.250000000E+02  0.00000E+00  9.000E+00
      25     1     1     2     0     0  1.798749505E+02  4.131195225E+01  1.918744234E+02  2.941130218E+02  1.250000000E+02  0.00000E+00  9.000E+00
      -1     1     1     2     0   501  2.356677320E+01 -1.835968107E+01 -6.052888136E+02  6.060255923E+02  1.321449896E-05  0.00000E+00  9.000E+00
#rwgt            1           1   3.2054188916785985E-002           5      238426           0
</event>
<event>
      5   9999  3.19816E-02  4.04197E+01 -1.00000E+00  1.44560E-01
      21    -1     0     0   511   501  0.000000000E+00  0.000000000E+00  3.323679272E+02  3.323679272E+02  0.000000000E+00  0.00000E+00  9.000E+00
      21    -1     0     0   501   502  0.000000000E+00  0.000000000E+00 -2.040758142E+02  2.040758142E+02  0.000000000E+00  0.00000E+00  9.000E+00
      25     1     1     2     0     0 -1.736117026E+02 -4.572511788E+01  1.127722992E+02  2.461186729E+02  1.250000000E+02  0.00000E+00  9.000E+00
      25     1     1     2     0     0  1.851599795E+02  8.445994775E+01 -1.555304365E+01  2.393420104E+02  1.250000000E+02  0.00000E+00  9.000E+00
      21     1     1     2   511   502 -1.154827696E+01 -3.873482987E+01  3.107285751E+01  5.098305816E+01  0.000000000E+00  0.00000E+00  9.000E+00
#rwgt            1           1   2.5529708896461615E-002           5      238569           0
</event>
<event>
      5   9999  3.19816E-02  9.00526E+01 -1.00000E+00  1.25910E-01
      21    -1     0     0   502   501  0.000000000E+00  0.000000000E+00  9.275797277E+02  9.275797277E+02  0.000000000E+00  0.00000E+00  9.000E+00
      21    -1     0     0   501   512  0.000000000E+00  0.000000000E+00 -5.171600069E+02  5.171600069E+02  0.000000000E+00  0.00000E+00  9.000E+00
      25     1     1     2     0     0 -3.459410252E+02  5.817664604E+01  5.339265798E+02  6.509702817E+02  1.250000000E+02  0.00000E+00  9.000E+00
      25     1     1     2     0     0  2.569366158E+02 -4.447656992E+01  2.666547915E+02  3.933501845E+02  1.250000000E+02  0.00000E+00  9.000E+00
      21     1     1     2   502   512  8.900440931E+01 -1.370007612E+01 -3.901616505E+02  4.004192683E+02  7.629394531E-06  0.00000E+00  9.000E+00
#rwgt            1           1   3.1046500184818433E-002           5      238709           0
</event>
<event>
      5   9999  3.19816E-02  2.27434E+01 -1.00000E+00  1.61891E-01
       2    -1     0     0   502     0  0.000000000E+00  0.000000000E+00  2.099647879E+02  2.099647879E+02  0.000000000E+00  0.00000E+00  9.000E+00
      21    -1     0     0   501   502  0.000000000E+00  0.000000000E+00 -2.170112131E+03  2.170112131E+03  0.000000000E+00  0.00000E+00  9.000E+00
      25     1     1     2     0     0  1.600345954E+01  1.458148054E+02 -1.505355135E+03  1.517641970E+03  1.250000000E+02  0.00000E+00  9.000E+00
      25     1     1     2     0     0 -1.353387461E+01 -1.684237298E+02 -6.411364907E+02  6.747078762E+02  1.250000000E+02  0.00000E+00  9.000E+00
       2     1     1     2   501     0 -2.469584936E+00  2.260892439E+01  1.863442822E+02  1.877270727E+02  4.672030912E-06  0.00000E+00  9.000E+00
#rwgt            1           1   7.3330473833805657E-002           5      238772           0
</event>
<event>
      5   9999  3.19816E-02  6.72963E+01 -1.00000E+00  1.32093E-01
      21    -1     0     0   502   501  0.000000000E+00  0.000000000E+00  3.669035016E+02  3.669035016E+02  0.000000000E+00  0.00000E+00  9.000E+00
      21    -1     0     0   501   511  0.000000000E+00  0.000000000E+00 -7.837082723E+02  7.837082723E+02  0.000000000E+00  0.00000E+00  9.000E+00
      25     1     1     2     0     0  2.515552318E+02  2.656831765E+02 -1.919100966E+02  4.316504027E+02  1.250000000E+02  0.00000E+00  9.000E+00
      25     1     1     2     0     0 -2.302569861E+02 -3.295203366E+02  6.088655906E+01  4.253634974E+02  1.250000000E+02  0.00000E+00  9.000E+00
      21     1     1     2   502   511 -2.129824574E+01  6.383716004E+01 -2.857812331E+02  2.935978738E+02  3.814697266E-06  0.00000E+00  9.000E+00
#rwgt            1           1   2.8761163050061135E-002           5      238881           0
</event>
<event>
      5   9999  3.19816E-02  5.68434E+01 -1.00000E+00  1.35970E-01
       1    -1     0     0   502     0  0.000000000E+00  0.000000000E+00  1.739084242E+02  1.739084242E+02  0.000000000E+00  0.00000E+00  9.000E+00
      21    -1     0     0   501   502  0.000000000E+00  0.000000000E+00 -3.126505143E+02  3.126505143E+02  0.000000000E+00  0.00000E+00  9.000E+00
      25     1     1     2     0     0 -7.797469824E+01 -2.594624171E+01 -2.001384671E+02  2.498672989E+02  1.250000000E+02  0.00000E+00  9.000E+00
      25     1     1     2     0     0  7.026624825E+01 -3.037209331E+01 -8.230599819E+00  1.468078760E+02  1.250000000E+02  0.00000E+00  9.000E+00
       1     1     1     2   501     0  7.708449993E+00  5.631833502E+01  6.962697685E+01  8.988376364E+01  1.651812370E-06  0.00000E+00  9.000E+00
#rwgt            1           1   3.6654394295891450E-002           5      239014           0
</event>
<event>
      5   9999  3.19816E-02  1.34497E+02 -1.00000E+00  1.18303E-01
      21    -1     0     0   502   501  0.000000000E+00  0.000000000E+00  1.019155590E+03  1.019155590E+03  0.000000000E+00  0.00000E+00  9.000E+00
      21    -1     0     0   511   502  0.000000000E+00  0.000000000E+00 -3.250542418E+02  3.250542418E+02  0.000000000E+00  0.00000E+00  9.000E+00
      25     1     1     2     0     0 -3.557889474E+02  2.278226011E+02  1.269355915E+02  4.585046969E+02  1.250000000E+02  0.00000E+00  9.000E+00
      25     1     1     2     0     0  2.564756626E+02 -3.185212632E+02  6.096391431E+02  7.446612958E+02  1.250000000E+02  0.00000E+00  9.000E+00
      21     1     1     2   511   501  9.931328485E+01  9.069866217E+01 -4.247338683E+01  1.410438388E+02  4.101908334E-06  0.00000E+00  9.000E+00
#rwgt            1           1   3.3818318754796753E-002           5      239083           0
</event>
<event>
      5   9999  3.19816E-02  7.28794E+01 -1.00000E+00  1.30340E-01
      21    -1     0     0   502   501  0.000000000E+00  0.000000000E+00  4.981323746E+02  4.981323746E+02  0.000000000E+00  0.00000E+00  9.000E+00
      21    -1     0     0   501   512  0.000000000E+00  0.000000000E+00 -2.919564396E+02  2.919564396E+02  0.000000000E+00  0.00000E+00  9.000E+00
      25     1     1     2     0     0  2.195258655E+02  1.844390894E+02 -7.161803381E+01  3.208793014E+02  1.250000000E+02  0.00000E+00  9.000E+00
      25     1     1     2     0     0 -1.492195941E+02 -2.036339429E+02  2.787723860E+02  3.963234956E+02  1.250000000E+02  0.00000E+00  9.000E+00
      21     1     1     2   502   512 -7.030627137E+01  1.919485350E+01 -9.784171319E-01  7.288601714E+01  6.745141922E-07  0.00000E+00  9.000E+00
#rwgt            1           1   2.8030932319081811E-002           5      239157           0
</event>
<event>
      5   9999  3.19816E-02  5.62499E+01 -1.00000E+00  1.36218E-01
      21    -1     0     0   502   501  0.000000000E+00  0.000000000E+00  9.022812489E+02  9.022812489E+02  0.000000000E+00  0.00000E+00  9.000E+00
      21    -1     0     0   511   502  0.000000000E+00  0.000000000E+00 -2.273177882E+02  2.273177882E+02  0.000000000E+00  0.00000E+00  9.000E+00
      25     1     1     2     0     0  3.147869104E+02  7.867817496E+01  5.841830700E+02  6.798352105E+02  1.250000000E+02  0.00000E+00  9.000E+00
      25     1     1     2     0     0 -3.356865875E+02 -1.309013103E+02  9.600542195E+01  3.932717624E+02  1.250000000E+02  0.00000E+00  9.000E+00
      21     1     1     2   511   501  2.089967701E+01  5.222313537E+01 -5.225031231E+00  5.649206421E+01  8.492354660E-07  0.00000E+00  9.000E+00
#rwgt            1           1   2.7624480619588845E-002           5      239211           0
</event>
<event>
      5   9999  3.19816E-02  1.04667E+02 -1.00000E+00  1.22943E-01
      21    -1     0     0   512   501  0.000000000E+00  0.000000000E+00  1.095000770E+03  1.095000770E+03  0.000000000E+00  0.00000E+00  9.000E+00
      21    -1     0     0   501   502  0.000000000E+00  0.000000000E+00 -1.620789600E+03  1.620789600E+03  0.000000000E+00  0.00000E+00  9.000E+00
      25     1     1     2     0     0  1.880749837E+01 -5.224941262E+02 -1.466097248E+03  1.561544100E+03  1.250000000E+02  0.00000E+00  9.000E+00
      25     1     1     2     0     0 -1.230525133E+02  5.131017906E+02  8.794106228E+02  1.033152173E+03  1.250000000E+02  0.00000E+00  9.000E+00
      21     1     1     2   512   502  1.042450149E+02  9.392335633E+00  6.089779519E+01  1.210940980E+02  1.907348633E-06  0.00000E+00  9.000E+00
#rwgt            1           1   5.5945922339858116E-002           5      239293           0
</event>
<event>
      5   9999  3.19816E-02  6.40549E+01 -1.00000E+00  1.33203E-01
      21    -1     0     0   502   501  0.000000000E+00  0.000000000E+00  7.603413345E+02  7.603413345E+02  0.000000000E+00  0.00000E+00  9.000E+00
      21    -1     0     0   501   511  0.000000000E+00  0.000000000E+00 -4.998657087E+02  4.998657087E+02  0.000000000E+00  0.00000E+00  9.000E+00
      25     1     1     2     0     0  3.800400274E+02  2.181795693E+02  5.092199834E+02  6.833467190E+02  1.250000000E+02  0.00000E+00  9.000E+00
      25     1     1     2     0     0 -3.943268275E+02 -1.557383016E+02 -1.658496570E+02  4.721008093E+02  1.250000000E+02  0.00000E+00  9.000E+00
      21     1     1     2   502   511  1.428680004E+01 -6.244126771E+01 -8.289470061E+01  1.047595149E+02  0.000000000E+00  0.00000E+00  9.000E+00
#rwgt            1           1   2.5938695473349028E-002           5      239419           0
</event>
<event>
      5   9999  3.19816E-02  1.36709E+02 -1.00000E+00  1.18013E-01
      21    -1     0     0   512   501  0.000000000E+00  0.000000000E+00  7.355993411E+02  7.355993411E+02  0.000000000E+00  0.00000E+00  9.000E+00
      21    -1     0     0   501   502  0.000000000E+00  0.000000000E+00 -6.773430722E+02  6.773430722E+02  0.000000000E+00  0.00000E+00  9.000E+00
      25     1     1     2     0     0  4.544911957E+02  1.763730846E+02 -3.031771905E+02  5.875466967E+02  1.250000000E+02  0.00000E+00  9.000E+00
      25     1     1     2     0     0 -4.942219999E+02 -3.071808948E+02  3.443678711E+02  6.876261469E+02  1.250000000E+02  0.00000E+00  9.000E+00
      21     1     1     2   512   502  3.973080417E+01  1.308078103E+02  1.706558833E+01  1.377695697E+02  2.145767212E-06  0.00000E+00  9.000E+00
#rwgt            1           1   2.8954078274600992E-002           5      239519           0
</event>
<event>
      5   9999  3.19816E-02  1.04644E+02 -1.00000E+00  1.22948E-01
      21    -1     0     0   502   501  0.000000000E+00  0.000000000E+00  9.531709584E+02  9.531709584E+02  0.000000000E+00  0.00000E+00  9.000E+00
      -2    -1     0     0     0   502  0.000000000E+00  0.000000000E+00 -4.352642700E+02  4.352642700E+02  0.000000000E+00  0.00000E+00  9.000E+00
      25     1     1     2     0     0  1.470879503E+02 -1.211498284E+02  7.582997072E+02  7.918052741E+02  1.250000000E+02  0.00000E+00  9.000E+00
      25     1     1     2     0     0 -1.344984701E+02  2.250342550E+02  4.385460078E+01  2.937319874E+02  1.250000000E+02  0.00000E+00  9.000E+00
      -2     1     1     2     0   501 -1.258948017E+01 -1.038844266E+02 -2.842476197E+02  3.028979670E+02  7.629394531E-06  0.00000E+00  9.000E+00
#rwgt            1           1   2.6496953887136063E-002           5      239594           0
</event>
<event>
      5   9999  3.19816E-02  3.47943E+02 -1.00000E+00  1.03541E-01
      21    -1     0     0   502   501  0.000000000E+00  0.000000000E+00  1.603625311E+03  1.603625311E+03  0.000000000E+00  0.00000E+00  9.000E+00
      21    -1     0     0   511   502  0.000000000E+00  0.000000000E+00 -3.616805168E+02  3.616805168E+02  0.000000000E+00  0.00000E+00  9.000E+00
      25     1     1     2     0     0  1.430120677E+02 -1.198310224E+02  1.196733062E+03  1.217623483E+03  1.250000000E+02  0.00000E+00  9.000E+00
      25     1     1     2     0     0  1.135916251E+02 -1.151557800E+02  2.660925923E+02  3.355505605E+02  1.250000000E+02  0.00000E+00  9.000E+00
      21     1     1     2   511   501 -2.566036928E+02  2.349868025E+02 -2.208808605E+02  4.121317835E+02  3.814697266E-06  0.00000E+00  9.000E+00
#rwgt            2          11   1.9970596288305584E-002           5      239799           0
</event>
<event>
      5   9999  3.19816E-02  1.41720E+02 -1.00000E+00  1.17379E-01
      21    -1     0     0   502   501  0.000000000E+00  0.000000000E+00  1.121724291E+02  1.121724291E+02  0.000000000E+00  0.00000E+00  9.000E+00
      21    -1     0     0   512   502  0.000000000E+00  0.000000000E+00 -8.699468711E+02  8.699468711E+02  0.000000000E+00  0.00000E+00  9.000E+00
      25     1     1     2     0     0 -7.308455089E+01  1.064064556E+02 -5.507933781E+02  5.793634703E+02  1.250000000E+02  0.00000E+00  9.000E+00
      25     1     1     2     0     0  6.473232764E+00  1.868315627E+01  2.681171750E+01  1.293631758E+02  1.250000000E+02  0.00000E+00  9.000E+00
      21     1     1     2   512   501  6.661131813E+01 -1.250896119E+02 -2.337927814E+02  2.733926541E+02  3.814697266E-06  0.00000E+00  9.000E+00
#rwgt            1           1   2.6298874436707982E-002           5      239819           0
</event>
<event>
      5   9999  3.19816E-02  1.39002E+02 -1.00000E+00  1.17719E-01
      21    -1     0     0   502   501  0.000000000E+00  0.000000000E+00  1.905024447E+03  1.905024447E+03  0.000000000E+00  0.00000E+00  9.000E+00
      21    -1     0     0   501   511  0.000000000E+00  0.000000000E+00 -2.546506517E+02  2.546506517E+02  0.000000000E+00  0.00000E+00  9.000E+00
      25     1     1     2     0     0  3.444966478E+02  1.576821413E+02  5.736261582E+02  6.987228115E+02  1.250000000E+02  0.00000E+00  9.000E+00
      25     1     1     2     0     0 -4.302747660E+02 -2.670608738E+02  1.178440835E+03  1.288722502E+03  1.250000000E+02  0.00000E+00  9.000E+00
      21     1     1     2   502   511  8.577811813E+01  1.093787326E+02 -1.016931976E+02  1.722297858E+02  1.348699152E-06  0.00000E+00  9.000E+00
#rwgt            2          11   5.7042922234111487E-003           5      239954           0
</event>
<event>
      5   9999  3.19816E-02  1.19265E+02 -1.00000E+00  1.20482E-01
      21    -1     0     0   502   501  0.000000000E+00  0.000000000E+00  1.581567216E+03  1.581567216E+03  0.000000000E+00  0.00000E+00  9.000E+00
      21    -1     0     0   501   512  0.000000000E+00  0.000000000E+00 -6.941325237E+01  6.941325237E+01  0.000000000E+00  0.00000E+00  9.000E+00
      25     1     1     2     0     0 -5.591824944E+01  7.026496947E+01  3.481827998E+02  3.806839616E+02  1.250000000E+02  0.00000E+00  9.000E+00
      25     1     1     2     0     0  9.320486400E+01 -1.835510821E+02  1.116090157E+03  1.141779482E+03  1.250000000E+02  0.00000E+00  9.000E+00
      21     1     1     2   502   512 -3.728661456E+01  1.132861126E+02  4.788100711E+01  1.285170253E+02  3.873843386E-06  0.00000E+00  9.000E+00
#rwgt            1           1   3.8807870624213751E-002           5      239974           0
</event>
<event>
      5   9999  3.19816E-02  8.52054E+01 -1.00000E+00  1.27038E-01
      21    -1     0     0   511   501  0.000000000E+00  0.000000000E+00  1.412236172E+03  1.412236172E+03  0.000000000E+00  0.00000E+00  9.000E+00
      21    -1     0     0   501   502  0.000000000E+00  0.000000000E+00 -5.223380722E+02  5.223380722E+02  0.000000000E+00  0.00000E+00  9.000E+00
      25     1     1     2     0     0  5.619985343E+02  4.479245877E+02  6.471836696E+02  9.751669041E+02  1.250000000E+02  0.00000E+00  9.000E+00
      25     1     1     2     0     0 -6.002640522E+02 -3.717950072E+02  1.602961312E+01  7.172380415E+02  1.250000000E+02  0.00000E+00  9.000E+00
      21     1     1     2   511   502  3.826551786E+01 -7.612958049E+01  2.266848175E+02  2.421692990E+02  2.697398305E-06  0.00000E+00  9.000E+00
#rwgt            1           1   3.2799408494758618E-002           5      240004           0
</event>
<event>
      5   9999  3.19816E-02  2.46968E+01 -1.00000E+00  1.59149E-01
      21    -1     0     0   512   501  0.000000000E+00  0.000000000E+00  2.437638624E+02  2.437638624E+02  0.000000000E+00  0.00000E+00  9.000E+00
      21    -1     0     0   501   502  0.000000000E+00  0.000000000E+00 -2.095971391E+02  2.095971391E+02  0.000000000E+00  0.00000E+00  9.000E+00
      25     1     1     2     0     0 -4.084246038E+01  1.731485814E+01 -1.536946542E+02  2.030146734E+02  1.250000000E+02  0.00000E+00  9.000E+00
      25     1     1     2     0     0  5.080769530E+01 -3.991186075E+01  1.572350370E+02  2.110029274E+02  1.250000000E+02  0.00000E+00  9.000E+00
      21     1     1     2   512   502 -9.965234923E+00  2.259700261E+01  3.062634057E+01  3.934340060E+01  3.371747881E-07  0.00000E+00  9.000E+00
#rwgt            1           1   2.9517455286137004E-002           5      240100           0
</event>
<event>
      5   9999  3.19816E-02  1.05638E+02 -1.00000E+00  1.22766E-01
      21    -1     0     0   502   501  0.000000000E+00  0.000000000E+00  1.393930556E+03  1.393930556E+03  0.000000000E+00  0.00000E+00  9.000E+00
      21    -1     0     0   501   511  0.000000000E+00  0.000000000E+00 -2.321480740E+02  2.321480740E+02  0.000000000E+00  0.00000E+00  9.000E+00
      25     1     1     2     0     0 -2.568135802E+01  2.546245317E+02 -2.066718803E+01  2.855614067E+02  1.250000000E+02  0.00000E+00  9.000E+00
      25     1     1     2     0     0  1.253364068E+02 -2.195784142E+02  1.200641558E+03  1.233324388E+03  1.250000000E+02  0.00000E+00  9.000E+00
      21     1     1     2   502   511 -9.965504877E+01 -3.504611755E+01 -1.819188842E+01  1.071928351E+02  1.685873940E-06  0.00000E+00  9.000E+00
#rwgt            1           1   2.8891974475144425E-002           5      240279           0
</event>
<event>
      5   9999  3.19816E-02  1.23102E+01 -1.00000E+00  1.85870E-01
      21    -1     0     0   502   501  0.000000000E+00  0.000000000E+00  1.435972961E+02  1.435972961E+02  0.000000000E+00  0.00000E+00  9.000E+00
      21    -1     0     0   501   512  0.000000000E+00  0.000000000E+00 -3.322643068E+02  3.322643068E+02  0.000000000E+00  0.00000E+00  9.000E+00
      25     1     1     2     0     0 -1.116124134E+02 -9.952278704E+01 -1.793207690E+02  2.648453401E+02  1.250000000E+02  0.00000E+00  9.000E+00
      25     1     1     2     0     0  9.994630698E+01  1.034526046E+02  6.826223620E+00  1.906916438E+02  1.250000000E+02  0.00000E+00  9.000E+00
      21     1     1     2   502   512  1.166610642E+01 -3.929817583E+00 -1.617246532E+01  2.032461906E+01  2.384185791E-07  0.00000E+00  9.000E+00
#rwgt            1           1   2.7910434005803245E-002           5      240361           0
</event>
<event>
      5   9999  3.19816E-02  1.38777E+02 -1.00000E+00  1.17748E-01
      21    -1     0     0   502   501  0.000000000E+00  0.000000000E+00  1.297281903E+03  1.297281903E+03  0.000000000E+00  0.00000E+00  9.000E+00
       2    -1     0     0   501     0  0.000000000E+00  0.000000000E+00 -1.420095619E+03  1.420095619E+03  0.000000000E+00  0.00000E+00  9.000E+00
      25     1     1     2     0     0  3.017247333E+02 -1.020200421E+03  8.973617898E+01  1.074953160E+03  1.250000000E+02  0.00000E+00  9.000E+00
      25     1     1     2     0     0 -1.629577472E+02  1.018496971E+03  3.239003902E+02  1.088314187E+03  1.250000000E+02  0.00000E+00  9.000E+00
       2     1     1     2   502     0 -1.387669861E+02  1.703449776E+00 -5.364502848E+02  5.541101752E+02  0.000000000E+00  0.00000E+00  9.000E+00
#rwgt            1           1   3.4740451894950980E-002           5      240577           0
</event>
<event>
      5   9999  3.19816E-02  1.80288E+02 -1.00000E+00  1.13313E-01
      21    -1     0     0   502   501  0.000000000E+00  0.000000000E+00  2.545887780E+03  2.545887780E+03  0.000000000E+00  0.00000E+00  9.000E+00
      21    -1     0     0   501   511  0.000000000E+00  0.000000000E+00 -7.367929304E+01  7.367929304E+01  0.000000000E+00  0.00000E+00  9.000E+00
      25     1     1     2     0     0 -2.041320601E+02  1.339861796E+02  4.587863138E+02  5.345391248E+02  1.250000000E+02  0.00000E+00  9.000E+00
      25     1     1     2     0     0  1.278267876E+02 -2.973304752E+02  1.536082562E+03  1.574776091E+03  1.250000000E+02  0.00000E+00  9.000E+00
      21     1     1     2   502   511  7.630527250E+01  1.633442955E+02  4.773396116E+02  5.102518577E+02  9.344061824E-06  0.00000E+00  9.000E+00
#rwgt            1           1   2.8101090906058425E-002           5      240665           0
</event>
<event>
      5   9999  3.19816E-02  8.91549E+01 -1.00000E+00  1.26113E-01
      21    -1     0     0   502   501  0.000000000E+00  0.000000000E+00  1.092162872E+03  1.092162872E+03  0.000000000E+00  0.00000E+00  9.000E+00
      21    -1     0     0   512   502  0.000000000E+00  0.000000000E+00 -3.046738862E+02  3.046738862E+02  0.000000000E+00  0.00000E+00  9.000E+00
      25     1     1     2     0     0  1.985321244E+02 -1.855801292E+02  5.950443385E+02  6.660013165E+02  1.250000000E+02  0.00000E+00  9.000E+00
      25     1     1     2     0     0 -1.970716766E+02  9.643723920E+01  4.179712017E+02  4.883260307E+02  1.250000000E+02  0.00000E+00  9.000E+00
      21     1     1     2   512   501 -1.460447808E+00  8.914289000E+01 -2.255265543E+02  2.425094111E+02  3.814697266E-06  0.00000E+00  9.000E+00
#rwgt            1           1   2.5298480459340598E-002           5      240739           0
</event>
<event>
      5   9999  3.19816E-02  5.41367E+01 -1.00000E+00  1.37134E-01
      21    -1     0     0   502   501  0.000000000E+00  0.000000000E+00  4.234746989E+02  4.234746989E+02  0.000000000E+00  0.00000E+00  9.000E+00
      21    -1     0     0   501   511  0.000000000E+00  0.000000000E+00 -5.976345521E+02  5.976345521E+02  0.000000000E+00  0.00000E+00  9.000E+00
      25     1     1     2     0     0 -1.766140157E+02  2.038902776E+02  3.104398196E+02  4.298390832E+02  1.250000000E+02  0.00000E+00  9.000E+00
      25     1     1     2     0     0  1.905791040E+02 -1.515858137E+02 -3.376285126E+02  4.346454490E+02  1.250000000E+02  0.00000E+00  9.000E+00
      21     1     1     2   502   511 -1.396508827E+01 -5.230446388E+01 -1.469711603E+02  1.566247189E+02  3.303624740E-06  0.00000E+00  9.000E+00
#rwgt            1           1   2.9025795209490658E-002           5      240805           0
</event>
<event>
      5   9999  3.19816E-02  2.03597E+01 -1.00000E+00  1.65733E-01
      21    -1     0     0   512   501  0.000000000E+00  0.000000000E+00  1.865890116E+03  1.865890116E+03  0.000000000E+00  0.00000E+00  9.000E+00
      21    -1     0     0   501   502  0.000000000E+00  0.000000000E+00 -1.211200713E+03  1.211200713E+03  0.000000000E+00  0.00000E+00  9.000E+00
      25     1     1     2     0     0 -4.837582665E+02 -1.204119766E+03 -3.800221012E+02  1.357927932E+03  1.250000000E+02  0.00000E+00  9.000E+00
      25     1     1     2     0     0  4.995013427E+02  1.217029972E+03  9.385083334E+02  1.620828935E+03  1.250000000E+02  0.00000E+00  9.000E+00
      21     1     1     2   512   502 -1.574307612E+01 -1.291020678E+01  9.620317076E+01  9.833396132E+01  1.907348633E-06  0.00000E+00  9.000E+00
#rwgt            1           1   4.1991770063030107E-002           5      240958           0
</event>
<event>
      5   9999  3.19816E-02  1.69086E+01 -1.00000E+00  1.72620E-01
      21    -1     0     0   511   501  0.000000000E+00  0.000000000E+00  2.926783128E+03  2.926783128E+03  0.000000000E+00  0.00000E+00  9.000E+00
      21    -1     0     0   501   502  0.000000000E+00  0.000000000E+00 -2.596783337E+01  2.596783337E+01  0.000000000E+00  0.00000E+00  9.000E+00
      25     1     1     2     0     0 -1.292979268E+01  1.334492833E+02  6.639286647E+02  6.887685842E+02  1.250000000E+02  0.00000E+00  9.000E+00
      25     1     1     2     0     0  2.851462220E+01 -1.400077149E+02  6.537744320E+02  6.807798850E+02  1.250000000E+02  0.00000E+00  9.000E+00
      21     1     1     2   511   502 -1.558482952E+01  6.558431580E+00  1.583112198E+03  1.583202492E+03  0.000000000E+00  0.00000E+00  9.000E+00
#rwgt            1           1   4.0836866464814971E-002           5      241282           0
</event>
<event>
      5   9999  3.19816E-02  3.18067E+01 -1.00000E+00  1.51297E-01
      21    -1     0     0   502   501  0.000000000E+00  0.000000000E+00  6.022328759E+02  6.022328759E+02  0.000000000E+00  0.00000E+00  9.000E+00
      21    -1     0     0   512   502  0.000000000E+00  0.000000000E+00 -3.278793495E+02  3.278793495E+02  0.000000000E+00  0.00000E+00  9.000E+00
      25     1     1     2     0     0  1.876604252E+02  9.333359818E+01  3.812112810E+01  2.469935549E+02  1.250000000E+02  0.00000E+00  9.000E+00
      25     1     1     2     0     0 -2.128551138E+02 -7.391983773E+01  4.221077480E+02  4.945415986E+02  1.250000000E+02  0.00000E+00  9.000E+00
      21     1     1     2   512   501  2.519468857E+01 -1.941376045E+01 -1.858753496E+02  1.885770719E+02  3.814697266E-06  0.00000E+00  9.000E+00
#rwgt            1           1   2.7202708959137085E-002           5      241415           0
</event>
<event>
      5   9999  3.19816E-02  4.63339E+01 -1.00000E+00  1.40989E-01
      21    -1     0     0   502   501  0.000000000E+00  0.000000000E+00  5.924341373E+02  5.924341373E+02  0.000000000E+00  0.00000E+00  9.000E+00
      21    -1     0     0   511   502  0.000000000E+00  0.000000000E+00 -8.383769557E+01  8.383769557E+01  0.000000000E+00  0.00000E+00  9.000E+00
      25     1     1     2     0     0  4.193928612E+00 -1.200023176E+02  3.617527474E+02  4.011336380E+02  1.250000000E+02  0.00000E+00  9.000E+00
      25     1     1     2     0     0 -3.041673367E+01  8.180292875E+01  1.656562105E+02  2.251307996E+02  1.250000000E+02  0.00000E+00  9.000E+00
      21     1     1     2   511   501  2.622280505E+01  3.819938889E+01 -1.881251620E+01  5.000739527E+01  1.327458468E-06  0.00000E+00  9.000E+00
#rwgt            1           1   2.8930367280755206E-002           5      241545           0
</event>
<event>
      5   9999  3.19816E-02  6.15309E+01 -1.00000E+00  1.34121E-01
      21    -1     0     0   502   501  0.000000000E+00  0.000000000E+00  1.787520575E+01  1.787520575E+01  0.000000000E+00  0.00000E+00  9.000E+00
       2    -1     0     0   501     0  0.000000000E+00  0.000000000E+00 -2.634241674E+03  2.634241674E+03  0.000000000E+00  0.00000E+00  9.000E+00
      25     1     1     2     0     0 -8.705110264E+01 -3.854957258E+00 -1.918515504E+03  1.924556960E+03  1.250000000E+02  0.00000E+00  9.000E+00
      25     1     1     2     0     0  4.234523332E+01 -3.842311478E+01 -3.872309534E+02  4.109042051E+02  1.250000000E+02  0.00000E+00  9.000E+00
       2     1     1     2   502     0  4.470586932E+01  4.227807204E+01 -3.106200114E+02  3.166557146E+02  5.394796609E-06  0.00000E+00  9.000E+00
#rwgt            1           1   6.5418723144762228E-002           5      241627           0
</event>
<event>
      5   9999  3.19816E-02  7.39551E+01 -1.00000E+00  1.30023E-01
      21    -1     0     0   511   501  0.000000000E+00  0.000000000E+00  5.522051485E+02  5.522051485E+02  0.000000000E+00  0.00000E+00  9.000E+00
      21    -1     0     0   501   502  0.000000000E+00  0.000000000E+00 -7.475571817E+02  7.475571817E+02  0.000000000E+00  0.00000E+00  9.000E+00
      25     1     1     2     0     0 -9.442824865E+01  2.225571482E+02 -6.399502349E+02  6.954205070E+02  1.250000000E+02  0.00000E+00  9.000E+00
      25     1     1     2     0     0  1.556308807E+02 -1.810409847E+02  1.669388702E+02  3.170022012E+02  1.250000000E+02  0.00000E+00  9.000E+00
      21     1     1     2   511   502 -6.120263204E+01 -4.151616344E+01  2.776593315E+02  2.873396220E+02  3.814697266E-06  0.00000E+00  9.000E+00
#rwgt            1           1   2.4802402631545119E-002           5      241709           0
</event>
<event>
      5   9999  3.19816E-02  1.52267E+01 -1.00000E+00  1.76772E-01
      21    -1     0     0   512   501  0.000000000E+00  0.000000000E+00  5.155724580E+02  5.155724580E+02  0.000000000E+00  0.00000E+00  9.000E+00
      21    -1     0     0   501   502  0.000000000E+00  0.000000000E+00 -3.716028392E+02  3.716028392E+02  0.000000000E+00  0.00000E+00  9.000E+00
      25     1     1     2     0     0  1.528139701E+02  3.111289818E+02  2.229815194E+02  4.306960771E+02  1.250000000E+02  0.00000E+00  9.000E+00
      25     1     1     2     0     0 -1.653711752E+02 -3.025167518E+02 -1.408111395E+02  3.928317549E+02  1.250000000E+02  0.00000E+00  9.000E+00
      21     1     1     2   512   502  1.255720510E+01 -8.612230053E+00  6.179923880E+01  6.364746517E+01  0.000000000E+00  0.00000E+00  9.000E+00
#rwgt            1           1   2.9616149468201073E-002           5      241809           0
</event>
<event>
      5   9999  3.19816E-02  2.77349E+01 -1.00000E+00  1.55446E-01
      21    -1     0     0   502   501  0.000000000E+00  0.000000000E+00  3.068458766E+03  3.068458766E+03  0.000000000E+00  0.00000E+00  9.000E+00
      21    -1     0     0   511   502  0.000000000E+00  0.000000000E+00 -4.108393508E+01  4.108393508E+01  0.000000000E+00  0.00000E+00  9.000E+00
      25     1     1     2     0     0  1.235618921E+02 -1.765953041E+02  4.954502068E+02  5.545713209E+02  1.250000000E+02  0.00000E+00  9.000E+00
      25     1     1     2     0     0 -1.509833340E+02  1.724370645E+02  2.495854248E+03  2.509470847E+03  1.250000000E+02  0.00000E+00  9.000E+00
      21     1     1     2   511   501  2.742144187E+01  4.158239585E+00  3.607037702E+01  4.550053328E+01  6.743495762E-07  0.00000E+00  9.000E+00
#rwgt            1           1   3.9606280212499352E-002           5      242036           0
</event>
<event>
      5   9999  3.19816E-02  1.90282E+02 -1.00000E+00  1.12441E-01
      21    -1     0     0   512   501  0.000000000E+00  0.000000000E+00  9.433898035E+02  9.433898035E+02  0.000000000E+00  0.00000E+00  9.000E+00
      21    -1     0     0   501   502  0.000000000E+00  0.000000000E+00 -4.394338104E+02  4.394338104E+02  0.000000000E+00  0.00000E+00  9.000E+00
      25     1     1     2     0     0 -2.390883099E+02 -3.134103908E+02  3.659478922E+02  5.522066215E+02  1.250000000E+02  0.00000E+00  9.000E+00
      25     1     1     2     0     0  3.943529790E+02  2.034095956E+02 -1.505627306E+02  4.849575976E+02  1.250000000E+02  0.00000E+00  9.000E+00
      21     1     1     2   512   502 -1.552646690E+02  1.100007952E+02  2.885708315E+02  3.456593948E+02  5.394796609E-06  0.00000E+00  9.000E+00
#rwgt            1           1   2.9031405586653382E-002           5      242196           0
</event>
<event>
      5   9999  3.19816E-02  1.23564E+01 -1.00000E+00  1.85701E-01
      21    -1     0     0   502   511  0.000000000E+00  0.000000000E+00  1.383653340E+02  1.383653340E+02  0.000000000E+00  0.00000E+00  9.000E+00
      21    -1     0     0   501   502  0.000000000E+00  0.000000000E+00 -1.294499562E+03  1.294499562E+03  0.000000000E+00  0.00000E+00  9.000E+00
      25     1     1     2     0     0  3.615095372E+01 -1.915192419E+02 -9.936657564E+02  1.020285816E+03  1.250000000E+02  0.00000E+00  9.000E+00
      25     1     1     2     0     0 -2.424271273E+01  1.948169359E+02 -2.398559449E+02  3.342113432E+02  1.250000000E+02  0.00000E+00  9.000E+00
      21     1     1     2   501   511 -1.190824099E+01 -3.297693967E+00  7.738747367E+01  7.836773615E+01  2.697398305E-06  0.00000E+00  9.000E+00
#rwgt            1           1   2.6355650919122307E-002           5      242308           0
</event>
<event>
      5   9999  3.19816E-02  1.25020E+02 -1.00000E+00  1.19618E-01
       1    -1     0     0   502     0  0.000000000E+00  0.000000000E+00  2.179010355E+03  2.179010355E+03  0.000000000E+00  0.00000E+00  9.000E+00
      21    -1     0     0   501   502  0.000000000E+00  0.000000000E+00 -9.584253688E+01  9.584253688E+01  0.000000000E+00  0.00000E+00  9.000E+00
      25     1     1     2     0     0 -3.726195009E+02 -1.386764195E+02  8.224207249E+02  9.219963615E+02  1.250000000E+02  0.00000E+00  9.000E+00
      25     1     1     2     0     0  3.406609808E+02  1.781012993E+01  8.775988442E+02  9.498272663E+02  1.250000000E+02  0.00000E+00  9.000E+00
       1     1     1     2   501     0  3.195852015E+01  1.208662896E+02  3.831482494E+02  4.030292644E+02  5.394796609E-06  0.00000E+00  9.000E+00
#rwgt            1           1   2.6437160537989442E-002           5      242503           0
</event>
<event>
      5   9999  3.19816E-02  2.30336E+02 -1.00000E+00  1.09460E-01
      21    -1     0     0   502   511  0.000000000E+00  0.000000000E+00  3.496178664E+02  3.496178664E+02  0.000000000E+00  0.00000E+00  9.000E+00
      21    -1     0     0   501   502  0.000000000E+00  0.000000000E+00 -1.084277325E+03  1.084277325E+03  0.000000000E+00  0.00000E+00  9.000E+00
      25     1     1     2     0     0 -3.398946690E+02  1.828248365E+02 -6.778876063E+02  7.900062744E+02  1.250000000E+02  0.00000E+00  9.000E+00
      25     1     1     2     0     0  1.459526116E+02 -5.856301155E+01 -2.655756880E+02  3.329973532E+02  1.250000000E+02  0.00000E+00  9.000E+00
      21     1     1     2   501   511  1.939420574E+02 -1.242618249E+02  2.088038356E+02  3.108915639E+02  5.394796609E-06  0.00000E+00  9.000E+00
#rwgt            1           1   2.8697948107656329E-002           5      242549           0
</event>
<event>
      5   9999  3.19816E-02  3.22139E+02 -1.00000E+00  1.04597E-01
      21    -1     0     0   502   501  0.000000000E+00  0.000000000E+00  7.698175685E+02  7.698175685E+02  0.000000000E+00  0.00000E+00  9.000E+00
       2    -1     0     0   501     0  0.000000000E+00  0.000000000E+00 -2.129742781E+03  2.129742781E+03  0.000000000E+00  0.00000E+00  9.000E+00
      25     1     1     2     0     0 -7.051858329E+02 -2.062508171E+02  4.218604215E+02  8.563980814E+02  1.250000000E+02  0.00000E+00  9.000E+00
      25     1     1     2     0     0  3.845560971E+02  1.751088939E+02 -3.156131140E+02  5.420176697E+02  1.250000000E+02  0.00000E+00  9.000E+00
       2     1     1     2   502     0  3.206297359E+02  3.114192322E+01 -1.466172520E+03  1.501144598E+03  2.157918644E-05  0.00000E+00  9.000E+00
#rwgt            1           1   2.7016462950999263E-002           5      242608           0
</event>
<event>
      5   9999  3.19816E-02  8.43043E+01 -1.00000E+00  1.27257E-01
      21    -1     0     0   502   501  0.000000000E+00  0.000000000E+00  2.516916699E+03  2.516916699E+03  0.000000000E+00  0.00000E+00  9.000E+00
      21    -1     0     0   501   511  0.000000000E+00  0.000000000E+00 -7.488516917E+02  7.488516917E+02  0.000000000E+00  0.00000E+00  9.000E+00
      25     1     1     2     0     0  5.954137517E+02 -9.101289620E+02  1.721106747E+03  2.039775894E+03  1.250000000E+02  0.00000E+00  9.000E+00
      25     1     1     2     0     0 -6.367716049E+02  8.366664078E+02  1.744970319E+02  1.073109020E+03  1.250000000E+02  0.00000E+00  9.000E+00
      21     1     1     2   502   511  4.135785322E+01  7.346255411E+01 -1.275387722E+02  1.528834762E+02  2.336015456E-06  0.00000E+00  9.000E+00
#rwgt            1           1   6.2436147127824852E-002           5      242696           0
</event>
<event>
      5   9999  3.19816E-02  6.73759E+01 -1.00000E+00  1.32067E-01
      21    -1     0     0   502   512  0.000000000E+00  0.000000000E+00  5.409753482E+02  5.409753482E+02  0.000000000E+00  0.00000E+00  9.000E+00
      21    -1     0     0   501   502  0.000000000E+00  0.000000000E+00 -1.338047946E+03  1.338047946E+03  0.000000000E+00  0.00000E+00  9.000E+00
      25     1     1     2     0     0  2.024947457E+02  6.667633152E+00 -1.286015964E+03  1.307864916E+03  1.250000000E+02  0.00000E+00  9.000E+00
      25     1     1     2     0     0 -1.574545829E+02  4.344125761E+01  2.544813074E+02  3.272076166E+02  1.250000000E+02  0.00000E+00  9.000E+00
      21     1     1     2   501   512 -4.504016284E+01 -5.010889076E+01  2.344620586E+02  2.439507617E+02  2.697398305E-06  0.00000E+00  9.000E+00
#rwgt            1           1   3.0798798570802539E-002           5      242830           0
</event>
<event>
      5   9999  3.19816E-02  4.38947E+01 -1.00000E+00  1.42381E-01
      21    -1     0     0   502   501  0.000000000E+00  0.000000000E+00  8.433065382E+02  8.433065382E+02  0.000000000E+00  0.00000E+00  9.000E+00
      21    -1     0     0   501   511  0.000000000E+00  0.000000000E+00 -3.561231723E+02  3.561231723E+02  0.000000000E+00  0.00000E+00  9.000E+00
      25     1     1     2     0     0  7.636428301E+01  3.048093447E+02 -1.310431182E+02  3.626810432E+02  1.250000000E+02  0.00000E+00  9.000E+00
      25     1     1     2     0     0 -1.104853243E+02 -3.324226896E+02  6.715579574E+02  7.676763261E+02  1.250000000E+02  0.00000E+00  9.000E+00
      21     1     1     2   502   511  3.412104133E+01  2.761334496E+01 -5.333147329E+01  6.907234124E+01  6.743495762E-07  0.00000E+00  9.000E+00
#rwgt            1           1   2.9318557319437423E-002           5      243007           0
</event>
<event>
      5   9999  3.19816E-02  6.55717E+02 -1.00000E+00  9.56182E-02
      21    -1     0     0   502   512  0.000000000E+00  0.000000000E+00  7.804126878E+02  7.804126878E+02  0.000000000E+00  0.00000E+00  9.000E+00
      21    -1     0     0   501   502  0.000000000E+00  0.000000000E+00 -6.977002019E+02  6.977002019E+02  0.000000000E+00  0.00000E+00  9.000E+00
      25     1     1     2     0     0  8.546449605E+01  6.854659536E+01 -1.163742669E+01  1.666230642E+02  1.250000000E+02  0.00000E+00  9.000E+00
      25     1     1     2     0     0 -3.635227956E+02  5.252950252E+02  1.617942638E+01  6.511301408E+02  1.250000000E+02  0.00000E+00  9.000E+00
      21     1     1     2   501   512  2.780582996E+02 -5.938416205E+02  7.817048617E+01  6.603596847E+02  8.529922400E-06  0.00000E+00  9.000E+00
#rwgt            2          11   2.7599485139059459E-003           5      243104           0
</event>
<event>
      5   9999  3.19816E-02  1.07959E+02 -1.00000E+00  1.22350E-01
      -2    -1     0     0     0   501  0.000000000E+00  0.000000000E+00  3.795404978E+02  3.795404978E+02  0.000000000E+00  0.00000E+00  9.000E+00
      21    -1     0     0   501   502  0.000000000E+00  0.000000000E+00 -2.312447425E+03  2.312447425E+03  0.000000000E+00  0.00000E+00  9.000E+00
      25     1     1     2     0     0  7.539058573E+02  3.323739362E+02 -1.070736675E+03  1.356815574E+03  1.250000000E+02  0.00000E+00  9.000E+00
      25     1     1     2     0     0 -7.145844440E+02 -2.318304423E+02 -9.342730253E+02  1.205349479E+03  1.250000000E+02  0.00000E+00  9.000E+00
      -2     1     1     2     0   502 -3.932141334E+01 -1.005434939E+02  7.210277252E+01  1.298228698E+02  2.132480600E-06  0.00000E+00  9.000E+00
#rwgt            1           1   3.0746564533788250E-002           5      243124           0
</event>
<event>
      5   9999  3.19816E-02  1.26272E+02 -1.00000E+00  1.19437E-01
      21    -1     0     0   502   501  0.000000000E+00  0.000000000E+00  1.542309397E+02  1.542309397E+02  0.000000000E+00  0.00000E+00  9.000E+00
      21    -1     0     0   511   502  0.000000000E+00  0.000000000E+00 -1.549840550E+03  1.549840550E+03  0.000000000E+00  0.00000E+00  9.000E+00
      25     1     1     2     0     0  3.435735871E+02 -5.255927759E+01 -2.016198467E+02  4.208097551E+02  1.250000000E+02  0.00000E+00  9.000E+00
      25     1     1     2     0     0 -2.263660591E+02  5.579287487E+00 -3.808393341E+02  4.603654196E+02  1.250000000E+02  0.00000E+00  9.000E+00
      21     1     1     2   511   501 -1.172075280E+02  4.697999010E+01 -8.131504301E+02  8.228963155E+02  0.000000000E+00  0.00000E+00  9.000E+00
#rwgt            1           1   2.7265928897021705E-002           5      243214           0
</event>
<event>
      5   9999  3.19816E-02  8.06937E+01 -1.00000E+00  1.28168E-01
      21    -1     0     0   502   501  0.000000000E+00  0.000000000E+00  2.521054728E+03  2.521054728E+03  0.000000000E+00  0.00000E+00  9.000E+00
       2    -1     0     0   501     0  0.000000000E+00  0.000000000E+00 -1.044614817E+03  1.044614817E+03  0.000000000E+00  0.00000E+00  9.000E+00
      25     1     1     2     0     0 -4.295175048E+02 -5.195052388E+02  2.650497352E+02  7.350151987E+02  1.250000000E+02  0.00000E+00  9.000E+00
      25     1     1     2     0     0  4.653487672E+02  5.918073135E+02  1.946692210E+03  2.090937812E+03  1.250000000E+02  0.00000E+00  9.000E+00
       2     1     1     2   502     0 -3.583126239E+01 -7.230207464E+01 -7.353020341E+02  7.397165340E+02  1.525878906E-05  0.00000E+00  9.000E+00
#rwgt            2          13   4.6405502227961203E-003           5      243315           0
</event>
<event>
      5   9999  3.19816E-02  2.66836E+02 -1.00000E+00  1.07272E-01
      21    -1     0     0   502   501  0.000000000E+00  0.000000000E+00  1.092990101E+03  1.092990101E+03  0.000000000E+00  0.00000E+00  9.000E+00
       1    -1     0     0   501     0  0.000000000E+00  0.000000000E+00 -9.508653208E+02  9.508653208E+02  0.000000000E+00  0.00000E+00  9.000E+00
      25     1     1     2     0     0 -7.901049342E+01 -3.808882666E+00  9.974463987E+02  1.008355832E+03  1.250000000E+02  0.00000E+00  9.000E+00
      25     1     1     2     0     0  1.222269786E+02 -2.595042260E+02 -4.012773944E+02  5.088520658E+02  1.250000000E+02  0.00000E+00  9.000E+00
       1     1     1     2   502     0 -4.321648513E+01  2.633131086E+02 -4.540442238E+02  5.266475244E+02  5.394796609E-06  0.00000E+00  9.000E+00
#rwgt            2          12   5.2102438139470827E-004           5      243334           0
</event>
<event>
      5   9999  3.19816E-02  7.62202E+00 -1.00000E+00  2.10457E-01
      21    -1     0     0   511   501  0.000000000E+00  0.000000000E+00  1.078241053E+03  1.078241053E+03  0.000000000E+00  0.00000E+00  9.000E+00
      21    -1     0     0   501   502  0.000000000E+00  0.000000000E+00 -1.254298361E+02  1.254298361E+02  0.000000000E+00  0.00000E+00  9.000E+00
      25     1     1     2     0     0  4.211353373E+01 -3.059576781E+02  2.580671981E+02  4.214348458E+02  1.250000000E+02  0.00000E+00  9.000E+00
      25     1     1     2     0     0 -4.731281135E+01  3.115310639E+02  6.159269497E+02  7.030512878E+02  1.250000000E+02  0.00000E+00  9.000E+00
      21     1     1     2   511   502  5.199277620E+00 -5.573385824E+00  7.881706940E+01  7.918475577E+01  9.536743164E-07  0.00000E+00  9.000E+00
#rwgt            1           1   2.6724785005808837E-002           5      243368           0
</event>
<event>
      5   9999  3.19816E-02  5.24046E+01 -1.00000E+00  1.37922E-01
      21    -1     0     0   502   512  0.000000000E+00  0.000000000E+00  2.355636787E+02  2.355636787E+02  0.000000000E+00  0.00000E+00  9.000E+00
      21    -1     0     0   501   502  0.000000000E+00  0.000000000E+00 -4.661855556E+02  4.661855556E+02  0.000000000E+00  0.00000E+00  9.000E+00
      25     1     1     2     0     0  2.382757349E+01 -2.368477769E+02 -3.627776295E+01  2.713037021E+02  1.250000000E+02  0.00000E+00  9.000E+00
      25     1     1     2     0     0 -1.828400386E+01  2.889583536E+02 -2.060973317E+02  3.767390941E+02  1.250000000E+02  0.00000E+00  9.000E+00
      21     1     1     2   501   512 -5.543569630E+00 -5.211057671E+01  1.175321770E+01  5.370643812E+01  8.760057960E-07  0.00000E+00  9.000E+00
#rwgt            1           1   2.6658330131286805E-002           5      243642           0
</event>
<event>
      5   9999  3.19816E-02  2.06988E+02 -1.00000E+00  1.11108E-01
      21    -1     0     0   502   501  0.000000000E+00  0.000000000E+00  1.970682784E+02  1.970682784E+02  0.000000000E+00  0.00000E+00  9.000E+00
      21    -1     0     0   511   502  0.000000000E+00  0.000000000E+00 -1.597873901E+03  1.597873901E+03  0.000000000E+00  0.00000E+00  9.000E+00
      25     1     1     2     0     0  1.079915546E+02  1.557764766E+01 -1.585793788E+02  2.295152683E+02  1.250000000E+02  0.00000E+00  9.000E+00
      25     1     1     2     0     0 -2.254664082E+02 -1.860002795E+02 -1.222229625E+01  3.181282598E+02  1.250000000E+02  0.00000E+00  9.000E+00
      21     1     1     2   511   501  1.174748536E+02  1.704226318E+02 -1.230003947E+03  1.247298651E+03  0.000000000E+00  0.00000E+00  9.000E+00
#rwgt            1           1   2.7227074288156027E-002           5      243738           0
</event>
<event>
      5   9999  3.19816E-02  1.43777E+02 -1.00000E+00  1.17128E-01
       2    -1     0     0   502     0  0.000000000E+00  0.000000000E+00  2.370076558E+03  2.370076558E+03  0.000000000E+00  0.00000E+00  9.000E+00
      21    -1     0     0   501   502  0.000000000E+00  0.000000000E+00 -5.762669531E+01  5.762669531E+01  0.000000000E+00  0.00000E+00  9.000E+00
      25     1     1     2     0     0  1.929275704E+02 -4.107394991E+01  2.415594370E+02  3.359822591E+02  1.250000000E+02  0.00000E+00  9.000E+00
      25     1     1     2     0     0 -5.140284770E+01  6.642400026E+01  1.085395907E+03  1.095793628E+03  1.250000000E+02  0.00000E+00  9.000E+00
       2     1     1     2   501     0 -1.415247227E+02 -2.535005035E+01  9.854945191E+02  9.959273665E+02  1.078959322E-05  0.00000E+00  9.000E+00
#rwgt            1           1   2.7011557498376710E-002           5      243826           0
</event>
<event>
      5   9999  3.19816E-02  3.62882E+02 -1.00000E+00  1.02975E-01
      21    -1     0     0   502   501  0.000000000E+00  0.000000000E+00  7.149542742E+02  7.149542742E+02  0.000000000E+00  0.00000E+00  9.000E+00
       1    -1     0     0   501     0  0.000000000E+00  0.000000000E+00 -1.145394469E+03  1.145394469E+03  0.000000000E+00  0.00000E+00  9.000E+00
      25     1     1     2     0     0 -4.702169912E+02  2.130758135E+02 -3.894518648E+02  6.586372872E+02  1.250000000E+02  0.00000E+00  9.000E+00
      25     1     1     2     0     0  3.985204546E+02  1.426532439E+02 -4.666885533E+02  6.423330184E+02  1.250000000E+02  0.00000E+00  9.000E+00
       1     1     1     2   502     0  7.169653666E+01 -3.557290574E+02  4.257002236E+02  5.593784372E+02  9.344061824E-06  0.00000E+00  9.000E+00
#rwgt            2          12   5.9551314868592740E-005           5      243964           0
</event>
<event>
      5   9999  3.19816E-02  2.80672E+01 -1.00000E+00  1.55076E-01
      21    -1     0     0   502   511  0.000000000E+00  0.000000000E+00  3.230009401E+02  3.230009401E+02  0.000000000E+00  0.00000E+00  9.000E+00
      21    -1     0     0   501   502  0.000000000E+00  0.000000000E+00 -5.960884200E+02  5.960884200E+02  0.000000000E+00  0.00000E+00  9.000E+00
      25     1     1     2     0     0 -2.606086586E+02  2.522241316E+02 -3.138273071E+02  4.956273441E+02  1.250000000E+02  0.00000E+00  9.000E+00
      25     1     1     2     0     0  2.807421714E+02 -2.326687994E+02  1.558245014E+01  3.857703329E+02  1.250000000E+02  0.00000E+00  9.000E+00
      21     1     1     2   501   511 -2.013351277E+01 -1.955533220E+01  2.515737701E+01  3.769168306E+01  6.743495762E-07  0.00000E+00  9.000E+00
#rwgt            1           1   2.5467487567505363E-002           5      243998           0
</event>
<event>
      5   9999  3.19816E-02  5.49388E+01 -1.00000E+00  1.36781E-01
      21    -1     0     0   512   501  0.000000000E+00  0.000000000E+00  6.310002648E+02  6.310002648E+02  0.000000000E+00  0.00000E+00  9.000E+00
      21    -1     0     0   501   502  0.000000000E+00  0.000000000E+00 -3.911810168E+02  3.911810168E+02  0.000000000E+00  0.00000E+00  9.000E+00
      25     1     1     2     0     0  3.598305698E+02 -7.221586169E+01 -1.784713138E+02  4.268139870E+02  1.250000000E+02  0.00000E+00  9.000E+00
      25     1     1     2     0     0 -3.193344011E+02  3.508993459E+01  2.720187294E+02  4.391183808E+02  1.250000000E+02  0.00000E+00  9.000E+00
      21     1     1     2   512   502 -4.049616870E+01  3.712592711E+01  1.462718323E+02  1.562489138E+02  2.697398305E-06  0.00000E+00  9.000E+00
#rwgt            1           1   2.5657861826528364E-002           5      244158           0
</event>
<event>
      5   9999  3.19816E-02  1.17278E+02 -1.00000E+00  1.20793E-01
      21    -1     0     0   502   501  0.000000000E+00  0.000000000E+00  1.687807329E+02  1.687807329E+02  0.000000000E+00  0.00000E+00  9.000E+00
      21    -1     0     0   511   502  0.000000000E+00  0.000000000E+00 -1.208331694E+03  1.208331694E+03  0.000000000E+00  0.00000E+00  9.000E+00
      25     1     1     2     0     0 -2.882748814E+02  2.054813679E+02 -6.245254227E+02  7.286851195E+02  1.250000000E+02  0.00000E+00  9.000E+00
      25     1     1     2     0     0  1.795607534E+02 -1.614885628E+02 -6.543805558E+01  2.796922580E+02  1.250000000E+02  0.00000E+00  9.000E+00
      21     1     1     2   511   501  1.087141280E+02 -4.399280502E+01 -3.495874828E+02  3.687350494E+02  5.394796609E-06  0.00000E+00  9.000E+00
#rwgt            1           1   3.2691146764266654E-002           5      244289           0
</event>
<event>
      5   9999  3.19816E-02  3.78863E+01 -1.00000E+00  1.46318E-01
      21    -1     0     0   502   501  0.000000000E+00  0.000000000E+00  2.678310298E+02  2.678310298E+02  0.000000000E+00  0.00000E+00  9.000E+00
      21    -1     0     0   512   502  0.000000000E+00  0.000000000E+00 -7.510641923E+02  7.510641923E+02  0.000000000E+00  0.00000E+00  9.000E+00
      25     1     1     2     0     0  3.574519928E+01  3.359030223E+02  3.287320619E+01  3.616824676E+02  1.250000000E+02  0.00000E+00  9.000E+00
      25     1     1     2     0     0 -2.697337592E+01 -2.990461462E+02 -3.157233178E+02  4.532795759E+02  1.250000000E+02  0.00000E+00  9.000E+00
      21     1     1     2   512   501 -8.771823360E+00 -3.685687606E+01 -2.003830509E+02  2.039331785E+02  0.000000000E+00  0.00000E+00  9.000E+00
#rwgt            1           1   2.5340414214091715E-002           5      244343           0
</event>
<event>
      5   9999  3.19816E-02  5.54935E+02 -1.00000E+00  9.75827E-02
       2    -1     0     0   502     0  0.000000000E+00  0.000000000E+00  1.464880981E+03  1.464880981E+03  0.000000000E+00  0.00000E+00  9.000E+00
      21    -1     0     0   501   502  0.000000000E+00  0.000000000E+00 -4.064676994E+02  4.064676994E+02  0.000000000E+00  0.00000E+00  9.000E+00
      25     1     1     2     0     0  1.960882796E+02 -8.928588295E+01  1.323276921E+02  2.820606324E+02  1.250000000E+02  0.00000E+00  9.000E+00
      25     1     1     2     0     0 -5.449033829E+02 -3.423165475E+02  2.205062733E+02  6.916273071E+02  1.250000000E+02  0.00000E+00  9.000E+00
       2     1     1     2   501     0  3.488151033E+02  4.316024304E+02  7.055793160E+02  8.976607407E+02  1.321449896E-05  0.00000E+00  9.000E+00
#rwgt            2          18   1.0836679641464248E-003           5      244501           0
</event>
<event>
      5   9999  3.19816E-02  3.74176E+01 -1.00000E+00  1.46661E-01
      21    -1     0     0   502   501  0.000000000E+00  0.000000000E+00  2.485461755E+02  2.485461755E+02  0.000000000E+00  0.00000E+00  9.000E+00
      21    -1     0     0   501   511  0.000000000E+00  0.000000000E+00 -6.692887856E+02  6.692887856E+02  0.000000000E+00  0.00000E+00  9.000E+00
      25     1     1     2     0     0 -1.451109357E+02  3.973527496E+01  1.742532778E+02  2.619642734E+02  1.250000000E+02  0.00000E+00  9.000E+00
      25     1     1     2     0     0  1.823520330E+02 -4.336580722E+01 -4.168466815E+02  4.738343730E+02  1.250000000E+02  0.00000E+00  9.000E+00
      21     1     1     2   502   511 -3.724109735E+01  3.630532259E+00 -1.781492065E+02  1.820363147E+02  3.303624740E-06  0.00000E+00  9.000E+00
#rwgt            2          11   1.3863851932478194E-003           5      244565           0
</event>
<event>
      5   9999  3.19816E-02  2.13818E+01 -1.00000E+00  1.64010E-01
      21    -1     0     0   502   501  0.000000000E+00  0.000000000E+00  1.015941493E+03  1.015941493E+03  0.000000000E+00  0.00000E+00  9.000E+00
       2    -1     0     0   501     0  0.000000000E+00  0.000000000E+00 -2.439420796E+03  2.439420796E+03  0.000000000E+00  0.00000E+00  9.000E+00
      25     1     1     2     0     0 -1.710840083E+02 -8.054943015E+02  5.779032399E+02  1.013749457E+03  1.250000000E+02  0.00000E+00  9.000E+00
      25     1     1     2     0     0  1.757411485E+02  7.846258112E+02 -5.322754027E+02  9.723501011E+02  1.250000000E+02  0.00000E+00  9.000E+00
       2     1     1     2   502     0 -4.657140139E+00  2.086849034E+01 -1.469107140E+03  1.469262731E+03  0.000000000E+00  0.00000E+00  9.000E+00
#rwgt            1           1   2.0803119408097974E-002           5      244585           0
</event>
<event>
      5   9999  3.19816E-02  8.63147E+00 -1.00000E+00  2.03448E-01
      21    -1     0     0   502   501  0.000000000E+00  0.000000000E+00  1.803824010E+01  1.803824010E+01  0.000000000E+00  0.00000E+00  9.000E+00
      21    -1     0     0   501   511  0.000000000E+00  0.000000000E+00 -2.093929441E+03  2.093929441E+03  0.000000000E+00  0.00000E+00  9.000E+00
      25     1     1     2     0     0  1.432248130E+00  6.010684458E-01 -1.770126526E+03  1.774535244E+03  1.250000000E+02  0.00000E+00  9.000E+00
      25     1     1     2     0     0 -8.409141501E+00 -5.682914581E+00 -2.370740131E+02  2.682015974E+02  1.250000000E+02  0.00000E+00  9.000E+00
      21     1     1     2   502   511  6.976893370E+00  5.081846136E+00 -6.869066148E+01  6.923083978E+01  1.651812370E-06  0.00000E+00  9.000E+00
#rwgt            1           1   7.7239431683005330E-002           5      244829           0
</event>
<event>
      5   9999  3.19816E-02  3.46530E+02 -1.00000E+00  1.03597E-01
      21    -1     0     0   502   501  0.000000000E+00  0.000000000E+00  2.630020251E+03  2.630020251E+03  0.000000000E+00  0.00000E+00  9.000E+00
      -2    -1     0     0     0   502  0.000000000E+00  0.000000000E+00 -7.283910058E+02  7.283910058E+02  0.000000000E+00  0.00000E+00  9.000E+00
      25     1     1     2     0     0  2.456182783E+02 -8.029425419E+02  2.151724157E+03  2.313133570E+03  1.250000000E+02  0.00000E+00  9.000E+00
      25     1     1     2     0     0 -3.991746742E+02  4.922929196E+02 -5.682549622E+01  6.484958567E+02  1.250000000E+02  0.00000E+00  9.000E+00
      -2     1     1     2     0   501  1.535563959E+02  3.106496224E+02 -1.932694148E+02  3.967818309E+02  2.697398305E-06  0.00000E+00  9.000E+00
#rwgt            1           1   2.8833072791240505E-002           5      245027           0
</event>
<event>
      5   9999  3.19816E-02  1.95173E+02 -1.00000E+00  1.12036E-01
      21    -1     0     0   511   501  0.000000000E+00  0.000000000E+00  1.340532076E+03  1.340532076E+03  0.000000000E+00  0.00000E+00  9.000E+00
      21    -1     0     0   501   502  0.000000000E+00  0.000000000E+00 -1.068816188E+03  1.068816188E+03  0.000000000E+00  0.00000E+00  9.000E+00
      25     1     1     2     0     0  1.136829107E+02 -1.458226045E+02  2.584509047E+02  3.414819268E+02  1.250000000E+02  0.00000E+00  9.000E+00
      25     1     1     2     0     0 -1.274875837E+01 -2.122431898E+01 -1.014126353E+03  1.022100907E+03  1.250000000E+02  0.00000E+00  9.000E+00
      21     1     1     2   511   502 -1.009341523E+02  1.670469235E+02  1.027391337E+03  1.045765431E+03  1.525878906E-05  0.00000E+00  9.000E+00
#rwgt            1           1   3.0341407766484394E-002           5      245074           0
</event>
<event>
      5   9999  3.19816E-02  5.19701E+01 -1.00000E+00  1.38125E-01
      21    -1     0     0   502   501  0.000000000E+00  0.000000000E+00  3.011823288E+02  3.011823288E+02  0.000000000E+00  0.00000E+00  9.000E+00
      21    -1     0     0   512   502  0.000000000E+00  0.000000000E+00 -1.378263587E+02  1.378263587E+02  0.000000000E+00  0.00000E+00  9.000E+00
      25     1     1     2     0     0  1.731967705E+01  7.879970071E+01  4.293917061E+01  1.548487534E+02  1.250000000E+02  0.00000E+00  9.000E+00
      25     1     1     2     0     0 -1.623370516E+00 -1.283427608E+02  1.412728349E+02  2.281611568E+02  1.250000000E+02  0.00000E+00  9.000E+00
      21     1     1     2   512   501 -1.569630654E+01  4.954306013E+01 -2.085603545E+01  5.599877732E+01  1.283923342E-06  0.00000E+00  9.000E+00
#rwgt            1           1   2.5641227112414081E-002           5      245130           0
</event>
<event>
      5   9999  3.19816E-02  4.17237E+02 -1.00000E+00  1.01137E-01
      21    -1     0     0   502   511  0.000000000E+00  0.000000000E+00  7.989573536E+02  7.989573536E+02  0.000000000E+00  0.00000E+00  9.000E+00
      21    -1     0     0   501   502  0.000000000E+00  0.000000000E+00 -3.881817046E+02  3.881817046E+02  0.000000000E+00  0.00000E+00  9.000E+00
      25     1     1     2     0     0 -1.633125402E+02  2.371089193E+02  8.556662326E+01  3.253279460E+02  1.250000000E+02  0.00000E+00  9.000E+00
      25     1     1     2     0     0  1.822607988E+02  1.796973239E+02 -6.319954316E+01  2.917692740E+02  1.250000000E+02  0.00000E+00  9.000E+00
      21     1     1     2   501   511 -1.894825861E+01 -4.168062433E+02  3.884085689E+02  5.700418382E+02  9.344061824E-06  0.00000E+00  9.000E+00
#rwgt            1           1   2.6988358376993427E-002           5      245186           0
</event>
<event>
      5   9999  3.19816E-02  1.14277E+02 -1.00000E+00  1.21276E-01
      21    -1     0     0   502   501  0.000000000E+00  0.000000000E+00  4.710292490E+02  4.710292490E+02  0.000000000E+00  0.00000E+00  9.000E+00
      21    -1     0     0   512   502  0.000000000E+00  0.000000000E+00 -8.237217368E+02  8.237217368E+02  0.000000000E+00  0.00000E+00  9.000E+00
      25     1     1     2     0     0  1.516807860E+02  5.118131211E+02  1.235257064E+02  5.619994056E+02  1.250000000E+02  0.00000E+00  9.000E+00
      25     1     1     2     0     0 -1.054557007E+02 -4.073021400E+02 -3.416449109E+02  5.562033649E+02  1.250000000E+02  0.00000E+00  9.000E+00
      21     1     1     2   512   501 -4.622508528E+01 -1.045109812E+02 -1.345732833E+02  1.765482152E+02  3.814697266E-06  0.00000E+00  9.000E+00
#rwgt            1           1   2.6106236816004057E-002           5      245226           0
</event>
<event>
      5   9999  3.19816E-02  4.79453E+02 -1.00000E+00  9.93725E-02
      21    -1     0     0   502   501  0.000000000E+00  0.000000000E+00  2.767048930E+02  2.767048930E+02  0.000000000E+00  0.00000E+00  9.000E+00
      21    -1     0     0   501   511  0.000000000E+00  0.000000000E+00 -1.411098438E+03  1.411098438E+03  0.000000000E+00  0.00000E+00  9.000E+00
      25     1     1     2     0     0 -6.305869008E+00 -2.551574285E+02  4.178788267E+01  2.872565133E+02  1.250000000E+02  0.00000E+00  9.000E+00
      25     1     1     2     0     0 -5.911023020E+01 -2.198117470E+02 -5.800895142E+02  6.355627962E+02  1.250000000E+02  0.00000E+00  9.000E+00
      21     1     1     2   502   511  6.541609920E+01  4.749691755E+02 -5.960919132E+02  7.649840212E+02  1.078959322E-05  0.00000E+00  9.000E+00
#rwgt            2          11   1.9750946425693937E-003           5      245394           0
</event>
<event>
      5   9999  3.19816E-02  4.45319E+02 -1.00000E+00  1.00302E-01
      21    -1     0     0   512   501  0.000000000E+00  0.000000000E+00  3.451687809E+02  3.451687809E+02  0.000000000E+00  0.00000E+00  9.000E+00
      21    -1     0     0   501   502  0.000000000E+00  0.000000000E+00 -2.273126559E+03  2.273126559E+03  0.000000000E+00  0.00000E+00  9.000E+00
      25     1     1     2     0     0 -7.216960886E+02 -3.764429246E+01 -5.643514422E+02  9.254079573E+02  1.250000000E+02  0.00000E+00  9.000E+00
      25     1     1     2     0     0  4.201473623E+02 -2.900404774E+02 -9.469337926E+02  1.083030882E+03  1.250000000E+02  0.00000E+00  9.000E+00
      21     1     1     2   512   502  3.015487263E+02  3.276847699E+02 -4.166725436E+02  6.098565006E+02  7.629394531E-06  0.00000E+00  9.000E+00
#rwgt            1           1   3.0356340014155152E-002           5      245429           0
</event>
<event>
      5   9999  3.19816E-02  5.42650E+02 -1.00000E+00  9.78524E-02
      21    -1     0     0   502   501  0.000000000E+00  0.000000000E+00  1.162619194E+03  1.162619194E+03  0.000000000E+00  0.00000E+00  9.000E+00
       1    -1     0     0   501     0  0.000000000E+00  0.000000000E+00 -3.094193153E+03  3.094193153E+03  0.000000000E+00  0.00000E+00  9.000E+00
      25     1     1     2     0     0  5.241753817E+02  6.813002429E+02  6.456202643E+01  8.710471325E+02  1.250000000E+02  0.00000E+00  9.000E+00
      25     1     1     2     0     0 -1.066664923E+03 -6.680845138E+02  5.307719204E+01  1.265919888E+03  1.250000000E+02  0.00000E+00  9.000E+00
       1     1     1     2   502     0  5.424895414E+02 -1.321572911E+01 -2.049213177E+03  2.119845326E+03  3.051757812E-05  0.00000E+00  9.000E+00
#rwgt            2          12   4.6321147637413485E-004           5      245512           0
</event>
<event>
      5   9999  3.19816E-02  4.01988E+01 -1.00000E+00  1.44707E-01
      21    -1     0     0   511   501  0.000000000E+00  0.000000000E+00  4.121253044E+02  4.121253044E+02  0.000000000E+00  0.00000E+00  9.000E+00
      21    -1     0     0   501   502  0.000000000E+00  0.000000000E+00 -1.248100978E+03  1.248100978E+03  0.000000000E+00  0.00000E+00  9.000E+00
      25     1     1     2     0     0  1.358172547E+02 -6.758003950E+02 -2.698885946E+02  7.507445331E+02  1.250000000E+02  0.00000E+00  9.000E+00
      25     1     1     2     0     0 -1.246638993E+02  6.371798061E+02 -5.642857835E+02  8.692425660E+02  1.250000000E+02  0.00000E+00  9.000E+00
      21     1     1     2   511   502 -1.115335541E+01  3.862058894E+01 -1.801295707E+00  4.023918356E+01  1.591008641E-07  0.00000E+00  9.000E+00
#rwgt            1           1   2.8429232186138947E-002           5      245546           0
</event>
<event>
      5   9999  3.19816E-02  6.26696E+01 -1.00000E+00  1.33701E-01
      21    -1     0     0   502   501  0.000000000E+00  0.000000000E+00  2.958870804E+01  2.958870804E+01  0.000000000E+00  0.00000E+00  9.000E+00
      21    -1     0     0   501   512  0.000000000E+00  0.000000000E+00 -1.169846041E+03  1.169846041E+03  0.000000000E+00  0.00000E+00  9.000E+00
      25     1     1     2     0     0  1.545888350E+01 -7.237159170E+01 -2.910210984E+02  3.252612859E+02  1.250000000E+02  0.00000E+00  9.000E+00
      25     1     1     2     0     0 -6.232835999E+01  3.076954935E+01 -5.377642591E+02  5.564593318E+02  1.250000000E+02  0.00000E+00  9.000E+00
      21     1     1     2   502   512  4.686947650E+01  4.160204235E+01 -3.114719754E+02  3.177141313E+02  3.814697266E-06  0.00000E+00  9.000E+00
#rwgt            1           1   4.0855231382794108E-002           5      245753           0
</event>
<event>
      5   9999  3.19816E-02  5.58512E+01 -1.00000E+00  1.36388E-01
      21    -1     0     0   502   501  0.000000000E+00  0.000000000E+00  1.197806591E+03  1.197806591E+03  0.000000000E+00  0.00000E+00  9.000E+00
      21    -1     0     0   501   511  0.000000000E+00  0.000000000E+00 -3.782146074E+02  3.782146074E+02  0.000000000E+00  0.00000E+00  9.000E+00
      25     1     1     2     0     0  5.788616103E+02 -1.028129373E+01  4.869980273E+02  7.667975922E+02  1.250000000E+02  0.00000E+00  9.000E+00
      25     1     1     2     0     0 -5.919180672E+02 -4.402238228E+01  3.962569031E+02  7.245339893E+02  1.250000000E+02  0.00000E+00  9.000E+00
      21     1     1     2   502   511  1.305645693E+01  5.430367601E+01 -6.366294718E+01  8.468961648E+01  1.507891493E-06  0.00000E+00  9.000E+00
#rwgt            1           1   2.9101507993175735E-002           5      245830           0
</event>
<event>
      5   9999  3.19816E-02  5.34026E+01 -1.00000E+00  1.37464E-01
      21    -1     0     0   502   501  0.000000000E+00  0.000000000E+00  6.273856076E+02  6.273856076E+02  0.000000000E+00  0.00000E+00  9.000E+00
      21    -1     0     0   501   512  0.000000000E+00  0.000000000E+00 -1.693904490E+03  1.693904490E+03  0.000000000E+00  0.00000E+00  9.000E+00
      25     1     1     2     0     0 -5.350793060E+02  1.012281369E+02 -7.457808866E+02  9.318643303E+02  1.250000000E+02  0.00000E+00  9.000E+00
      25     1     1     2     0     0  5.752796648E+02 -6.607467568E+01  3.688027469E+02  6.978201929E+02  1.250000000E+02  0.00000E+00  9.000E+00
      21     1     1     2   502   512 -4.020035884E+01 -3.515346121E+01 -6.895407430E+02  6.916055747E+02  0.000000000E+00  0.00000E+00  9.000E+00
#rwgt            1           1   2.8769164649522307E-002           5      245954           0
</event>
<event>
      5   9999  3.19816E-02  2.36385E+02 -1.00000E+00  1.09068E-01
      21    -1     0     0   502   501  0.000000000E+00  0.000000000E+00  9.603329635E+02  9.603329635E+02  0.000000000E+00  0.00000E+00  9.000E+00
      21    -1     0     0   511   502  0.000000000E+00  0.000000000E+00 -2.318222890E+02  2.318222890E+02  0.000000000E+00  0.00000E+00  9.000E+00
      25     1     1     2     0     0 -4.760192506E+01 -2.071865482E+02  1.607634402E+02  2.943842603E+02  1.250000000E+02  0.00000E+00  9.000E+00
      25     1     1     2     0     0  9.035202188E+00  4.404037433E+02  3.989159418E+02  6.072857817E+02  1.250000000E+02  0.00000E+00  9.000E+00
      21     1     1     2   511   501  3.856672287E+01 -2.332171952E+02  1.688312925E+02  2.904852106E+02  0.000000000E+00  0.00000E+00  9.000E+00
#rwgt            1           1   2.8648678120111296E-002           5      246107           0
</event>
<event>
      5   9999  3.19816E-02  2.59012E+01 -1.00000E+00  1.57607E-01
      21    -1     0     0   502   501  0.000000000E+00  0.000000000E+00  1.236200317E+03  1.236200317E+03  0.000000000E+00  0.00000E+00  9.000E+00
      21    -1     0     0   512   502  0.000000000E+00  0.000000000E+00 -6.774764803E+02  6.774764803E+02  0.000000000E+00  0.00000E+00  9.000E+00
      25     1     1     2     0     0 -1.893467191E+02 -4.493367504E+02  4.272863732E+02  6.602683849E+02  1.250000000E+02  0.00000E+00  9.000E+00
      25     1     1     2     0     0  1.888134559E+02  4.234410008E+02  6.087792542E+02  7.753644192E+02  1.250000000E+02  0.00000E+00  9.000E+00
      21     1     1     2   512   501  5.332631764E-01  2.589574968E+01 -4.773417907E+02  4.780439931E+02  5.394796609E-06  0.00000E+00  9.000E+00
#rwgt            1           1   3.0046731404153298E-002           5      246213           0
</event>
<event>
      5   9999  3.19816E-02  1.23317E+02 -1.00000E+00  1.19868E-01
      21    -1     0     0   502   501  0.000000000E+00  0.000000000E+00  1.646511041E+02  1.646511041E+02  0.000000000E+00  0.00000E+00  9.000E+00
       2    -1     0     0   501     0  0.000000000E+00  0.000000000E+00 -1.973091357E+03  1.973091357E+03  0.000000000E+00  0.00000E+00  9.000E+00
      25     1     1     2     0     0 -1.725860633E+02  3.900827622E+02 -6.722700426E+02  8.059296004E+02  1.250000000E+02  0.00000E+00  9.000E+00
      25     1     1     2     0     0  9.255233456E+01 -4.839001027E+02 -1.085278713E+03  1.198407330E+03  1.250000000E+02  0.00000E+00  9.000E+00
       2     1     1     2   502     0  8.003372875E+01  9.381734043E+01 -5.089149729E+01  1.334055306E+02  2.336015456E-06  0.00000E+00  9.000E+00
#rwgt            1           1   1.2928068677957661E-002           5      246425           0
</event>
<event>
      5   9999  3.19816E-02  8.86921E+01 -1.00000E+00  1.26218E-01
      21    -1     0     0   502   511  0.000000000E+00  0.000000000E+00  8.295046041E+02  8.295046041E+02  0.000000000E+00  0.00000E+00  9.000E+00
      21    -1     0     0   501   502  0.000000000E+00  0.000000000E+00 -1.284386761E+02  1.284386761E+02  0.000000000E+00  0.00000E+00  9.000E+00
      25     1     1     2     0     0  1.292776388E+01 -1.361335218E+02  2.666328815E+02  3.246806990E+02  1.250000000E+02  0.00000E+00  9.000E+00
      25     1     1     2     0     0  4.619565676E+01  7.002211638E+01 -3.580050458E+01  1.547378803E+02  1.250000000E+02  0.00000E+00  9.000E+00
      21     1     1     2   501   511 -5.912342064E+01  6.611140539E+01  4.702335510E+02  4.785247008E+02  0.000000000E+00  0.00000E+00  9.000E+00
#rwgt            1           1   3.0421303227507503E-002           5      246535           0
</event>
<event>
      5   9999  3.19816E-02  1.28942E+01 -1.00000E+00  1.83805E-01
      21    -1     0     0   512   501  0.000000000E+00  0.000000000E+00  2.124348535E+02  2.124348535E+02  0.000000000E+00  0.00000E+00  9.000E+00
      21    -1     0     0   501   502  0.000000000E+00  0.000000000E+00 -9.491325190E+02  9.491325190E+02  0.000000000E+00  0.00000E+00  9.000E+00
      25     1     1     2     0     0  3.042218200E+02 -2.287329602E+02 -5.975926193E+02  7.194523066E+02  1.250000000E+02  0.00000E+00  9.000E+00
      25     1     1     2     0     0 -3.160122404E+02  2.235130373E+02 -1.341720460E+02  4.283094113E+02  1.250000000E+02  0.00000E+00  9.000E+00
      21     1     1     2   512   502  1.179042034E+01  5.219922944E+00 -4.933000240E+00  1.380565459E+01  5.960464478E-08  0.00000E+00  9.000E+00
#rwgt            1           1   2.8177724880390609E-002           5      246571           0
</event>
<event>
      5   9999  3.19816E-02  1.63227E+02 -1.00000E+00  1.14957E-01
      21    -1     0     0   502   511  0.000000000E+00  0.000000000E+00  4.499739738E+02  4.499739738E+02  0.000000000E+00  0.00000E+00  9.000E+00
      21    -1     0     0   501   502  0.000000000E+00  0.000000000E+00 -2.147995424E+02  2.147995424E+02  0.000000000E+00  0.00000E+00  9.000E+00
      25     1     1     2     0     0 -1.735005739E+02  8.384877611E+01  2.301365476E+02  3.251475003E+02  1.250000000E+02  0.00000E+00  9.000E+00
      25     1     1     2     0     0  5.995824151E+01  3.341700476E+01 -7.129119165E+01  1.594337509E+02  1.250000000E+02  0.00000E+00  9.000E+00
      21     1     1     2   501   511  1.135423324E+02 -1.172657809E+02  7.632907544E+01  1.801922650E+02  3.162979880E-06  0.00000E+00  9.000E+00
#rwgt            1           1   2.6626465551743705E-002           5      246876           0
</event>
<event>
      5   9999  3.19816E-02  1.68241E+02 -1.00000E+00  1.14452E-01
       1    -1     0     0   502     0  0.000000000E+00  0.000000000E+00  2.966864171E+02  2.966864171E+02  0.000000000E+00  0.00000E+00  9.000E+00
      21    -1     0     0   501   502  0.000000000E+00  0.000000000E+00 -8.913012238E+02  8.913012238E+02  0.000000000E+00  0.00000E+00  9.000E+00
      25     1     1     2     0     0 -1.306760605E+02 -1.104942505E+01 -2.439378452E+02  3.038568658E+02  1.250000000E+02  0.00000E+00  9.000E+00
      25     1     1     2     0     0  1.741786222E+02  1.735688135E+02 -5.548117089E+02  6.196009666E+02  1.250000000E+02  0.00000E+00  9.000E+00
       1     1     1     2   501     0 -4.350256177E+01 -1.625193884E+02  2.041347474E+02  2.645298085E+02  3.814697266E-06  0.00000E+00  9.000E+00
#rwgt            1           1   3.2772837444380101E-002           5      246914           0
</event>
<event>
      5   9999  3.19816E-02  9.40364E+00 -1.00000E+00  1.98896E-01
       2    -1     0     0   502     0  0.000000000E+00  0.000000000E+00  2.132367408E+02  2.132367408E+02  0.000000000E+00  0.00000E+00  9.000E+00
      21    -1     0     0   501   502  0.000000000E+00  0.000000000E+00 -6.217063452E+02  6.217063452E+02  0.000000000E+00  0.00000E+00  9.000E+00
      25     1     1     2     0     0 -1.836938273E+01 -1.163563347E+02 -5.137488365E+02  5.417001919E+02  1.250000000E+02  0.00000E+00  9.000E+00
      25     1     1     2     0     0  1.552904568E+01  1.253207605E+02 -9.634956716E+00  1.779445887E+02  1.250000000E+02  0.00000E+00  9.000E+00
       2     1     1     2   501     0  2.840337053E+00 -8.964425822E+00  1.149141888E+02  1.152983054E+02  1.348699152E-06  0.00000E+00  9.000E+00
#rwgt            1           1   2.3888622263559957E-002           5      246943           0
</event>
<event>
      5   9999  3.19816E-02  4.71916E+01 -1.00000E+00  1.40523E-01
       2    -1     0     0   502     0  0.000000000E+00  0.000000000E+00  5.238488053E+02  5.238488053E+02  0.000000000E+00  0.00000E+00  9.000E+00
      21    -1     0     0   501   502  0.000000000E+00  0.000000000E+00 -2.560965868E+02  2.560965868E+02  0.000000000E+00  0.00000E+00  9.000E+00
      25     1     1     2     0     0 -1.469114282E+02  1.825797782E+02 -3.518015984E+01  2.679197394E+02  1.250000000E+02  0.00000E+00  9.000E+00
      25     1     1     2     0     0  1.191502501E+02 -2.207420844E+02  9.065015072E+01  2.945611986E+02  1.250000000E+02  0.00000E+00  9.000E+00
       2     1     1     2   501     0  2.776117807E+01  3.816230621E+01  2.122822276E+02  2.174644540E+02  2.697398305E-06  0.00000E+00  9.000E+00
#rwgt            1           1   2.8097016124096923E-002           5      247166           0
</event>
<event>
      5   9999  3.19816E-02  2.64543E+02 -1.00000E+00  1.07398E-01
      21    -1     0     0   502   501  0.000000000E+00  0.000000000E+00  3.170001724E+02  3.170001724E+02  0.000000000E+00  0.00000E+00  9.000E+00
       1    -1     0     0   501     0  0.000000000E+00  0.000000000E+00 -1.816416252E+03  1.816416252E+03  0.000000000E+00  0.00000E+00  9.000E+00
      25     1     1     2     0     0 -4.024334778E+02 -2.814769076E+02 -2.383398790E+01  5.073214095E+02  1.250000000E+02  0.00000E+00  9.000E+00
      25     1     1     2     0     0  3.715337134E+02  1.874456592E+01 -1.089925845E+03  1.158426521E+03  1.250000000E+02  0.00000E+00  9.000E+00
       1     1     1     2   502     0  3.089976447E+01  2.627323417E+02 -3.856562472E+02  4.676684935E+02  0.000000000E+00  0.00000E+00  9.000E+00
#rwgt            1           1   3.1553219520447658E-002           5      247219           0
</event>
<event>
      5   9999  3.19816E-02  3.58154E+01 -1.00000E+00  1.47881E-01
      21    -1     0     0   511   501  0.000000000E+00  0.000000000E+00  9.907584278E+01  9.907584278E+01  0.000000000E+00  0.00000E+00  9.000E+00
      21    -1     0     0   501   502  0.000000000E+00  0.000000000E+00 -1.095641588E+03  1.095641588E+03  0.000000000E+00  0.00000E+00  9.000E+00
      25     1     1     2     0     0 -1.837733039E+02 -1.151371664E+02 -7.959899323E+02  8.344184602E+02  1.250000000E+02  0.00000E+00  9.000E+00
      25     1     1     2     0     0  1.807330132E+02  7.945100798E+01 -2.187963930E+02  3.201152079E+02  1.250000000E+02  0.00000E+00  9.000E+00
      21     1     1     2   511   502  3.040290715E+00  3.568615843E+01  1.822057989E+01  4.018376292E+01  8.920806376E-07  0.00000E+00  9.000E+00
#rwgt            1           1   2.7597661485995691E-002           5      247279           0
</event>
<event>
      5   9999  3.19816E-02  1.58903E+02 -1.00000E+00  1.15410E-01
      21    -1     0     0   502   501  0.000000000E+00  0.000000000E+00  3.530809128E+02  3.530809128E+02  0.000000000E+00  0.00000E+00  9.000E+00
      21    -1     0     0   512   502  0.000000000E+00  0.000000000E+00 -3.492239000E+02  3.492239000E+02  0.000000000E+00  0.00000E+00  9.000E+00
      25     1     1     2     0     0  8.942806874E+01  1.149911483E+02  1.082657826E+02  2.203788178E+02  1.250000000E+02  0.00000E+00  9.000E+00
      25     1     1     2     0     0 -2.456128180E+02 -1.442545332E+02 -5.840643954E+01  3.164985607E+02  1.250000000E+02  0.00000E+00  9.000E+00
      21     1     1     2   512   501  1.561847493E+02  2.926338498E+01 -4.600233023E+01  1.654274342E+02  4.156969970E-06  0.00000E+00  9.000E+00
#rwgt            1           1   2.7935991446417369E-002           5      247431           0
</event>
<event>
      5   9999  3.19816E-02  4.93918E+01 -1.00000E+00  1.39379E-01
      21    -1     0     0   511   501  0.000000000E+00  0.000000000E+00  1.070282128E+03  1.070282128E+03  0.000000000E+00  0.00000E+00  9.000E+00
      21    -1     0     0   501   502  0.000000000E+00  0.000000000E+00 -1.364754434E+02  1.364754434E+02  0.000000000E+00  0.00000E+00  9.000E+00
      25     1     1     2     0     0 -1.873574210E+02 -8.284215415E+01  6.031652923E+02  6.491525211E+02  1.250000000E+02  0.00000E+00  9.000E+00
      25     1     1     2     0     0  1.390670185E+02  7.246990248E+01 -2.179778602E+01  2.017217536E+02  1.250000000E+02  0.00000E+00  9.000E+00
      21     1     1     2   511   502  4.829040244E+01  1.037225166E+01  3.524391786E+02  3.558832972E+02  0.000000000E+00  0.00000E+00  9.000E+00
#rwgt            1           1   2.8816510513058148E-002           5      247469           0
</event>
<event>
      5   9999  3.19816E-02  1.31513E+02 -1.00000E+00  1.18703E-01
      21    -1     0     0   512   501  0.000000000E+00  0.000000000E+00  3.037337049E+02  3.037337049E+02  0.000000000E+00  0.00000E+00  9.000E+00
      21    -1     0     0   501   502  0.000000000E+00  0.000000000E+00 -7.179234738E+02  7.179234738E+02  0.000000000E+00  0.00000E+00  9.000E+00
      25     1     1     2     0     0  1.240137785E+02 -7.932528475E+01 -2.375220596E+02  3.061268477E+02  1.250000000E+02  0.00000E+00  9.000E+00
      25     1     1     2     0     0 -2.541826795E+02  6.056910273E+01 -3.772821524E+02  4.756514200E+02  1.250000000E+02  0.00000E+00  9.000E+00
      21     1     1     2   512   502  1.301689010E+02  1.875618202E+01  2.006144432E+02  2.398789110E+02  4.672030912E-06  0.00000E+00  9.000E+00
#rwgt            1           1   3.6317931879489167E-002           5      247616           0
</event>
<event>
      5   9999  3.19816E-02  1.29326E+02 -1.00000E+00  1.19005E-01
      21    -1     0     0   502   501  0.000000000E+00  0.000000000E+00  1.554115701E+03  1.554115701E+03  0.000000000E+00  0.00000E+00  9.000E+00
      21    -1     0     0   511   502  0.000000000E+00  0.000000000E+00 -3.513221921E+02  3.513221921E+02  0.000000000E+00  0.00000E+00  9.000E+00
      25     1     1     2     0     0  3.131694561E+02 -2.532651046E+02  2.360957803E+01  4.223751101E+02  1.250000000E+02  0.00000E+00  9.000E+00
      25     1     1     2     0     0 -2.780935437E+02  1.287867929E+02  1.278090572E+03  1.320250949E+03  1.250000000E+02  0.00000E+00  9.000E+00
      21     1     1     2   511   501 -3.507591236E+01  1.244783117E+02 -9.890664121E+01  1.628118343E+02  1.907348633E-06  0.00000E+00  9.000E+00
#rwgt            1           1   2.1637326858249015E-002           5      247666           0
</event>
<event>
      5   9999  3.19816E-02  3.62348E+02 -1.00000E+00  1.02994E-01
      21    -1     0     0   502   501  0.000000000E+00  0.000000000E+00  1.873217389E+02  1.873217389E+02  0.000000000E+00  0.00000E+00  9.000E+00
       2    -1     0     0   501     0  0.000000000E+00  0.000000000E+00 -1.797793402E+03  1.797793402E+03  0.000000000E+00  0.00000E+00  9.000E+00
      25     1     1     2     0     0  5.071194814E+01  5.159548088E+01 -1.898471910E+02  2.385387836E+02  1.250000000E+02  0.00000E+00  9.000E+00
      25     1     1     2     0     0  1.816064026E+02 -3.296685089E+02 -1.478982714E+02  4.232742727E+02  1.250000000E+02  0.00000E+00  9.000E+00
       2     1     1     2   502     0 -2.323183508E+02  2.780730280E+02 -1.272726200E+03  1.323302084E+03  1.525878906E-05  0.00000E+00  9.000E+00
#rwgt            1           1   2.6331441156901076E-002           5      247739           0
</event>
<event>
      5   9999  3.19816E-02  1.28628E+02 -1.00000E+00  1.19102E-01
      21    -1     0     0   502   511  0.000000000E+00  0.000000000E+00  3.646268042E+02  3.646268042E+02  0.000000000E+00  0.00000E+00  9.000E+00
      21    -1     0     0   501   502  0.000000000E+00  0.000000000E+00 -4.167297747E+02  4.167297747E+02  0.000000000E+00  0.00000E+00  9.000E+00
      25     1     1     2     0     0 -5.084848301E+01 -7.256624067E+01  2.195687538E+02  2.677440292E+02  1.250000000E+02  0.00000E+00  9.000E+00
      25     1     1     2     0     0  1.743057746E+02  3.646292759E+01 -3.106007644E+02  3.792227353E+02  1.250000000E+02  0.00000E+00  9.000E+00
      21     1     1     2   501   511 -1.234572916E+02  3.610331309E+01  3.892904009E+01  1.343898144E+02  2.900487199E-06  0.00000E+00  9.000E+00
#rwgt            2          11   3.4532416415329354E-003           5      247766           0
</event>
<event>
      5   9999  3.19816E-02  5.00979E+01 -1.00000E+00  1.39027E-01
      21    -1     0     0   502   512  0.000000000E+00  0.000000000E+00  1.979604736E+02  1.979604736E+02  0.000000000E+00  0.00000E+00  9.000E+00
      21    -1     0     0   501   502  0.000000000E+00  0.000000000E+00 -2.618742650E+02  2.618742650E+02  0.000000000E+00  0.00000E+00  9.000E+00
      25     1     1     2     0     0  4.119619356E+01  1.415893194E+02 -1.271995570E+02  2.314074092E+02  1.250000000E+02  0.00000E+00  9.000E+00
      25     1     1     2     0     0 -6.130010409E+01 -9.570210493E+01  4.262938002E+01  1.742379399E+02  1.250000000E+02  0.00000E+00  9.000E+00
      21     1     1     2   501   512  2.010391053E+01 -4.588721448E+01  2.065638564E+01  5.418938954E+01  5.840038640E-07  0.00000E+00  9.000E+00
#rwgt            1           1   2.9788635840406533E-002           5      247786           0
</event>
<event>
      5   9999  3.19816E-02  5.45631E+01 -1.00000E+00  1.36945E-01
      21    -1     0     0   502   511  0.000000000E+00  0.000000000E+00  7.318110751E+02  7.318110751E+02  0.000000000E+00  0.00000E+00  9.000E+00
      21    -1     0     0   501   502  0.000000000E+00  0.000000000E+00 -8.846644846E+02  8.846644846E+02  0.000000000E+00  0.00000E+00  9.000E+00
      25     1     1     2     0     0 -8.493916011E+01 -1.361462273E+00  5.635590908E+02  5.834726757E+02  1.250000000E+02  0.00000E+00  9.000E+00
      25     1     1     2     0     0  1.235828585E+02  3.988157539E+01 -8.603722277E+02  8.790498468E+02  1.250000000E+02  0.00000E+00  9.000E+00
      21     1     1     2   501   511 -3.864369842E+01 -3.852011311E+01  1.439597274E+02  1.539530372E+02  1.907348633E-06  0.00000E+00  9.000E+00
#rwgt            1           1   3.2594943012883008E-002           5      247854           0
</event>
<event>
      5   9999  3.19816E-02  6.67790E+01 -1.00000E+00  1.32265E-01
      21    -1     0     0   512   501  0.000000000E+00  0.000000000E+00  3.882153097E+02  3.882153097E+02  0.000000000E+00  0.00000E+00  9.000E+00
      21    -1     0     0   501   502  0.000000000E+00  0.000000000E+00 -2.604567570E+02  2.604567570E+02  0.000000000E+00  0.00000E+00  9.000E+00
      25     1     1     2     0     0 -1.940261628E+02  7.796780437E+01 -8.436031914E+01  2.578115471E+02  1.250000000E+02  0.00000E+00  9.000E+00
      25     1     1     2     0     0  2.272797848E+02 -2.005723287E+01  1.826121356E+02  3.178530875E+02  1.250000000E+02  0.00000E+00  9.000E+00
      21     1     1     2   512   502 -3.325362196E+01 -5.791057150E+01  2.950673616E+01  7.300743211E+01  1.261592536E-06  0.00000E+00  9.000E+00
#rwgt            1           1   2.6676427054206593E-002           5      247960           0
</event>
<event>
      5   9999  3.19816E-02  3.33007E+01 -1.00000E+00  1.49956E-01
      21    -1     0     0   502   501  0.000000000E+00  0.000000000E+00  2.192509251E+02  2.192509251E+02  0.000000000E+00  0.00000E+00  9.000E+00
      21    -1     0     0   501   511  0.000000000E+00  0.000000000E+00 -9.615724139E+02  9.615724139E+02  0.000000000E+00  0.00000E+00  9.000E+00
      25     1     1     2     0     0 -1.189344054E+02 -3.768579879E+02 -1.552497960E+02  4.426000847E+02  1.250000000E+02  0.00000E+00  9.000E+00
      25     1     1     2     0     0  9.383054547E+01  3.549779537E+02 -4.361242888E+02  5.836462234E+02  1.250000000E+02  0.00000E+00  9.000E+00
      21     1     1     2   502   511  2.510385995E+01  2.188003423E+01 -1.509474040E+02  1.545770308E+02  1.907348633E-06  0.00000E+00  9.000E+00
#rwgt            1           1   2.7889453076374280E-002           5      248102           0
</event>
<event>
      5   9999  3.19816E-02  2.91244E+01 -1.00000E+00  1.53939E-01
      21    -1     0     0   502   512  0.000000000E+00  0.000000000E+00  1.614495583E+03  1.614495583E+03  0.000000000E+00  0.00000E+00  9.000E+00
      21    -1     0     0   501   502  0.000000000E+00  0.000000000E+00 -6.755119882E+02  6.755119882E+02  0.000000000E+00  0.00000E+00  9.000E+00
      25     1     1     2     0     0  3.487226876E+02 -4.450772705E+02  1.622926616E+02  6.013860637E+02  1.250000000E+02  0.00000E+00  9.000E+00
      25     1     1     2     0     0 -3.527580157E+02  4.739207886E+02 -2.557291078E+02  6.557907502E+02  1.250000000E+02  0.00000E+00  9.000E+00
      21     1     1     2   501   512  4.035328046E+00 -2.884351810E+01  1.032420041E+03  1.032830758E+03  0.000000000E+00  0.00000E+00  9.000E+00
#rwgt            1           1   2.9516043597036974E-002           5      248210           0
</event>
<event>
      5   9999  3.19816E-02  1.43009E+01 -1.00000E+00  1.79359E-01
      21    -1     0     0   502   501  0.000000000E+00  0.000000000E+00  1.241781326E+03  1.241781326E+03  0.000000000E+00  0.00000E+00  9.000E+00
      21    -1     0     0   501   511  0.000000000E+00  0.000000000E+00 -1.643135222E+02  1.643135222E+02  0.000000000E+00  0.00000E+00  9.000E+00
      25     1     1     2     0     0  1.412413495E+02 -9.685543132E+01  8.898914181E+02  9.148015246E+02  1.250000000E+02  0.00000E+00  9.000E+00
      25     1     1     2     0     0 -1.395187322E+02  8.265869785E+01  3.080965882E+02  3.699276208E+02  1.250000000E+02  0.00000E+00  9.000E+00
      21     1     1     2   502   511 -1.722617246E+00  1.419673347E+01 -1.205202024E+02  1.213657029E+02  4.264961200E-06  0.00000E+00  9.000E+00
#rwgt            1           1   4.0345990679745751E-002           5      248359           0
</event>
<event>
      5   9999  3.19816E-02  2.46987E+01 -1.00000E+00  1.59146E-01
      21    -1     0     0   502   501  0.000000000E+00  0.000000000E+00  5.449389852E+02  5.449389852E+02  0.000000000E+00  0.00000E+00  9.000E+00
      21    -1     0     0   501   512  0.000000000E+00  0.000000000E+00 -1.401996913E+03  1.401996913E+03  0.000000000E+00  0.00000E+00  9.000E+00
      25     1     1     2     0     0 -5.590599532E+02 -6.136015823E+02 -1.581758886E+02  8.542245284E+02  1.250000000E+02  0.00000E+00  9.000E+00
      25     1     1     2     0     0  5.451497675E+02  5.931924557E+02 -6.789677077E+02  1.060984310E+03  1.250000000E+02  0.00000E+00  9.000E+00
      21     1     1     2   502   512  1.391018574E+01  2.040912662E+01 -1.991433197E+01  3.172705997E+01  2.384185791E-07  0.00000E+00  9.000E+00
#rwgt            1           1   3.6410465943679644E-002           5      248539           0
</event>
<event>
      5   9999  3.19816E-02  1.15053E+01 -1.00000E+00  1.88971E-01
       2    -1     0     0   502     0  0.000000000E+00  0.000000000E+00  6.359571229E+02  6.359571229E+02  0.000000000E+00  0.00000E+00  9.000E+00
      21    -1     0     0   501   502  0.000000000E+00  0.000000000E+00 -1.858454898E+02  1.858454898E+02  0.000000000E+00  0.00000E+00  9.000E+00
      25     1     1     2     0     0 -7.959847495E+01  5.082082656E+01 -1.058436701E+02  1.890675967E+02  1.250000000E+02  0.00000E+00  9.000E+00
      25     1     1     2     0     0  8.176828831E+01 -6.211969594E+01  1.324578421E+02  2.090812989E+02  1.250000000E+02  0.00000E+00  9.000E+00
       2     1     1     2   501     0 -2.169813361E+00  1.129886938E+01  4.234974611E+02  4.236537172E+02  7.629394531E-06  0.00000E+00  9.000E+00
#rwgt            1           1   2.5422213446428622E-002           5      248747           0
</event>
<event>
      5   9999  3.19816E-02  1.14636E+02 -1.00000E+00  1.21217E-01
      21    -1     0     0   502   511  0.000000000E+00  0.000000000E+00  5.694207062E+01  5.694207062E+01  0.000000000E+00  0.00000E+00  9.000E+00
      21    -1     0     0   501   502  0.000000000E+00  0.000000000E+00 -1.361089907E+03  1.361089907E+03  0.000000000E+00  0.00000E+00  9.000E+00
      25     1     1     2     0     0  1.865030502E+01 -7.768638531E+01 -9.775933068E+02  9.887854579E+02  1.250000000E+02  0.00000E+00  9.000E+00
      25     1     1     2     0     0  6.405062609E+01 -1.698485650E+00 -2.630297977E+02  2.981862539E+02  1.250000000E+02  0.00000E+00  9.000E+00
      21     1     1     2   501   511 -8.270093111E+01  7.938487096E+01 -6.352473221E+01  1.310602661E+02  1.348699152E-06  0.00000E+00  9.000E+00
#rwgt            1           1   3.2569301493371186E-002           5      248900           0
</event>
<event>
      5   9999  3.19816E-02  3.11393E+01 -1.00000E+00  1.51924E-01
      21    -1     0     0   502   501  0.000000000E+00  0.000000000E+00  4.203717169E+02  4.203717169E+02  0.000000000E+00  0.00000E+00  9.000E+00
      21    -1     0     0   501   512  0.000000000E+00  0.000000000E+00 -1.510276094E+02  1.510276094E+02  0.000000000E+00  0.00000E+00  9.000E+00
      25     1     1     2     0     0 -1.229286181E+01  6.920074731E+01  3.277649855E+02  3.577635303E+02  1.250000000E+02  0.00000E+00  9.000E+00
      25     1     1     2     0     0 -1.364832275E+01 -8.642613200E+01 -6.042221074E+00  1.526999065E+02  1.250000000E+02  0.00000E+00  9.000E+00
      21     1     1     2   502   512  2.594118456E+01  1.722538470E+01 -5.237865690E+01  6.093588953E+01  1.168007728E-06  0.00000E+00  9.000E+00
#rwgt            1           1   2.7214732045715305E-002           5      248953           0
</event>
<event>
      5   9999  3.19816E-02  2.07929E+01 -1.00000E+00  1.64988E-01
      21    -1     0     0   502   501  0.000000000E+00  0.000000000E+00  5.944558911E+02  5.944558911E+02  0.000000000E+00  0.00000E+00  9.000E+00
       3    -1     0     0   501     0  0.000000000E+00  0.000000000E+00 -2.647111882E+02  2.647111882E+02  0.000000000E+00  0.00000E+00  9.000E+00
      25     1     1     2     0     0  2.144397509E+02  2.643807948E+02  1.872462318E+02  4.081271404E+02  1.250000000E+02  0.00000E+00  9.000E+00
      25     1     1     2     0     0 -1.977978596E+02 -2.768464327E+02  1.825938971E+02  4.058737141E+02  1.250000000E+02  0.00000E+00  9.000E+00
       3     1     1     2   502     0 -1.664189136E+01  1.246563796E+01 -4.009542598E+01  4.516622479E+01  6.743495762E-07  0.00000E+00  9.000E+00
#rwgt            1           1   2.7563664204256034E-002           5      249058           0
</event>
<event>
      5   9999  3.19816E-02  1.02651E+02 -1.00000E+00  1.23319E-01
      21    -1     0     0   502   501  0.000000000E+00  0.000000000E+00  6.765262244E+02  6.765262244E+02  0.000000000E+00  0.00000E+00  9.000E+00
       2    -1     0     0   501     0  0.000000000E+00  0.000000000E+00 -1.051735851E+03  1.051735851E+03  0.000000000E+00  0.00000E+00  9.000E+00
      25     1     1     2     0     0  1.472531505E+02 -3.750758627E+02  4.400964550E+02  6.096517717E+02  1.250000000E+02  0.00000E+00  9.000E+00
      25     1     1     2     0     0 -1.591821724E+02  4.770312620E+02 -3.118413068E+02  6.047873920E+02  1.250000000E+02  0.00000E+00  9.000E+00
       2     1     1     2   502     0  1.192902187E+01 -1.019553993E+02 -5.034647743E+02  5.138229112E+02  1.078959322E-05  0.00000E+00  9.000E+00
#rwgt            1           1   3.4339705689877223E-002           5      249214           0
</event>
<event>
      5   9999  3.19816E-02  6.34100E+01 -1.00000E+00  1.33433E-01
      21    -1     0     0   511   501  0.000000000E+00  0.000000000E+00  8.471352784E+02  8.471352784E+02  0.000000000E+00  0.00000E+00  9.000E+00
      21    -1     0     0   501   502  0.000000000E+00  0.000000000E+00 -3.803105195E+02  3.803105195E+02  0.000000000E+00  0.00000E+00  9.000E+00
      25     1     1     2     0     0 -2.116660644E+02 -4.555670760E+02  1.915483259E+01  5.180113813E+02  1.250000000E+02  0.00000E+00  9.000E+00
      25     1     1     2     0     0  1.522498814E+02  4.334189491E+02  3.419741260E+02  5.861768630E+02  1.250000000E+02  0.00000E+00  9.000E+00
      21     1     1     2   511   502  5.941618300E+01  2.214812694E+01  1.056958003E+02  1.232575536E+02  1.348699152E-06  0.00000E+00  9.000E+00
#rwgt            1           1   2.8798044069180455E-002           5      249446           0
</event>
<event>
      5   9999  3.19816E-02  5.52602E+01 -1.00000E+00  1.36641E-01
      21    -1     0     0   502   501  0.000000000E+00  0.000000000E+00  2.382538989E+02  2.382538989E+02  0.000000000E+00  0.00000E+00  9.000E+00
      21    -1     0     0   501   512  0.000000000E+00  0.000000000E+00 -1.207332912E+03  1.207332912E+03  0.000000000E+00  0.00000E+00  9.000E+00
      25     1     1     2     0     0  2.918258390E+02 -3.658566866E+01 -7.467473342E+02  8.122545245E+02  1.250000000E+02  0.00000E+00  9.000E+00
      25     1     1     2     0     0 -2.547866561E+02 -4.424009138E+00  1.040517852E+02  3.023037975E+02  1.250000000E+02  0.00000E+00  9.000E+00
      21     1     1     2   502   512 -3.703918293E+01  4.100967780E+01 -3.263834638E+02  3.310284884E+02  3.814697266E-06  0.00000E+00  9.000E+00
#rwgt            1           1   2.7874099428318314E-002           5      249583           0
</event>
<event>
      5   9999  3.19816E-02  2.47784E+02 -1.00000E+00  1.08363E-01
       2    -1     0     0   502     0  0.000000000E+00  0.000000000E+00  9.598423793E+02  9.598423793E+02  0.000000000E+00  0.00000E+00  9.000E+00
      21    -1     0     0   501   502  0.000000000E+00  0.000000000E+00 -3.505812357E+02  3.505812357E+02  0.000000000E+00  0.00000E+00  9.000E+00
      25     1     1     2     0     0  1.671139700E+02 -1.976040480E+02 -1.067268903E+02  3.065779963E+02  1.250000000E+02  0.00000E+00  9.000E+00
      25     1     1     2     0     0  7.493478829E+01  1.446031675E+02  7.273814149E+02  7.558002522E+02  1.250000000E+02  0.00000E+00  9.000E+00
       2     1     1     2   501     0 -2.420487583E+02  5.300088052E+01 -1.139338097E+01  2.480453665E+02  4.744469820E-06  0.00000E+00  9.000E+00
#rwgt            2          18   2.3406808976674486E-004           5      249746           0
</event>
<event>
      5   9999  3.19816E-02  5.78248E+01 -1.00000E+00  1.35566E-01
      21    -1     0     0   511   501  0.000000000E+00  0.000000000E+00  6.934107277E+02  6.934107277E+02  0.000000000E+00  0.00000E+00  9.000E+00
      21    -1     0     0   501   502  0.000000000E+00  0.000000000E+00 -2.689087706E+02  2.689087706E+02  0.000000000E+00  0.00000E+00  9.000E+00
      25     1     1     2     0     0  8.331819724E+01  3.506399519E+02  3.122608489E+02  4.929727534E+02  1.250000000E+02  0.00000E+00  9.000E+00
      25     1     1     2     0     0 -5.933748350E+01 -2.980221600E+02 -1.569241729E+01  3.289519672E+02  1.250000000E+02  0.00000E+00  9.000E+00
      21     1     1     2   511   502 -2.398071374E+01 -5.261779192E+01  1.279335255E+02  1.403947777E+02  1.907348633E-06  0.00000E+00  9.000E+00
#rwgt            1           1   2.7228427781010148E-002           5      249780           0
</event>
<event>
      5   9999  3.19816E-02  4.53778E+01 -1.00000E+00  1.41522E-01
      21    -1     0     0   512   501  0.000000000E+00  0.000000000E+00  1.265124286E+02  1.265124286E+02  0.000000000E+00  0.00000E+00  9.000E+00
      21    -1     0     0   501   502  0.000000000E+00  0.000000000E+00 -6.211872254E+02  6.211872254E+02  0.000000000E+00  0.00000E+00  9.000E+00
      25     1     1     2     0     0 -1.822957182E+02  3.734814183E+01 -3.441063581E+02  4.106833309E+02  1.250000000E+02  0.00000E+00  9.000E+00
      25     1     1     2     0     0  1.628137431E+02 -7.833102957E+01 -1.790661961E+02  2.834321219E+02  1.250000000E+02  0.00000E+00  9.000E+00
      21     1     1     2   512   502  1.948197517E+01  4.098288773E+01  2.849775740E+01  5.358420122E+01  8.259061849E-07  0.00000E+00  9.000E+00
#rwgt            1           1   3.0453408953407996E-002           5      249904           0
</event>
<event>
      5   9999  3.19816E-02  4.44929E+01 -1.00000E+00  1.42030E-01
      21    -1     0     0   502   501  0.000000000E+00  0.000000000E+00  2.463583970E+02  2.463583970E+02  0.000000000E+00  0.00000E+00  9.000E+00
      21    -1     0     0   511   502  0.000000000E+00  0.000000000E+00 -6.132416413E+02  6.132416413E+02  0.000000000E+00  0.00000E+00  9.000E+00
      25     1     1     2     0     0 -2.568632249E+02  2.164703146E+00 -3.994921875E+02  4.911236200E+02  1.250000000E+02  0.00000E+00  9.000E+00
      25     1     1     2     0     0  2.236915890E+02 -3.181699746E+01  1.088354278E+02  2.802149151E+02  1.250000000E+02  0.00000E+00  9.000E+00
      21     1     1     2   511   501  3.317163591E+01  2.965229432E+01 -7.622648458E+01  8.826150315E+01  1.348699152E-06  0.00000E+00  9.000E+00
#rwgt            1           1   2.7119189599833650E-002           5      250010           0
</event>
<event>
      5   9999  3.19816E-02  4.31184E+01 -1.00000E+00  1.42847E-01
      21    -1     0     0   502   501  0.000000000E+00  0.000000000E+00  1.530822953E+03  1.530822953E+03  0.000000000E+00  0.00000E+00  9.000E+00
      21    -1     0     0   501   512  0.000000000E+00  0.000000000E+00 -5.286207857E+01  5.286207857E+01  0.000000000E+00  0.00000E+00  9.000E+00
      25     1     1     2     0     0 -2.587008984E+01  9.947020463E+01  1.318611398E+03  1.328504649E+03  1.250000000E+02  0.00000E+00  9.000E+00
      25     1     1     2     0     0 -1.109358229E+01 -7.726929267E+01  8.751502628E+01  1.713986318E+02  1.250000000E+02  0.00000E+00  9.000E+00
      21     1     1     2   502   512  3.696367212E+01 -2.220091196E+01  7.183444989E+01  8.378175064E+01  9.536743164E-07  0.00000E+00  9.000E+00
#rwgt            1           1   3.5062822966734027E-002           5      250149           0
</event>
<event>
      5   9999  3.19816E-02  4.29168E+01 -1.00000E+00  1.42970E-01
      21    -1     0     0   502   511  0.000000000E+00  0.000000000E+00  2.760453336E+02  2.760453336E+02  0.000000000E+00  0.00000E+00  9.000E+00
      21    -1     0     0   501   502  0.000000000E+00  0.000000000E+00 -2.275782263E+03  2.275782263E+03  0.000000000E+00  0.00000E+00  9.000E+00
      25     1     1     2     0     0  6.409187142E+01 -7.187103975E+02 -9.435387847E+02  1.194379689E+03  1.250000000E+02  0.00000E+00  9.000E+00
      25     1     1     2     0     0 -3.318505075E+01  7.484865502E+02 -1.070151716E+03  1.312319724E+03  1.250000000E+02  0.00000E+00  9.000E+00
      21     1     1     2   501   511 -3.090682067E+01 -2.977615274E+01  1.395357073E+01  4.512818379E+01  7.539457465E-07  0.00000E+00  9.000E+00
#rwgt            1           1   2.8457594130279925E-002           5      250297           0
</event>
<event>
      5   9999  3.19816E-02  9.43067E+01 -1.00000E+00  1.24984E-01
      21    -1     0     0   512   501  0.000000000E+00  0.000000000E+00  2.063286218E+03  2.063286218E+03  0.000000000E+00  0.00000E+00  9.000E+00
      21    -1     0     0   501   502  0.000000000E+00  0.000000000E+00 -6.663301479E+01  6.663301479E+01  0.000000000E+00  0.00000E+00  9.000E+00
      25     1     1     2     0     0 -1.567922185E+02 -1.969984420E+02  1.013014491E+03  1.051292322E+03  1.250000000E+02  0.00000E+00  9.000E+00
      25     1     1     2     0     0  1.350565063E+02  2.887661650E+02  6.913790825E+02  7.715284789E+02  1.250000000E+02  0.00000E+00  9.000E+00
      21     1     1     2   512   502  2.173571223E+01 -9.176772299E+01  2.922596296E+02  3.070984326E+02  0.000000000E+00  0.00000E+00  9.000E+00
#rwgt            1           1   3.9334168267596573E-002           5      250455           0
</event>
<event>
      5   9999  3.19816E-02  5.44209E+01 -1.00000E+00  1.37008E-01
      21    -1     0     0   502   501  0.000000000E+00  0.000000000E+00  1.039653041E+02  1.039653041E+02  0.000000000E+00  0.00000E+00  9.000E+00
      21    -1     0     0   501   511  0.000000000E+00  0.000000000E+00 -6.868130100E+02  6.868130100E+02  0.000000000E+00  0.00000E+00  9.000E+00
      25     1     1     2     0     0  2.197146961E+02 -4.973997725E+01 -2.913078331E+02  3.888879872E+02  1.250000000E+02  0.00000E+00  9.000E+00
      25     1     1     2     0     0 -1.656610953E+02  4.342775053E+01 -1.813834006E+02  2.790242033E+02  1.250000000E+02  0.00000E+00  9.000E+00
      21     1     1     2   502   511 -5.405360081E+01  6.312226716E+00 -1.101564722E+02  1.228661236E+02  2.697398305E-06  0.00000E+00  9.000E+00
#rwgt            1           1   2.5923959305231028E-002           5      250553           0
</event>
<event>
      5   9999  3.19816E-02  4.03693E+01 -1.00000E+00  1.44593E-01
      21    -1     0     0   502   501  0.000000000E+00  0.000000000E+00  3.896647326E+02  3.896647326E+02  0.000000000E+00  0.00000E+00  9.000E+00
      21    -1     0     0   512   502  0.000000000E+00  0.000000000E+00 -7.977470581E+02  7.977470581E+02  0.000000000E+00  0.00000E+00  9.000E+00
      25     1     1     2     0     0 -1.143444776E+02 -3.765135071E+02  1.155551251E+02  4.287365946E+02  1.250000000E+02  0.00000E+00  9.000E+00
      25     1     1     2     0     0  8.533794638E+01  3.484368249E+02 -1.939684833E+02  4.265437358E+02  1.250000000E+02  0.00000E+00  9.000E+00
      21     1     1     2   512   501  2.900653123E+01  2.807668225E+01 -3.296689673E+02  3.321314604E+02  0.000000000E+00  0.00000E+00  9.000E+00
#rwgt            1           1   2.8307687343530993E-002           5      250613           0
</event>
<event>
      5   9999  3.19816E-02  1.35563E+01 -1.00000E+00  1.81627E-01
      21    -1     0     0   502   511  0.000000000E+00  0.000000000E+00  1.732394446E+03  1.732394446E+03  0.000000000E+00  0.00000E+00  9.000E+00
      21    -1     0     0   501   502  0.000000000E+00  0.000000000E+00 -3.485046931E+01  3.485046931E+01  0.000000000E+00  0.00000E+00  9.000E+00
      25     1     1     2     0     0 -1.244333700E+02  1.307453018E+01  2.580796071E+02  3.128652913E+02  1.250000000E+02  0.00000E+00  9.000E+00
      25     1     1     2     0     0  1.341069152E+02 -3.577421997E+00  1.143784910E+03  1.158389565E+03  1.250000000E+02  0.00000E+00  9.000E+00
      21     1     1     2   501   511 -9.673545239E+00 -9.497108178E+00  2.956794592E+02  2.959900591E+02  0.000000000E+00  0.00000E+00  9.000E+00
#rwgt            1           1   3.5120438088684605E-002           5      250756           0
</event>
<event>
      5   9999  3.19816E-02  8.15815E+01 -1.00000E+00  1.27939E-01
      21    -1     0     0   512   501  0.000000000E+00  0.000000000E+00  3.542945808E+02  3.542945808E+02  0.000000000E+00  0.00000E+00  9.000E+00
      21    -1     0     0   501   502  0.000000000E+00  0.000000000E+00 -1.205975942E+03  1.205975942E+03  0.000000000E+00  0.00000E+00  9.000E+00
      25     1     1     2     0     0 -2.288333200E+02  6.944173348E+01 -4.896778446E+02  5.591030623E+02  1.250000000E+02  0.00000E+00  9.000E+00
      25     1     1     2     0     0  2.950891318E+02 -2.184229331E+01 -6.374960697E+02  7.138493681E+02  1.250000000E+02  0.00000E+00  9.000E+00
      21     1     1     2   512   502 -6.625581176E+01 -4.759944017E+01  2.754925532E+02  2.873180923E+02  0.000000000E+00  0.00000E+00  9.000E+00
#rwgt            1           1   2.9528565884516279E-002           5      250907           0
</event>
<event>
      5   9999  3.19816E-02  1.00744E+01 -1.00000E+00  1.95386E-01
      21    -1     0     0   511   501  0.000000000E+00  0.000000000E+00  5.535450160E+02  5.535450160E+02  0.000000000E+00  0.00000E+00  9.000E+00
      21    -1     0     0   501   502  0.000000000E+00  0.000000000E+00 -9.889377085E+02  9.889377085E+02  0.000000000E+00  0.00000E+00  9.000E+00
      25     1     1     2     0     0  1.768106486E+02  5.599022978E+00 -7.488252285E+02  7.795239427E+02  1.250000000E+02  0.00000E+00  9.000E+00
      25     1     1     2     0     0 -1.868510523E+02 -4.771791770E+00 -1.684591074E+02  2.809618419E+02  1.250000000E+02  0.00000E+00  9.000E+00
      21     1     1     2   511   502  1.004040370E+01 -8.272312072E-01  4.818916434E+02  4.819969398E+02  0.000000000E+00  0.00000E+00  9.000E+00
#rwgt            2          11   2.1323580586201725E-003           5      251102           0
</event>
<event>
      5   9999  3.19816E-02  4.55824E+01 -1.00000E+00  1.41407E-01
      21    -1     0     0   502   501  0.000000000E+00  0.000000000E+00  1.386941223E+02  1.386941223E+02  0.000000000E+00  0.00000E+00  9.000E+00
      21    -1     0     0   512   502  0.000000000E+00  0.000000000E+00 -5.908376831E+02  5.908376831E+02  0.000000000E+00  0.00000E+00  9.000E+00
      25     1     1     2     0     0 -2.347119410E+02 -2.695772978E+01 -1.163840252E+02  2.915247087E+02  1.250000000E+02  0.00000E+00  9.000E+00
      25     1     1     2     0     0  1.998000237E+02 -2.349535213E+00 -2.808927887E+02  3.666760540E+02  1.250000000E+02  0.00000E+00  9.000E+00
      21     1     1     2   512   501  3.491191732E+01  2.930726499E+01 -5.486674683E+01  7.133104275E+01  9.536743164E-07  0.00000E+00  9.000E+00
#rwgt            1           1   2.3976567566431649E-002           5      251122           0
</event>
<event>
      5   9999  3.19816E-02  1.76391E+02 -1.00000E+00  1.13671E-01
      21    -1     0     0   502   501  0.000000000E+00  0.000000000E+00  2.358638301E+02  2.358638301E+02  0.000000000E+00  0.00000E+00  9.000E+00
       2    -1     0     0   501     0  0.000000000E+00  0.000000000E+00 -1.661326044E+03  1.661326044E+03  0.000000000E+00  0.00000E+00  9.000E+00
      25     1     1     2     0     0 -3.664911886E+02  1.622424153E+02 -9.503075762E+02  1.038916687E+03  1.250000000E+02  0.00000E+00  9.000E+00
      25     1     1     2     0     0  3.978490399E+02 -3.358235245E+02 -3.899596856E+02  6.623857294E+02  1.250000000E+02  0.00000E+00  9.000E+00
       2     1     1     2   502     0 -3.135785135E+01  1.735811092E+02 -8.519495217E+01  1.958874579E+02  3.303624740E-06  0.00000E+00  9.000E+00
#rwgt            1           1   2.8166137026153781E-002           5      251219           0
</event>
<event>
      5   9999  3.19816E-02  5.53371E+02 -1.00000E+00  9.76166E-02
      21    -1     0     0   502   501  0.000000000E+00  0.000000000E+00  1.480586494E+03  1.480586494E+03  0.000000000E+00  0.00000E+00  9.000E+00
       2    -1     0     0   501     0  0.000000000E+00  0.000000000E+00 -3.961750428E+03  3.961750428E+03  0.000000000E+00  0.00000E+00  9.000E+00
      25     1     1     2     0     0  5.218264966E+02  1.123044697E+03  8.423668283E+01  1.247498739E+03  1.250000000E+02  0.00000E+00  9.000E+00
      25     1     1     2     0     0 -1.074544884E+03 -1.149908455E+03 -3.066015521E+03  3.448624702E+03  1.250000000E+02  0.00000E+00  9.000E+00
       2     1     1     2   502     0  5.527183875E+02  2.686375753E+01  5.006149046E+02  7.462134815E+02  1.427329020E-05  0.00000E+00  9.000E+00
#rwgt            2          13   5.9905434486133482E-004           5      251284           0
</event>
<event>
      5   9999  3.19816E-02  6.17265E+01 -1.00000E+00  1.34048E-01
      21    -1     0     0   502   501  0.000000000E+00  0.000000000E+00  7.053670999E+02  7.053670999E+02  0.000000000E+00  0.00000E+00  9.000E+00
       3    -1     0     0   501     0  0.000000000E+00  0.000000000E+00 -7.005203370E+02  7.005203370E+02  0.000000000E+00  0.00000E+00  9.000E+00
      25     1     1     2     0     0  1.912799139E+02  1.151741333E+02  5.774356906E+02  6.315932736E+02  1.250000000E+02  0.00000E+00  9.000E+00
      25     1     1     2     0     0 -1.425300368E+02 -1.530371024E+02 -5.081550067E+01  2.488822637E+02  1.250000000E+02  0.00000E+00  9.000E+00
       3     1     1     2   502     0 -4.874987711E+01  3.786296904E+01 -5.217734271E+02  5.254118995E+02  1.078959322E-05  0.00000E+00  9.000E+00
#rwgt            1           1   2.9182025387536701E-002           5      251333           0
</event>
<event>
      5   9999  3.19816E-02  5.43265E+01 -1.00000E+00  1.37050E-01
      21    -1     0     0   502   511  0.000000000E+00  0.000000000E+00  2.928293756E+02  2.928293756E+02  0.000000000E+00  0.00000E+00  9.000E+00
      21    -1     0     0   501   502  0.000000000E+00  0.000000000E+00 -4.892550359E+02  4.892550359E+02  0.000000000E+00  0.00000E+00  9.000E+00
      25     1     1     2     0     0 -1.048480190E+01 -3.751889319E+00 -4.094806458E+02  4.282795898E+02  1.250000000E+02  0.00000E+00  9.000E+00
      25     1     1     2     0     0  3.197996432E+01 -4.614130668E+01  3.235646207E+00  1.370664354E+02  1.250000000E+02  0.00000E+00  9.000E+00
      21     1     1     2   501   511 -2.149516242E+01  4.989319600E+01  2.098193393E+02  2.167383864E+02  2.697398305E-06  0.00000E+00  9.000E+00
#rwgt            1           1   2.8268056617697841E-002           5      251460           0
</event>
<event>
      5   9999  3.19816E-02  1.83252E+02 -1.00000E+00  1.13048E-01
      21    -1     0     0   512   501  0.000000000E+00  0.000000000E+00  1.489084305E+02  1.489084305E+02  0.000000000E+00  0.00000E+00  9.000E+00
      21    -1     0     0   501   502  0.000000000E+00  0.000000000E+00 -4.988359412E+02  4.988359412E+02  0.000000000E+00  0.00000E+00  9.000E+00
      25     1     1     2     0     0 -1.995830872E+01  1.705925891E+02 -1.122834812E+02  2.402763944E+02  1.250000000E+02  0.00000E+00  9.000E+00
      25     1     1     2     0     0 -3.540445834E+01  4.096378859E+00 -1.657021674E+02  2.106002475E+02  1.250000000E+02  0.00000E+00  9.000E+00
      21     1     1     2   512   502  5.536276706E+01 -1.746889680E+02 -7.194186221E+01  1.968677298E+02  3.568322551E-06  0.00000E+00  9.000E+00
#rwgt            1           1   4.9066672842788928E-002           5      251537           0
</event>
<event>
      5   9999  3.19816E-02  1.09026E+02 -1.00000E+00  1.22163E-01
      21    -1     0     0   502   501  0.000000000E+00  0.000000000E+00  1.203879535E+03  1.203879535E+03  0.000000000E+00  0.00000E+00  9.000E+00
      21    -1     0     0   501   511  0.000000000E+00  0.000000000E+00 -8.984862252E+02  8.984862252E+02  0.000000000E+00  0.00000E+00  9.000E+00
      25     1     1     2     0     0 -1.118586357E+02  8.164913014E+02 -2.378059578E+02  8.668027879E+02  1.250000000E+02  0.00000E+00  9.000E+00
      25     1     1     2     0     0  7.203931229E+01 -9.179851713E+02  6.063373402E+02  1.109574877E+03  1.250000000E+02  0.00000E+00  9.000E+00
      21     1     1     2   502   511  3.981932344E+01  1.014938699E+02 -6.313807217E+01  1.259880959E+02  2.780414531E-06  0.00000E+00  9.000E+00
#rwgt            1           1   3.8462159223181483E-002           5      251577           0
</event>
<event>
      5   9999  3.19816E-02  2.29455E+02 -1.00000E+00  1.09518E-01
      21    -1     0     0   502   501  0.000000000E+00  0.000000000E+00  3.317833102E+02  3.317833102E+02  0.000000000E+00  0.00000E+00  9.000E+00
      21    -1     0     0   512   502  0.000000000E+00  0.000000000E+00 -5.708114204E+02  5.708114204E+02  0.000000000E+00  0.00000E+00  9.000E+00
      25     1     1     2     0     0  9.974612759E+00  3.175734511E+02  9.569535669E+01  3.545913014E+02  1.250000000E+02  0.00000E+00  9.000E+00
      25     1     1     2     0     0  1.007317101E+02 -1.165918907E+02 -1.101243589E+02  2.269205165E+02  1.250000000E+02  0.00000E+00  9.000E+00
      21     1     1     2   512   501 -1.107063228E+02 -2.009815604E+02 -2.245991080E+02  3.210829127E+02  3.814697266E-06  0.00000E+00  9.000E+00
#rwgt            1           1   3.2464507633063702E-002           5      251697           0
</event>
<event>
      5   9999  3.19816E-02  5.77942E+01 -1.00000E+00  1.35578E-01
      21    -1     0     0   502   511  0.000000000E+00  0.000000000E+00  1.909436971E+02  1.909436971E+02  0.000000000E+00  0.00000E+00  9.000E+00
      21    -1     0     0   501   502  0.000000000E+00  0.000000000E+00 -6.242518356E+02  6.242518356E+02  0.000000000E+00  0.00000E+00  9.000E+00
      25     1     1     2     0     0 -1.469426611E+02  1.832420761E+02 -3.640261468E+02  4.508989240E+02  1.250000000E+02  0.00000E+00  9.000E+00
      25     1     1     2     0     0  8.918420567E+01 -1.852748278E+02 -1.356943747E+02  2.762581178E+02  1.250000000E+02  0.00000E+00  9.000E+00
      21     1     1     2   501   511  5.775845541E+01  2.032751617E+00  6.641238302E+01  8.803849083E+01  9.536743164E-07  0.00000E+00  9.000E+00
#rwgt            1           1   2.8184321370545086E-002           5      251740           0
</event>
<event>
      5   9999  3.19816E-02  1.15159E+02 -1.00000E+00  1.21132E-01
      21    -1     0     0   502   501  0.000000000E+00  0.000000000E+00  1.370626105E+02  1.370626105E+02  0.000000000E+00  0.00000E+00  9.000E+00
       2    -1     0     0   501     0  0.000000000E+00  0.000000000E+00 -3.449337231E+03  3.449337231E+03  0.000000000E+00  0.00000E+00  9.000E+00
      25     1     1     2     0     0  1.257186971E+02 -6.386704924E+01  3.795668522E+01  1.922235697E+02  1.250000000E+02  0.00000E+00  9.000E+00
      25     1     1     2     0     0 -2.406663944E+02  7.083836477E+01 -9.327524433E+02  9.739561118E+02  1.250000000E+02  0.00000E+00  9.000E+00
       2     1     1     2   502     0  1.149476973E+02 -6.971315527E+00 -2.417478863E+03  2.420220160E+03  5.285799584E-05  0.00000E+00  9.000E+00
#rwgt            1           1   2.9344007219131593E-002           5      251778           0
</event>
<event>
      5   9999  3.19816E-02  1.43672E+02 -1.00000E+00  1.17140E-01
      21    -1     0     0   511   501  0.000000000E+00  0.000000000E+00  7.475414498E+02  7.475414498E+02  0.000000000E+00  0.00000E+00  9.000E+00
      21    -1     0     0   501   502  0.000000000E+00  0.000000000E+00 -1.540793300E+03  1.540793300E+03  0.000000000E+00  0.00000E+00  9.000E+00
      25     1     1     2     0     0 -7.173644999E+02  4.275702378E+02 -8.815604953E+02  1.220738318E+03  1.250000000E+02  0.00000E+00  9.000E+00
      25     1     1     2     0     0  5.747415731E+02 -4.449012705E+02 -1.836577658E+02  7.600132836E+02  1.250000000E+02  0.00000E+00  9.000E+00
      21     1     1     2   511   502  1.426229269E+02  1.733103272E+01  2.719664113E+02  3.075831479E+02  5.394796609E-06  0.00000E+00  9.000E+00
#rwgt            1           1   3.0737795525877788E-002           5      251842           0
</event>
<event>
      5   9999  3.19816E-02  4.09243E+02 -1.00000E+00  1.01388E-01
      21    -1     0     0   502   501  0.000000000E+00  0.000000000E+00  3.657366751E+02  3.657366751E+02  0.000000000E+00  0.00000E+00  9.000E+00
      21    -1     0     0   512   502  0.000000000E+00  0.000000000E+00 -1.881290038E+03  1.881290038E+03  0.000000000E+00  0.00000E+00  9.000E+00
      25     1     1     2     0     0  5.059524957E+02  1.902622341E+01 -1.245833210E+02  5.361864684E+02  1.250000000E+02  0.00000E+00  9.000E+00
      25     1     1     2     0     0 -1.684482739E+02 -2.504804245E+02 -7.844891711E+01  3.359977629E+02  1.250000000E+02  0.00000E+00  9.000E+00
      21     1     1     2   512   501 -3.375042218E+02  2.314542011E+02 -1.312521125E+03  1.374842482E+03  2.157918644E-05  0.00000E+00  9.000E+00
#rwgt            2          11   1.4454819612865764E-003           5      252238           0
</event>
<event>
      5   9999  3.19816E-02  7.41546E+02 -1.00000E+00  9.42209E-02
      21    -1     0     0   502   501  0.000000000E+00  0.000000000E+00  5.165550860E+02  5.165550860E+02  0.000000000E+00  0.00000E+00  9.000E+00
       2    -1     0     0   501     0  0.000000000E+00  0.000000000E+00 -2.388344558E+03  2.388344558E+03  0.000000000E+00  0.00000E+00  9.000E+00
      25     1     1     2     0     0 -7.455931498E+01  9.363715981E+01 -1.334828255E+03  1.346000921E+03  1.250000000E+02  0.00000E+00  9.000E+00
      25     1     1     2     0     0 -5.328718232E+02  3.317066197E+02 -5.074444186E+02  8.167658780E+02  1.250000000E+02  0.00000E+00  9.000E+00
       2     1     1     2   502     0  6.074311382E+02 -4.253437795E+02 -2.951679850E+01  7.421328451E+02  1.262493352E-05  0.00000E+00  9.000E+00
#rwgt            1           1   3.1026731185856110E-002           5      252258           0
</event>
<event>
      5   9999  3.19816E-02  1.17080E+02 -1.00000E+00  1.20824E-01
      21    -1     0     0   502   501  0.000000000E+00  0.000000000E+00  1.827695470E+02  1.827695470E+02  0.000000000E+00  0.00000E+00  9.000E+00
      21    -1     0     0   511   502  0.000000000E+00  0.000000000E+00 -2.499748552E+03  2.499748552E+03  0.000000000E+00  0.00000E+00  9.000E+00
      25     1     1     2     0     0  2.888335313E+02 -4.089644338E+02 -1.497417921E+03  1.583844104E+03  1.250000000E+02  0.00000E+00  9.000E+00
      25     1     1     2     0     0 -4.059128002E+02  4.092227462E+02 -5.571907677E+02  8.113661375E+02  1.250000000E+02  0.00000E+00  9.000E+00
      21     1     1     2   511   501  1.170792689E+02 -2.583124732E-01 -2.623703167E+02  2.873078575E+02  0.000000000E+00  0.00000E+00  9.000E+00
#rwgt            1           1   3.4602619337063621E-002           5      252295           0
</event>
<event>
      5   9999  3.19816E-02  1.34526E+02 -1.00000E+00  1.18299E-01
      21    -1     0     0   502   501  0.000000000E+00  0.000000000E+00  1.130444001E+03  1.130444001E+03  0.000000000E+00  0.00000E+00  9.000E+00
      21    -1     0     0   501   512  0.000000000E+00  0.000000000E+00 -7.370782082E+02  7.370782082E+02  0.000000000E+00  0.00000E+00  9.000E+00
      25     1     1     2     0     0 -9.569878225E+01  4.063332978E+02  3.490437092E+01  4.371593771E+02  1.250000000E+02  0.00000E+00  9.000E+00
      25     1     1     2     0     0  1.583157487E+02 -5.253981791E+02  7.947315952E+02  9.738225872E+02  1.250000000E+02  0.00000E+00  9.000E+00
      21     1     1     2   502   512 -6.261696645E+01  1.190648813E+02 -4.362701738E+02  4.565402446E+02  5.394796609E-06  0.00000E+00  9.000E+00
#rwgt            1           1   2.8658974200790929E-002           5      252396           0
</event>
<event>
      5   9999  3.41438E-02  2.96405E+01 -1.00000E+00  1.53404E-01
      21    -1     0     0   502   501  0.000000000E+00  0.000000000E+00  1.644420853E+01  1.644420853E+01  0.000000000E+00  0.00000E+00  9.000E+00
      21    -1     0     0   511   502  0.000000000E+00  0.000000000E+00 -2.143332171E+03  2.143332171E+03  0.000000000E+00  0.00000E+00  9.000E+00
      25     1     1     2     0     0  1.022198830E+02  2.027533596E+00 -1.272894677E+03  1.283097375E+03  1.250000000E+02  0.00000E+00  9.000E+00
      25     1     1     2     0     0 -8.045580500E+01  1.809419348E+01 -5.132907384E+02  5.346895534E+02  1.250000000E+02  0.00000E+00  9.000E+00
      21     1     1     2   511   501 -2.176407803E+01 -2.012172707E+01 -3.407025471E+02  3.419894510E+02  3.814697266E-06  0.00000E+00  9.000E+00
#rwgt            1           1  0.10394700980154868                5      252445           0
</event>
<event>
      5   9999  3.19816E-02  5.35029E+01 -1.00000E+00  1.37418E-01
      21    -1     0     0   502   501  0.000000000E+00  0.000000000E+00  1.402034732E+03  1.402034732E+03  0.000000000E+00  0.00000E+00  9.000E+00
       1    -1     0     0   501     0  0.000000000E+00  0.000000000E+00 -3.529112435E+02  3.529112435E+02  0.000000000E+00  0.00000E+00  9.000E+00
      25     1     1     2     0     0 -3.133745482E+02 -4.829766853E+02  4.784680821E+02  7.589642888E+02  1.250000000E+02  0.00000E+00  9.000E+00
      25     1     1     2     0     0  2.954558340E+02  5.333897883E+02  6.502100279E+02  9.001093803E+02  1.250000000E+02  0.00000E+00  9.000E+00
       1     1     1     2   502     0  1.791871421E+01 -5.041310300E+01 -7.955462170E+01  9.587230626E+01  9.536743164E-07  0.00000E+00  9.000E+00
#rwgt            1           1   2.9750521777362832E-002           5      252531           0
</event>
<event>
      5   9999  3.19816E-02  5.63428E+01 -1.00000E+00  1.36179E-01
      21    -1     0     0   511   501  0.000000000E+00  0.000000000E+00  2.585536560E+02  2.585536560E+02  0.000000000E+00  0.00000E+00  9.000E+00
      21    -1     0     0   501   502  0.000000000E+00  0.000000000E+00 -2.990869277E+02  2.990869277E+02  0.000000000E+00  0.00000E+00  9.000E+00
      25     1     1     2     0     0 -1.102620525E+02  7.470305219E+01  1.907466745E+01  1.836494192E+02  1.250000000E+02  0.00000E+00  9.000E+00
      25     1     1     2     0     0  1.195697266E+02 -1.913436717E+01 -1.742359631E+02  2.462645211E+02  1.250000000E+02  0.00000E+00  9.000E+00
      21     1     1     2   511   502 -9.307674143E+00 -5.556868502E+01  1.146280239E+02  1.277266433E+02  1.348699152E-06  0.00000E+00  9.000E+00
#rwgt            1           1   2.7117927261498143E-002           5      252677           0
</event>
<event>
      5   9999  3.19816E-02  8.23566E+01 -1.00000E+00  1.27742E-01
      -1    -1     0     0     0   501  0.000000000E+00  0.000000000E+00  2.496418857E+02  2.496418857E+02  0.000000000E+00  0.00000E+00  9.000E+00
      21    -1     0     0   501   502  0.000000000E+00  0.000000000E+00 -5.481302912E+02  5.481302912E+02  0.000000000E+00  0.00000E+00  9.000E+00
      25     1     1     2     0     0 -5.194655120E+01 -9.623170162E+01 -1.546529429E+02  2.269394574E+02  1.250000000E+02  0.00000E+00  9.000E+00
      25     1     1     2     0     0  1.095589053E+02  3.738080991E+01 -3.277139768E+02  3.693533935E+02  1.250000000E+02  0.00000E+00  9.000E+00
      -1     1     1     2     0   502 -5.761235408E+01  5.885089171E+01  1.838785142E+02  2.014793259E+02  2.697398305E-06  0.00000E+00  9.000E+00
#rwgt            1           1   3.1966953601664697E-002           5      252757           0
</event>
<event>
      5   9999  3.19816E-02  2.73543E+02 -1.00000E+00  1.06911E-01
      21    -1     0     0   502   501  0.000000000E+00  0.000000000E+00  9.162257694E+02  9.162257694E+02  0.000000000E+00  0.00000E+00  9.000E+00
      21    -1     0     0   501   511  0.000000000E+00  0.000000000E+00 -3.595562130E+02  3.595562130E+02  0.000000000E+00  0.00000E+00  9.000E+00
      25     1     1     2     0     0 -3.483694919E+02  3.981919261E+02  4.259897110E+02  6.906593566E+02  1.250000000E+02  0.00000E+00  9.000E+00
      25     1     1     2     0     0  2.156395602E+02 -1.590090409E+02  8.641988931E+01  3.080222269E+02  1.250000000E+02  0.00000E+00  9.000E+00
      21     1     1     2   502   511  1.327299317E+02 -2.391828853E+02  4.425995605E+01  2.771003989E+02  7.864199878E-06  0.00000E+00  9.000E+00
#rwgt            1           1   2.8646201556527959E-002           5      252805           0
</event>
<event>
      5   9999  3.19816E-02  8.73434E+01 -1.00000E+00  1.26530E-01
      21    -1     0     0   502   512  0.000000000E+00  0.000000000E+00  8.950503868E+02  8.950503868E+02  0.000000000E+00  0.00000E+00  9.000E+00
      21    -1     0     0   501   502  0.000000000E+00  0.000000000E+00 -7.742937421E+02  7.742937421E+02  0.000000000E+00  0.00000E+00  9.000E+00
      25     1     1     2     0     0  2.133946667E+02 -4.692855222E+02 -4.671377817E+02  7.068301721E+02  1.250000000E+02  0.00000E+00  9.000E+00
      25     1     1     2     0     0 -2.005824926E+02  5.556840738E+02  3.255711798E+02  6.860318647E+02  1.250000000E+02  0.00000E+00  9.000E+00
      21     1     1     2   501   512 -1.281217411E+01 -8.639855161E+01  2.623232465E+02  2.764820920E+02  5.394796609E-06  0.00000E+00  9.000E+00
#rwgt            1           1   2.2104133068572843E-002           5      252851           0
</event>
<event>
      5   9999  3.19816E-02  1.87895E+02 -1.00000E+00  1.12644E-01
      21    -1     0     0   502   501  0.000000000E+00  0.000000000E+00  6.106696263E+02  6.106696263E+02  0.000000000E+00  0.00000E+00  9.000E+00
      21    -1     0     0   501   511  0.000000000E+00  0.000000000E+00 -2.204147060E+02  2.204147060E+02  0.000000000E+00  0.00000E+00  9.000E+00
      25     1     1     2     0     0  3.091032299E+02  3.236402367E+01  1.692638593E+02  3.753231818E+02  1.250000000E+02  0.00000E+00  9.000E+00
      25     1     1     2     0     0 -1.471003316E+02  6.281821428E+01  1.591518074E+02  2.579514168E+02  1.250000000E+02  0.00000E+00  9.000E+00
      21     1     1     2   502   511 -1.620028983E+02 -9.518223796E+01  6.183925363E+01  1.978097337E+02  2.861022949E-06  0.00000E+00  9.000E+00
#rwgt            1           1   2.7438473638441215E-002           5      253003           0
</event>
<event>
      5   9999  3.19816E-02  7.77319E+01 -1.00000E+00  1.28957E-01
      21    -1     0     0   512   501  0.000000000E+00  0.000000000E+00  5.225299798E+02  5.225299798E+02  0.000000000E+00  0.00000E+00  9.000E+00
      21    -1     0     0   501   502  0.000000000E+00  0.000000000E+00 -8.014156296E+02  8.014156296E+02  0.000000000E+00  0.00000E+00  9.000E+00
      25     1     1     2     0     0 -5.450937040E+01  2.656660429E+02 -4.832637747E+02  5.680832631E+02  1.250000000E+02  0.00000E+00  9.000E+00
      25     1     1     2     0     0 -2.292907836E+01 -2.724144610E+02 -1.888667708E+02  3.550085045E+02  1.250000000E+02  0.00000E+00  9.000E+00
      21     1     1     2   512   502  7.743844876E+01  6.748418040E+00  3.932448957E+02  4.008538418E+02  0.000000000E+00  0.00000E+00  9.000E+00
#rwgt            1           1   2.2928093733407248E-002           5      253053           0
</event>
<event>
      5   9999  3.19816E-02  2.79348E+01 -1.00000E+00  1.55223E-01
      21    -1     0     0   502   511  0.000000000E+00  0.000000000E+00  8.000508010E+02  8.000508010E+02  0.000000000E+00  0.00000E+00  9.000E+00
      21    -1     0     0   501   502  0.000000000E+00  0.000000000E+00 -5.680894418E+02  5.680894418E+02  0.000000000E+00  0.00000E+00  9.000E+00
      25     1     1     2     0     0  4.143886347E+02 -3.090996680E+02  3.518889303E+02  6.377392606E+02  1.250000000E+02  0.00000E+00  9.000E+00
      25     1     1     2     0     0 -4.167989677E+02  2.812690920E+02 -2.654856009E+02  5.821866418E+02  1.250000000E+02  0.00000E+00  9.000E+00
      21     1     1     2   501   511  2.410333070E+00  2.783057596E+01  1.455580298E+02  1.482143404E+02  2.697398305E-06  0.00000E+00  9.000E+00
#rwgt            1           1   3.3801854087813110E-002           5      253111           0
</event>
<event>
      5   9999  3.19816E-02  9.35877E+01 -1.00000E+00  1.25136E-01
      21    -1     0     0   502   501  0.000000000E+00  0.000000000E+00  5.195296826E+02  5.195296826E+02  0.000000000E+00  0.00000E+00  9.000E+00
      21    -1     0     0   512   502  0.000000000E+00  0.000000000E+00 -1.370015705E+03  1.370015705E+03  0.000000000E+00  0.00000E+00  9.000E+00
      25     1     1     2     0     0 -7.305059700E+02 -1.750734189E+02 -4.100176555E+02  8.648867857E+02  1.250000000E+02  0.00000E+00  9.000E+00
      25     1     1     2     0     0  7.599298905E+02  2.639153707E+02 -3.263754915E+02  8.770921974E+02  1.250000000E+02  0.00000E+00  9.000E+00
      21     1     1     2   512   501 -2.942392048E+01 -8.884195178E+01 -1.140928751E+02  1.475664042E+02  1.907348633E-06  0.00000E+00  9.000E+00
#rwgt            1           1   1.9423985629803270E-002           5      253413           0
</event>
<event>
      5   9999  3.19816E-02  4.06782E+02 -1.00000E+00  1.01466E-01
      21    -1     0     0   502   501  0.000000000E+00  0.000000000E+00  8.258748525E+02  8.258748525E+02  0.000000000E+00  0.00000E+00  9.000E+00
      21    -1     0     0   501   511  0.000000000E+00  0.000000000E+00 -8.624386748E+02  8.624386748E+02  0.000000000E+00  0.00000E+00  9.000E+00
      25     1     1     2     0     0 -2.593550676E+02 -2.179411113E+02  3.601363726E+02  5.099868488E+02  1.250000000E+02  0.00000E+00  9.000E+00
      25     1     1     2     0     0 -1.053358795E+01 -8.641398553E+01  3.199023875E+02  3.543174719E+02  1.250000000E+02  0.00000E+00  9.000E+00
      21     1     1     2   502   511  2.698886556E+02  3.043550969E+02 -7.166025824E+02  8.240092065E+02  0.000000000E+00  0.00000E+00  9.000E+00
#rwgt            2          11   4.9432384711566149E-002           5      253571           0
</event>
<event>
      5   9999  3.19816E-02  1.60298E+02 -1.00000E+00  1.15262E-01
      21    -1     0     0   502   512  0.000000000E+00  0.000000000E+00  8.692257473E+02  8.692257473E+02  0.000000000E+00  0.00000E+00  9.000E+00
      21    -1     0     0   501   502  0.000000000E+00  0.000000000E+00 -1.298800109E+03  1.298800109E+03  0.000000000E+00  0.00000E+00  9.000E+00
      25     1     1     2     0     0 -3.973894347E+02  6.937328624E+02 -6.527449382E+02  1.039656002E+03  1.250000000E+02  0.00000E+00  9.000E+00
      25     1     1     2     0     0  3.656917569E+02 -5.366002489E+02 -1.876429302E+02  6.873901058E+02  1.250000000E+02  0.00000E+00  9.000E+00
      21     1     1     2   501   512  3.169767781E+01 -1.571326135E+02  4.108135071E+02  4.409797486E+02  5.394796609E-06  0.00000E+00  9.000E+00
#rwgt            1           1   3.0714347858097429E-002           5      253591           0
</event>
<event>
      5   9999  3.19816E-02  1.25975E+01 -1.00000E+00  1.84836E-01
       2    -1     0     0   502     0  0.000000000E+00  0.000000000E+00  1.971459526E+03  1.971459526E+03  0.000000000E+00  0.00000E+00  9.000E+00
      21    -1     0     0   501   502  0.000000000E+00  0.000000000E+00 -6.194990428E+01  6.194990428E+01  0.000000000E+00  0.00000E+00  9.000E+00
      25     1     1     2     0     0  4.774307003E+01  1.792365159E+02  4.915443792E+02  5.400425966E+02  1.250000000E+02  0.00000E+00  9.000E+00
      25     1     1     2     0     0 -6.026815956E+01 -1.778881457E+02  3.001883667E+02  3.755189728E+02  1.250000000E+02  0.00000E+00  9.000E+00
       2     1     1     2   501     0  1.252508953E+01 -1.348370221E+00  1.117776875E+03  1.117847860E+03  0.000000000E+00  0.00000E+00  9.000E+00
#rwgt            1           1   2.7662532145967703E-002           5      253651           0
</event>
<event>
      5   9999  3.19816E-02  8.00457E+01 -1.00000E+00  1.28337E-01
      21    -1     0     0   502   501  0.000000000E+00  0.000000000E+00  1.273902621E+03  1.273902621E+03  0.000000000E+00  0.00000E+00  9.000E+00
      21    -1     0     0   511   502  0.000000000E+00  0.000000000E+00 -7.548214564E+01  7.548214564E+01  0.000000000E+00  0.00000E+00  9.000E+00
      25     1     1     2     0     0  3.846925749E+01 -8.587038955E+01  1.696889166E+02  2.308093065E+02  1.250000000E+02  0.00000E+00  9.000E+00
      25     1     1     2     0     0 -1.676359032E+01  1.629169930E+02  1.017018272E+03  1.037677276E+03  1.250000000E+02  0.00000E+00  9.000E+00
      21     1     1     2   511   501 -2.170566717E+01 -7.704660347E+01  1.171328730E+01  8.089818411E+01  9.078709013E-07  0.00000E+00  9.000E+00
#rwgt            1           1   3.0254605784192593E-002           5      253821           0
</event>
<event>
      5   9999  3.19816E-02  3.80256E+01 -1.00000E+00  1.46217E-01
      21    -1     0     0   502   512  0.000000000E+00  0.000000000E+00  3.448117170E+02  3.448117170E+02  0.000000000E+00  0.00000E+00  9.000E+00
      21    -1     0     0   501   502  0.000000000E+00  0.000000000E+00 -2.636580616E+02  2.636580616E+02  0.000000000E+00  0.00000E+00  9.000E+00
      25     1     1     2     0     0 -1.061248448E+02 -5.071936121E+01 -1.883296986E+02  2.548097558E+02  1.250000000E+02  0.00000E+00  9.000E+00
      25     1     1     2     0     0  1.319466213E+02  2.280550900E+01  2.526651084E+02  3.120811739E+02  1.250000000E+02  0.00000E+00  9.000E+00
      21     1     1     2   501   512 -2.582177652E+01  2.791385221E+01  1.681824561E+01  4.157884887E+01  5.331201500E-07  0.00000E+00  9.000E+00
#rwgt            1           1   2.6273046851061969E-002           5      253855           0
</event>
<event>
      5   9999  3.19816E-02  9.92147E+01 -1.00000E+00  1.23982E-01
      21    -1     0     0   502   501  0.000000000E+00  0.000000000E+00  9.545559557E+02  9.545559557E+02  0.000000000E+00  0.00000E+00  9.000E+00
      -4    -1     0     0     0   502  0.000000000E+00  0.000000000E+00 -1.076465932E+03  1.076465932E+03  0.000000000E+00  0.00000E+00  9.000E+00
      25     1     1     2     0     0 -2.911502777E+02  5.438945477E+02  1.395508942E+02  6.447396493E+02  1.250000000E+02  0.00000E+00  9.000E+00
      25     1     1     2     0     0  2.534431215E+02 -4.521245331E+02  4.317153661E+02  6.860416654E+02  1.250000000E+02  0.00000E+00  9.000E+00
      -4     1     1     2     0   501  3.770715623E+01 -9.177001457E+01 -6.931762367E+02  7.002405732E+02  1.078959322E-05  0.00000E+00  9.000E+00
#rwgt            1           1   3.0391726150787890E-002           5      253953           0
</event>
<event>
      5   9999  3.19816E-02  7.09565E+01 -1.00000E+00  1.30923E-01
      21    -1     0     0   502   501  0.000000000E+00  0.000000000E+00  1.060285955E+03  1.060285955E+03  0.000000000E+00  0.00000E+00  9.000E+00
      21    -1     0     0   511   502  0.000000000E+00  0.000000000E+00 -5.345615617E+02  5.345615617E+02  0.000000000E+00  0.00000E+00  9.000E+00
      25     1     1     2     0     0 -5.859428038E+01  5.488751424E+02 -1.208579887E+02  5.787303907E+02  1.250000000E+02  0.00000E+00  9.000E+00
      25     1     1     2     0     0  5.455033489E+01 -6.197162947E+02  6.863858066E+02  9.347590601E+02  1.250000000E+02  0.00000E+00  9.000E+00
      21     1     1     2   511   501  4.043945491E+00  7.084115229E+01 -3.980342432E+01  8.135806623E+01  4.768371582E-07  0.00000E+00  9.000E+00
#rwgt            1           1   2.6915325431982370E-002           5      254037           0
</event>
<event>
      5   9999  3.19816E-02  2.02208E+02 -1.00000E+00  1.11475E-01
      21    -1     0     0   502   501  0.000000000E+00  0.000000000E+00  6.262749450E+02  6.262749450E+02  0.000000000E+00  0.00000E+00  9.000E+00
       2    -1     0     0   501     0  0.000000000E+00  0.000000000E+00 -1.978901918E+03  1.978901918E+03  0.000000000E+00  0.00000E+00  9.000E+00
      25     1     1     2     0     0  5.963902684E+02 -3.266531882E+02 -1.013433813E+03  1.226807544E+03  1.250000000E+02  0.00000E+00  9.000E+00
      25     1     1     2     0     0 -5.402055733E+02  5.208985171E+02  2.132355657E+02  7.900960277E+02  1.250000000E+02  0.00000E+00  9.000E+00
       2     1     1     2   502     0 -5.618469508E+01 -1.942453289E+02 -5.524287259E+02  5.882732911E+02  1.078959322E-05  0.00000E+00  9.000E+00
#rwgt            1           1   3.0027422742015648E-002           5      254151           0
</event>
<event>
      5   9999  3.19816E-02  3.92376E+01 -1.00000E+00  1.45360E-01
      21    -1     0     0   511   501  0.000000000E+00  0.000000000E+00  1.547290886E+02  1.547290886E+02  0.000000000E+00  0.00000E+00  9.000E+00
      21    -1     0     0   501   502  0.000000000E+00  0.000000000E+00 -8.021444187E+02  8.021444187E+02  0.000000000E+00  0.00000E+00  9.000E+00
      25     1     1     2     0     0 -8.956951118E+01  2.142288464E+02 -7.411895172E+01  2.739257472E+02  1.250000000E+02  0.00000E+00  9.000E+00
      25     1     1     2     0     0  5.033456856E+01 -2.146867588E+02 -5.885792389E+02  6.408388984E+02  1.250000000E+02  0.00000E+00  9.000E+00
      21     1     1     2   511   502  3.923494262E+01  4.579123469E-01  1.528286052E+01  4.210886168E+01  1.272806913E-06  0.00000E+00  9.000E+00
#rwgt            1           1   2.7859196067649767E-002           5      254222           0
</event>
<event>
      5   9999  3.19816E-02  7.00120E+00 -1.00000E+00  2.15543E-01
      21    -1     0     0   512   501  0.000000000E+00  0.000000000E+00  3.792049821E+01  3.792049821E+01  0.000000000E+00  0.00000E+00  9.000E+00
      21    -1     0     0   501   502  0.000000000E+00  0.000000000E+00 -1.787232556E+03  1.787232556E+03  0.000000000E+00  0.00000E+00  9.000E+00
      25     1     1     2     0     0  4.502686671E+01  1.621624999E+02 -3.537316973E+02  4.111875591E+02  1.250000000E+02  0.00000E+00  9.000E+00
      25     1     1     2     0     0 -3.816673838E+01 -1.635608458E+02 -1.387780112E+03  1.403484054E+03  1.250000000E+02  0.00000E+00  9.000E+00
      21     1     1     2   512   502 -6.860128337E+00  1.398345855E+00 -7.800248257E+00  1.048144097E+01  1.884864366E-07  0.00000E+00  9.000E+00
#rwgt            1           1   2.8763164745762196E-002           5      254340           0
</event>
<event>
      5   9999  3.19816E-02  9.40233E+01 -1.00000E+00  1.25044E-01
      21    -1     0     0   502   501  0.000000000E+00  0.000000000E+00  6.016419168E+02  6.016419168E+02  0.000000000E+00  0.00000E+00  9.000E+00
       2    -1     0     0   501     0  0.000000000E+00  0.000000000E+00 -1.240068526E+03  1.240068526E+03  0.000000000E+00  0.00000E+00  9.000E+00
      25     1     1     2     0     0 -1.905876309E+02 -1.973019598E+02  4.538532533E+02  5.448481292E+02  1.250000000E+02  0.00000E+00  9.000E+00
      25     1     1     2     0     0  2.691695787E+02  1.456758872E+02 -1.736516209E+02  3.734348827E+02  1.250000000E+02  0.00000E+00  9.000E+00
       2     1     1     2   502     0 -7.858194781E+01  5.162607268E+01 -9.186282420E+02  9.234274313E+02  0.000000000E+00  0.00000E+00  9.000E+00
#rwgt            1           1   2.7861628544734892E-002           5      254700           0
</event>
<event>
      5   9999  3.19816E-02  1.28028E+02 -1.00000E+00  1.19186E-01
       3    -1     0     0   502     0  0.000000000E+00  0.000000000E+00  6.612978252E+02  6.612978252E+02  0.000000000E+00  0.00000E+00  9.000E+00
      21    -1     0     0   501   502  0.000000000E+00  0.000000000E+00 -1.340507030E+02  1.340507030E+02  0.000000000E+00  0.00000E+00  9.000E+00
      25     1     1     2     0     0 -1.563532383E+02  2.265387878E+01  3.781432286E+02  4.284586733E+02  1.250000000E+02  0.00000E+00  9.000E+00
      25     1     1     2     0     0  5.181822401E+01 -9.657077860E+01 -5.282170908E+00  1.663248176E+02  1.250000000E+02  0.00000E+00  9.000E+00
       3     1     1     2   501     0  1.045350143E+02  7.391689982E+01  1.543860645E+02  2.005650373E+02  4.672030912E-06  0.00000E+00  9.000E+00
#rwgt            1           1   2.9459162255134029E-002           5      254765           0
</event>
<event>
      5   9999  3.19816E-02  2.72357E+01 -1.00000E+00  1.56014E-01
       1    -1     0     0   502     0  0.000000000E+00  0.000000000E+00  1.117806436E+03  1.117806436E+03  0.000000000E+00  0.00000E+00  9.000E+00
      21    -1     0     0   501   502  0.000000000E+00  0.000000000E+00 -2.445951410E+02  2.445951410E+02  0.000000000E+00  0.00000E+00  9.000E+00
      25     1     1     2     0     0  9.905381199E+01 -1.502622049E+02  3.856496951E+02  4.435550419E+02  1.250000000E+02  0.00000E+00  9.000E+00
      25     1     1     2     0     0 -8.787643256E+01  1.750986808E+02 -1.526572351E+02  2.780486411E+02  1.250000000E+02  0.00000E+00  9.000E+00
       1     1     1     2   501     0 -1.117737943E+01 -2.483647589E+01  6.402188350E+02  6.407978940E+02  7.629394531E-06  0.00000E+00  9.000E+00
#rwgt            1           1   2.9006705046017635E-002           5      254820           0
</event>
<event>
      5   9999  3.19816E-02  1.97513E+02 -1.00000E+00  1.11846E-01
       1    -1     0     0   502     0  0.000000000E+00  0.000000000E+00  2.081800377E+03  2.081800377E+03  0.000000000E+00  0.00000E+00  9.000E+00
      21    -1     0     0   501   502  0.000000000E+00  0.000000000E+00 -1.750038917E+02  1.750038917E+02  0.000000000E+00  0.00000E+00  9.000E+00
      25     1     1     2     0     0  7.361009368E+01  3.819129743E+02  1.984458299E+02  4.541824669E+02  1.250000000E+02  0.00000E+00  9.000E+00
      25     1     1     2     0     0  1.066264400E+02 -3.011275887E+02  1.355706327E+03  1.398431861E+03  1.250000000E+02  0.00000E+00  9.000E+00
       1     1     1     2   501     0 -1.802365337E+02 -8.078538566E+01  3.526443279E+02  4.041899413E+02  3.814697266E-06  0.00000E+00  9.000E+00
#rwgt            2          17   4.1256014362530817E-004           5      255003           0
</event>
<event>
      5   9999  3.19816E-02  3.73315E+01 -1.00000E+00  1.46725E-01
       1    -1     0     0   502     0  0.000000000E+00  0.000000000E+00  5.490312972E+02  5.490312972E+02  0.000000000E+00  0.00000E+00  9.000E+00
      21    -1     0     0   501   502  0.000000000E+00  0.000000000E+00 -6.208844975E+02  6.208844975E+02  0.000000000E+00  0.00000E+00  9.000E+00
      25     1     1     2     0     0  1.907750464E+02 -6.168971473E+01 -2.250183997E+02  3.262805840E+02  1.250000000E+02  0.00000E+00  9.000E+00
      25     1     1     2     0     0 -1.858275892E+02  9.869188074E+01 -3.009986559E+02  3.879396488E+02  1.250000000E+02  0.00000E+00  9.000E+00
       1     1     1     2   501     0 -4.947457204E+00 -3.700216601E+01  4.541638554E+02  4.556955619E+02  5.394796609E-06  0.00000E+00  9.000E+00
#rwgt            1           1   2.5652933439356318E-002           5      255037           0
</event>
<event>
      5   9999  3.19816E-02  3.96251E+01 -1.00000E+00  1.45094E-01
      21    -1     0     0   502   501  0.000000000E+00  0.000000000E+00  5.530653378E+02  5.530653378E+02  0.000000000E+00  0.00000E+00  9.000E+00
      21    -1     0     0   511   502  0.000000000E+00  0.000000000E+00 -2.989635359E+02  2.989635359E+02  0.000000000E+00  0.00000E+00  9.000E+00
      25     1     1     2     0     0  9.454305036E+01 -2.048876033E+02  4.249898716E+02  4.971505901E+02  1.250000000E+02  0.00000E+00  9.000E+00
      25     1     1     2     0     0 -6.406925033E+01  2.302154190E+02 -1.357719854E+02  3.019321778E+02  1.250000000E+02  0.00000E+00  9.000E+00
      21     1     1     2   511   501 -3.047380003E+01 -2.532781574E+01 -3.511608425E+01  5.294610572E+01  6.743495762E-07  0.00000E+00  9.000E+00
#rwgt            1           1   2.5424431321113997E-002           5      255144           0
</event>
<event>
      5   9999  3.19816E-02  3.47473E+01 -1.00000E+00  1.48737E-01
      21    -1     0     0   502   501  0.000000000E+00  0.000000000E+00  3.682364135E+02  3.682364135E+02  0.000000000E+00  0.00000E+00  9.000E+00
      21    -1     0     0   512   502  0.000000000E+00  0.000000000E+00 -3.554971282E+02  3.554971282E+02  0.000000000E+00  0.00000E+00  9.000E+00
      25     1     1     2     0     0  2.638956810E+02 -1.709511687E+02  1.185769231E+02  3.585397038E+02  1.250000000E+02  0.00000E+00  9.000E+00
      25     1     1     2     0     0 -2.473926990E+02  1.403730231E+02 -7.714532159E+01  3.201314320E+02  1.250000000E+02  0.00000E+00  9.000E+00
      21     1     1     2   512   501 -1.650298199E+01  3.057814567E+01 -2.869231633E+01  4.506240588E+01  6.743495762E-07  0.00000E+00  9.000E+00
#rwgt            1           1   3.0257935885688883E-002           5      255261           0
</event>
<event>
      5   9999  3.19816E-02  9.44521E+01 -1.00000E+00  1.24953E-01
      21    -1     0     0   502   501  0.000000000E+00  0.000000000E+00  3.267807819E+02  3.267807819E+02  0.000000000E+00  0.00000E+00  9.000E+00
      21    -1     0     0   501   511  0.000000000E+00  0.000000000E+00 -1.440745896E+03  1.440745896E+03  0.000000000E+00  0.00000E+00  9.000E+00
      25     1     1     2     0     0 -9.232211027E+01 -6.202632801E+00  7.283349141E+01  1.717310751E+02  1.250000000E+02  0.00000E+00  9.000E+00
      25     1     1     2     0     0  3.865012426E+01 -7.151818999E+01  1.754634160E+02  2.302630972E+02  1.250000000E+02  0.00000E+00  9.000E+00
      21     1     1     2   502   511  5.367198601E+01  7.772082279E+01 -1.362262021E+03  1.365532505E+03  1.525878906E-05  0.00000E+00  9.000E+00
#rwgt            1           1   5.1818455627644658E-002           5      255377           0
</event>
<event>
      5   9999  3.19816E-02  1.89347E+02 -1.00000E+00  1.12520E-01
      21    -1     0     0   512   501  0.000000000E+00  0.000000000E+00  4.056615663E+03  4.056615663E+03  0.000000000E+00  0.00000E+00  9.000E+00
      21    -1     0     0   501   502  0.000000000E+00  0.000000000E+00 -1.188727763E+02  1.188727763E+02  0.000000000E+00  0.00000E+00  9.000E+00
      25     1     1     2     0     0  1.267443672E+02  3.082432347E+02  3.458468690E+02  4.962993886E+02  1.250000000E+02  0.00000E+00  9.000E+00
      25     1     1     2     0     0 -2.838308219E+02 -4.139596101E+02  1.677082330E+03  1.755036363E+03  1.250000000E+02  0.00000E+00  9.000E+00
      21     1     1     2   512   502  1.570864547E+02  1.057163754E+02  1.914813688E+03  1.924152687E+03  3.051757812E-05  0.00000E+00  9.000E+00
#rwgt            2          11   1.7057678057571087E-004           5      255451           0
</event>
<event>
      5   9999  3.19816E-02  9.29298E+01 -1.00000E+00  1.25277E-01
      21    -1     0     0   502   511  0.000000000E+00  0.000000000E+00  3.565130300E+02  3.565130300E+02  0.000000000E+00  0.00000E+00  9.000E+00
      21    -1     0     0   501   502  0.000000000E+00  0.000000000E+00 -3.687326971E+02  3.687326971E+02  0.000000000E+00  0.00000E+00  9.000E+00
      25     1     1     2     0     0  7.186623430E+00 -2.590500289E+02 -4.002904836E+01  2.904924952E+02  1.250000000E+02  0.00000E+00  9.000E+00
      25     1     1     2     0     0  3.795977269E+01  1.778234507E+02 -1.267072569E+02  2.544442039E+02  1.250000000E+02  0.00000E+00  9.000E+00
      21     1     1     2   501   511 -4.514639612E+01  8.122657820E+01  1.545166381E+02  1.803090279E+02  0.000000000E+00  0.00000E+00  9.000E+00
#rwgt            1           1   3.1867923054467236E-002           5      255546           0
</event>
<event>
      5   9999  3.19816E-02  1.56630E+02 -1.00000E+00  1.15654E-01
      21    -1     0     0   502   501  0.000000000E+00  0.000000000E+00  1.362752071E+02  1.362752071E+02  0.000000000E+00  0.00000E+00  9.000E+00
      21    -1     0     0   512   502  0.000000000E+00  0.000000000E+00 -7.805797331E+02  7.805797331E+02  0.000000000E+00  0.00000E+00  9.000E+00
      25     1     1     2     0     0  1.380422426E+02 -1.516744094E+02 -4.014270276E+02  4.677920967E+02  1.250000000E+02  0.00000E+00  9.000E+00
      25     1     1     2     0     0  4.268242559E+00  8.624820351E+01  9.289147704E+00  1.522112308E+02  1.250000000E+02  0.00000E+00  9.000E+00
      21     1     1     2   512   501 -1.423104852E+02  6.542620590E+01 -2.521666461E+02  2.968516128E+02  6.031565972E-06  0.00000E+00  9.000E+00
#rwgt            1           1   2.8582011868909407E-002           5      255631           0
</event>
<event>
      5   9999  3.19816E-02  8.33384E+01 -1.00000E+00  1.27496E-01
      21    -1     0     0   502   511  0.000000000E+00  0.000000000E+00  1.659740745E+03  1.659740745E+03  0.000000000E+00  0.00000E+00  9.000E+00
      21    -1     0     0   501   502  0.000000000E+00  0.000000000E+00 -1.482680943E+02  1.482680943E+02  0.000000000E+00  0.00000E+00  9.000E+00
      25     1     1     2     0     0 -4.629278819E+01  2.954570137E+02  1.688854762E+02  3.654930550E+02  1.250000000E+02  0.00000E+00  9.000E+00
      25     1     1     2     0     0 -2.865343320E+01 -2.590105522E+02  3.855245308E+02  4.818315569E+02  1.250000000E+02  0.00000E+00  9.000E+00
      21     1     1     2   501   511  7.494622139E+01 -3.644646149E+01  9.570626442E+02  9.606842278E+02  0.000000000E+00  0.00000E+00  9.000E+00
#rwgt            1           1   2.4366085930914664E-002           5      255679           0
</event>
<event>
      5   9999  3.19816E-02  5.89750E+01 -1.00000E+00  1.35105E-01
      21    -1     0     0   502   512  0.000000000E+00  0.000000000E+00  9.755907793E+01  9.755907793E+01  0.000000000E+00  0.00000E+00  9.000E+00
      21    -1     0     0   501   502  0.000000000E+00  0.000000000E+00 -5.722828124E+02  5.722828124E+02  0.000000000E+00  0.00000E+00  9.000E+00
      25     1     1     2     0     0  9.712553536E+00  3.326828711E+01 -4.298492525E+02  4.489949804E+02  1.250000000E+02  0.00000E+00  9.000E+00
      25     1     1     2     0     0  2.537260334E+01 -8.067163363E+01 -7.663648113E+00  1.511139073E+02  1.250000000E+02  0.00000E+00  9.000E+00
      21     1     1     2   501   512 -3.508515687E+01  4.740334652E+01 -3.721083393E+01  6.973300263E+01  1.907348633E-06  0.00000E+00  9.000E+00
#rwgt            1           1   2.5497471695843148E-002           5      255743           0
</event>
<event>
      5   9999  3.19816E-02  1.39425E+02 -1.00000E+00  1.17666E-01
      21    -1     0     0   511   501  0.000000000E+00  0.000000000E+00  3.676043559E+02  3.676043559E+02  0.000000000E+00  0.00000E+00  9.000E+00
      21    -1     0     0   501   502  0.000000000E+00  0.000000000E+00 -1.415692642E+03  1.415692642E+03  0.000000000E+00  0.00000E+00  9.000E+00
      25     1     1     2     0     0 -2.351290984E+01  1.030987203E+02  1.388521524E+02  2.146791170E+02  1.250000000E+02  0.00000E+00  9.000E+00
      25     1     1     2     0     0  1.488247672E+01  3.605877074E+01 -1.348712387E+03  1.355054178E+03  1.250000000E+02  0.00000E+00  9.000E+00
      21     1     1     2   511   502  8.630433121E+00 -1.391574910E+02  1.617719486E+02  2.135637025E+02  1.907348633E-06  0.00000E+00  9.000E+00
#rwgt            1           1   2.8292904405669433E-002           5      255834           0
</event>
<event>
      5   9999  3.19816E-02  4.89790E+01 -1.00000E+00  1.39589E-01
      21    -1     0     0   502   501  0.000000000E+00  0.000000000E+00  9.702210303E+01  9.702210303E+01  0.000000000E+00  0.00000E+00  9.000E+00
      21    -1     0     0   512   502  0.000000000E+00  0.000000000E+00 -1.920960124E+03  1.920960124E+03  0.000000000E+00  0.00000E+00  9.000E+00
      25     1     1     2     0     0 -3.704537021E+01  1.705856025E+02 -4.461261706E+01  2.192876942E+02  1.250000000E+02  0.00000E+00  9.000E+00
      25     1     1     2     0     0 -1.094418182E+01 -1.607902988E+02 -1.594424420E+03  1.607416414E+03  1.250000000E+02  0.00000E+00  9.000E+00
      21     1     1     2   512   501  4.798955204E+01 -9.795303742E+00 -1.849009841E+02  1.912781195E+02  2.697398305E-06  0.00000E+00  9.000E+00
#rwgt            1           1   2.7908295346677575E-002           5      255870           0
</event>
<event>
      5   9999  3.19816E-02  3.54201E+01 -1.00000E+00  1.48193E-01
      21    -1     0     0   502   501  0.000000000E+00  0.000000000E+00  1.829336278E+02  1.829336278E+02  0.000000000E+00  0.00000E+00  9.000E+00
      21    -1     0     0   501   511  0.000000000E+00  0.000000000E+00 -3.831772314E+02  3.831772314E+02  0.000000000E+00  0.00000E+00  9.000E+00
      25     1     1     2     0     0 -4.995143582E+01  1.540896121E+02  4.829186090E+01  2.102281102E+02  1.250000000E+02  0.00000E+00  9.000E+00
      25     1     1     2     0     0  2.024439119E+01 -1.733788632E+02 -2.340714574E+02  3.176232245E+02  1.250000000E+02  0.00000E+00  9.000E+00
      21     1     1     2   502   511  2.970704464E+01  1.928925109E+01 -1.446400712E+01  3.825952444E+01  8.259061849E-07  0.00000E+00  9.000E+00
#rwgt            1           1   2.7803603466965747E-002           5      255958           0
</event>
<event>
      5   9999  3.19816E-02  1.39136E+02 -1.00000E+00  1.17703E-01
      21    -1     0     0   502   501  0.000000000E+00  0.000000000E+00  6.785022217E+01  6.785022217E+01  0.000000000E+00  0.00000E+00  9.000E+00
      21    -1     0     0   512   502  0.000000000E+00  0.000000000E+00 -1.797634044E+03  1.797634044E+03  0.000000000E+00  0.00000E+00  9.000E+00
      25     1     1     2     0     0  1.141846760E+02  3.002088429E+01 -3.953864070E+02  4.311551978E+02  1.250000000E+02  0.00000E+00  9.000E+00
      25     1     1     2     0     0 -1.250075408E+02 -1.687348339E+02 -2.836382453E+02  3.743981619E+02  1.250000000E+02  0.00000E+00  9.000E+00
      21     1     1     2   512   501  1.082286479E+01  1.387139496E+02 -1.050759170E+03  1.059930907E+03  1.525878906E-05  0.00000E+00  9.000E+00
#rwgt            1           1   3.0544768016846056E-002           5      256082           0
</event>
<event>
      5   9999  3.19816E-02  3.64305E+01 -1.00000E+00  1.47404E-01
      21    -1     0     0   502   511  0.000000000E+00  0.000000000E+00  1.122481427E+03  1.122481427E+03  0.000000000E+00  0.00000E+00  9.000E+00
      21    -1     0     0   501   502  0.000000000E+00  0.000000000E+00 -1.067330762E+02  1.067330762E+02  0.000000000E+00  0.00000E+00  9.000E+00
      25     1     1     2     0     0 -1.810346565E+02  2.296510307E+02  3.290760391E+02  4.576343325E+02  1.250000000E+02  0.00000E+00  9.000E+00
      25     1     1     2     0     0  1.967330417E+02 -1.967763728E+02  5.375212419E+02  6.180444289E+02  1.250000000E+02  0.00000E+00  9.000E+00
      21     1     1     2   501   511 -1.569838511E+01 -3.287465784E+01  1.491510701E+02  1.535357422E+02  1.907348633E-06  0.00000E+00  9.000E+00
#rwgt            1           1   3.1799125848732790E-002           5      256122           0
</event>
<event>
      5   9999  3.19816E-02  7.48318E+01 -1.00000E+00  1.29769E-01
      21    -1     0     0   502   501  0.000000000E+00  0.000000000E+00  4.497050507E+02  4.497050507E+02  0.000000000E+00  0.00000E+00  9.000E+00
      -1    -1     0     0     0   502  0.000000000E+00  0.000000000E+00 -1.402600325E+02  1.402600325E+02  0.000000000E+00  0.00000E+00  9.000E+00
      25     1     1     2     0     0 -8.508223732E+01  1.043988485E+02  2.445567973E+01  1.853677074E+02  1.250000000E+02  0.00000E+00  9.000E+00
      25     1     1     2     0     0  9.777264488E+01 -3.065100162E+01  2.873950180E+02  3.297269634E+02  1.250000000E+02  0.00000E+00  9.000E+00
      -1     1     1     2     0   501 -1.269040757E+01 -7.374784689E+01 -2.405679506E+00  7.487041244E+01  1.518749274E-06  0.00000E+00  9.000E+00
#rwgt            1           1   3.1452906243817060E-002           5      256265           0
</event>
<event>
      5   9999  3.19816E-02  3.07308E+01 -1.00000E+00  1.52317E-01
      21    -1     0     0   502   501  0.000000000E+00  0.000000000E+00  8.742038782E+02  8.742038782E+02  0.000000000E+00  0.00000E+00  9.000E+00
      21    -1     0     0   501   511  0.000000000E+00  0.000000000E+00 -7.462597180E+01  7.462597180E+01  0.000000000E+00  0.00000E+00  9.000E+00
      25     1     1     2     0     0  1.884315437E+02  5.230757038E+00  3.252623156E+02  3.961746855E+02  1.250000000E+02  0.00000E+00  9.000E+00
      25     1     1     2     0     0 -1.938833619E+02  2.501259388E+01  4.663831060E+02  5.209170658E+02  1.250000000E+02  0.00000E+00  9.000E+00
      21     1     1     2   502   511  5.451818132E+00 -3.024335092E+01  7.932484822E+00  3.173809874E+01  6.364034565E-07  0.00000E+00  9.000E+00
#rwgt            1           1   3.0263390536889475E-002           5      256380           0
</event>
<event>
      5   9999  3.19816E-02  6.54453E+01 -1.00000E+00  1.32718E-01
      21    -1     0     0   512   501  0.000000000E+00  0.000000000E+00  5.551580343E+02  5.551580343E+02  0.000000000E+00  0.00000E+00  9.000E+00
      21    -1     0     0   501   502  0.000000000E+00  0.000000000E+00 -4.654045739E+02  4.654045739E+02  0.000000000E+00  0.00000E+00  9.000E+00
      25     1     1     2     0     0  2.300078105E+02 -2.238961518E+02  2.942890847E+02  4.530608625E+02  1.250000000E+02  0.00000E+00  9.000E+00
      25     1     1     2     0     0 -2.888515773E+02  1.952517933E+02 -2.824187795E+02  4.657723301E+02  1.250000000E+02  0.00000E+00  9.000E+00
      21     1     1     2   512   502  5.884376676E+01  2.864435848E+01  7.788315507E+01  1.017294156E+02  0.000000000E+00  0.00000E+00  9.000E+00
#rwgt            1           1   2.9031130871093155E-002           5      256507           0
</event>
<event>
      5   9999  3.19816E-02  2.70019E+02 -1.00000E+00  1.07099E-01
      21    -1     0     0   502   501  0.000000000E+00  0.000000000E+00  3.062243493E+02  3.062243493E+02  0.000000000E+00  0.00000E+00  9.000E+00
       2    -1     0     0   501     0  0.000000000E+00  0.000000000E+00 -1.349281784E+03  1.349281784E+03  0.000000000E+00  0.00000E+00  9.000E+00
      25     1     1     2     0     0  3.566226666E+02 -2.790721178E+02 -1.395562115E+02  4.900631689E+02  1.250000000E+02  0.00000E+00  9.000E+00
      25     1     1     2     0     0 -9.218785247E+01  2.244435679E+02 -5.957235502E+01  2.793696132E+02  1.250000000E+02  0.00000E+00  9.000E+00
       2     1     1     2   502     0 -2.644348141E+02  5.462854997E+01 -8.439288683E+02  8.860733515E+02  0.000000000E+00  0.00000E+00  9.000E+00
#rwgt            1           1   2.8750583091216010E-002           5      256678           0
</event>
<event>
      5   9999  3.19816E-02  7.36728E+02 -1.00000E+00  9.42939E-02
      -2    -1     0     0     0   501  0.000000000E+00  0.000000000E+00  2.808669290E+02  2.808669290E+02  0.000000000E+00  0.00000E+00  9.000E+00
      21    -1     0     0   501   502  0.000000000E+00  0.000000000E+00 -2.753752365E+03  2.753752365E+03  0.000000000E+00  0.00000E+00  9.000E+00
      25     1     1     2     0     0  2.861365090E+02 -9.776705730E+01 -7.683320816E+02  8.350998066E+02  1.250000000E+02  0.00000E+00  9.000E+00
      25     1     1     2     0     0  3.374281941E+02  4.901134010E+02 -1.053359512E+03  1.216248410E+03  1.250000000E+02  0.00000E+00  9.000E+00
      -2     1     1     2     0   502 -6.235647031E+02 -3.923463437E+02 -6.511938424E+02  9.832710780E+02  1.525878906E-05  0.00000E+00  9.000E+00
#rwgt            2           4   3.9931941796238138E-005           5      256932           0
</event>
<event>
      5   9999  3.19816E-02  1.75139E+01 -1.00000E+00  1.71270E-01
      21    -1     0     0   502   511  0.000000000E+00  0.000000000E+00  3.555726456E+02  3.555726456E+02  0.000000000E+00  0.00000E+00  9.000E+00
      21    -1     0     0   501   502  0.000000000E+00  0.000000000E+00 -1.096715266E+03  1.096715266E+03  0.000000000E+00  0.00000E+00  9.000E+00
      25     1     1     2     0     0  3.361810312E+02  1.284086524E+02  4.431928633E+01  3.835305293E+02  1.250000000E+02  0.00000E+00  9.000E+00
      25     1     1     2     0     0 -3.198982099E+02 -1.219582784E+02 -8.905375138E+02  9.622321704E+02  1.250000000E+02  0.00000E+00  9.000E+00
      21     1     1     2   501   511 -1.628282132E+01 -6.450373991E+00  1.050756070E+02  1.065252119E+02  1.348699152E-06  0.00000E+00  9.000E+00
#rwgt            1           1   2.7095138560525200E-002           5      256951           0
</event>
<event>
      5   9999  3.19816E-02  4.61066E+01 -1.00000E+00  1.41115E-01
      21    -1     0     0   512   501  0.000000000E+00  0.000000000E+00  2.194367230E+02  2.194367230E+02  0.000000000E+00  0.00000E+00  9.000E+00
      21    -1     0     0   501   502  0.000000000E+00  0.000000000E+00 -4.469388727E+02  4.469388727E+02  0.000000000E+00  0.00000E+00  9.000E+00
      25     1     1     2     0     0  1.621980707E+02 -1.097964685E+02 -3.283875616E+02  4.022771051E+02  1.250000000E+02  0.00000E+00  9.000E+00
      25     1     1     2     0     0 -1.174452562E+02  9.870583020E+01  8.430492093E+01  2.151012525E+02  1.250000000E+02  0.00000E+00  9.000E+00
      21     1     1     2   512   502 -4.475281453E+01  1.109063834E+01  1.658049095E+01  4.899723816E+01  7.907449699E-07  0.00000E+00  9.000E+00
#rwgt            2          11   2.4015710231901073E-003           5      257158           0
</event>
<event>
      5   9999  3.19816E-02  8.37113E+01 -1.00000E+00  1.27403E-01
       2    -1     0     0   502     0  0.000000000E+00  0.000000000E+00  1.597644529E+03  1.597644529E+03  0.000000000E+00  0.00000E+00  9.000E+00
      21    -1     0     0   501   502  0.000000000E+00  0.000000000E+00 -1.509133832E+02  1.509133832E+02  0.000000000E+00  0.00000E+00  9.000E+00
      25     1     1     2     0     0 -4.487136220E+01  1.346028570E+02  7.525717280E+02  7.759642866E+02  1.250000000E+02  0.00000E+00  9.000E+00
      25     1     1     2     0     0  8.276859987E+01 -5.996120371E+01 -8.940857543E+01  1.845667371E+02  1.250000000E+02  0.00000E+00  9.000E+00
       2     1     1     2   501     0 -3.789723768E+01 -7.464165331E+01  7.835679928E+02  7.880268881E+02  1.078959322E-05  0.00000E+00  9.000E+00
#rwgt            2          18   7.6518619550090610E-004           5      257373           0
</event>
<event>
      5   9999  3.19816E-02  3.12122E+01 -1.00000E+00  1.51854E-01
      21    -1     0     0   502   501  0.000000000E+00  0.000000000E+00  2.701322512E+02  2.701322512E+02  0.000000000E+00  0.00000E+00  9.000E+00
      21    -1     0     0   501   511  0.000000000E+00  0.000000000E+00 -8.428556387E+02  8.428556387E+02  0.000000000E+00  0.00000E+00  9.000E+00
      25     1     1     2     0     0 -1.909553685E+01  8.762515443E+01 -4.793572102E+02  5.034393133E+02  1.250000000E+02  0.00000E+00  9.000E+00
      25     1     1     2     0     0  1.452247242E+01 -5.674977350E+01  2.388482146E+02  2.758711812E+02  1.250000000E+02  0.00000E+00  9.000E+00
      21     1     1     2   502   511  4.573064434E+00 -3.087538093E+01 -3.322143918E+02  3.336773954E+02  0.000000000E+00  0.00000E+00  9.000E+00
#rwgt            1           1   2.5874161932577237E-002           5      257407           0
</event>
<event>
      5   9999  3.19816E-02  9.94817E+01 -1.00000E+00  1.23930E-01
      21    -1     0     0   502   501  0.000000000E+00  0.000000000E+00  8.752528653E+01  8.752528653E+01  0.000000000E+00  0.00000E+00  9.000E+00
       2    -1     0     0   501     0  0.000000000E+00  0.000000000E+00 -1.196309776E+03  1.196309776E+03  0.000000000E+00  0.00000E+00  9.000E+00
      25     1     1     2     0     0 -5.672269856E+01 -8.519154471E+01 -1.306906944E+02  2.077982710E+02  1.250000000E+02  0.00000E+00  9.000E+00
      25     1     1     2     0     0  1.561842432E+02  8.319101811E+01 -2.106764850E+02  3.021983531E+02  1.250000000E+02  0.00000E+00  9.000E+00
       2     1     1     2   502     0 -9.946154460E+01  2.000526606E+00 -7.674173097E+02  7.738384380E+02  1.078959322E-05  0.00000E+00  9.000E+00
#rwgt            1           1   2.4843830047286086E-002           5      257549           0
</event>
<event>
      5   9999  3.19816E-02  1.00717E+02 -1.00000E+00  1.23689E-01
      21    -1     0     0   502   511  0.000000000E+00  0.000000000E+00  6.115746627E+02  6.115746627E+02  0.000000000E+00  0.00000E+00  9.000E+00
      21    -1     0     0   501   502  0.000000000E+00  0.000000000E+00 -1.628394960E+02  1.628394960E+02  0.000000000E+00  0.00000E+00  9.000E+00
      25     1     1     2     0     0  7.903653327E+01  9.523090861E+01 -1.523907783E+01  1.765585711E+02  1.250000000E+02  0.00000E+00  9.000E+00
      25     1     1     2     0     0 -1.615006549E+02 -1.530540262E+02  2.317585366E+02  3.447390546E+02  1.250000000E+02  0.00000E+00  9.000E+00
      21     1     1     2   501   511  8.246412162E+01  5.782311757E+01  2.322157079E+02  2.531165330E+02  2.697398305E-06  0.00000E+00  9.000E+00
#rwgt            1           1   2.6108120361611510E-002           5      257594           0
</event>
<event>
      5   9999  3.19816E-02  5.39563E+02 -1.00000E+00  9.79215E-02
       1    -1     0     0   502     0  0.000000000E+00  0.000000000E+00  1.856857453E+03  1.856857453E+03  0.000000000E+00  0.00000E+00  9.000E+00
      21    -1     0     0   501   502  0.000000000E+00  0.000000000E+00 -8.154919572E+02  8.154919572E+02  0.000000000E+00  0.00000E+00  9.000E+00
      25     1     1     2     0     0  9.931476026E+01  6.948848287E+02 -1.397024829E+02  7.265467160E+02  1.250000000E+02  0.00000E+00  9.000E+00
      25     1     1     2     0     0  4.168957116E+02 -5.378653475E+02  5.129626662E+01  6.937993034E+02  1.250000000E+02  0.00000E+00  9.000E+00
       1     1     1     2   501     0 -5.162104719E+02 -1.570194812E+02  1.129771712E+03  1.252003390E+03  2.642899792E-05  0.00000E+00  9.000E+00
#rwgt            2          17   6.1877780078769965E-004           5      257712           0
</event>
<event>
      5   9999  3.19816E-02  3.52861E+01 -1.00000E+00  1.48300E-01
      21    -1     0     0   502   501  0.000000000E+00  0.000000000E+00  5.226569856E+02  5.226569856E+02  0.000000000E+00  0.00000E+00  9.000E+00
      21    -1     0     0   511   502  0.000000000E+00  0.000000000E+00 -2.422852235E+02  2.422852235E+02  0.000000000E+00  0.00000E+00  9.000E+00
      25     1     1     2     0     0 -7.471638055E+01  2.725713422E+02  2.386576570E+02  3.904614595E+02  1.250000000E+02  0.00000E+00  9.000E+00
      25     1     1     2     0     0  4.292563738E+01 -2.878834004E+02  7.548144359E+01  3.256407697E+02  1.250000000E+02  0.00000E+00  9.000E+00
      21     1     1     2   511   501  3.179074318E+01  1.531205828E+01 -3.376733851E+01  4.883997984E+01  4.768371582E-07  0.00000E+00  9.000E+00
#rwgt            1           1   2.6600159723125721E-002           5      257731           0
</event>
<event>
      5   9999  3.19816E-02  1.64067E+01 -1.00000E+00  1.73793E-01
      21    -1     0     0   512   501  0.000000000E+00  0.000000000E+00  1.340756565E+03  1.340756565E+03  0.000000000E+00  0.00000E+00  9.000E+00
      21    -1     0     0   501   502  0.000000000E+00  0.000000000E+00 -2.468639280E+02  2.468639280E+02  0.000000000E+00  0.00000E+00  9.000E+00
      25     1     1     2     0     0  1.958108318E+02  4.094220404E+02  9.598284513E+02  1.069048149E+03  1.250000000E+02  0.00000E+00  9.000E+00
      25     1     1     2     0     0 -1.812420642E+02 -4.169672071E+02  1.018178539E+02  4.823921776E+02  1.250000000E+02  0.00000E+00  9.000E+00
      21     1     1     2   512   502 -1.456876752E+01  7.545166651E+00  3.224633206E+01  3.618016664E+01  4.768371582E-07  0.00000E+00  9.000E+00
#rwgt            1           1   2.9389063752418672E-002           5      257813           0
</event>
<event>
      5   9999  3.47794E-02  5.33494E+01 -1.00000E+00  1.37488E-01
       2    -1     0     0   502     0  0.000000000E+00  0.000000000E+00  5.061176590E+02  5.061176590E+02  0.000000000E+00  0.00000E+00  9.000E+00
      21    -1     0     0   501   502  0.000000000E+00  0.000000000E+00 -4.233270051E+02  4.233270051E+02  0.000000000E+00  0.00000E+00  9.000E+00
      25     1     1     2     0     0 -1.734715708E+02  7.293594261E+00 -3.667288994E+02  4.245711578E+02  1.250000000E+02  0.00000E+00  9.000E+00
      25     1     1     2     0     0  1.205710345E+02 -3.873227762E-01  3.073666461E+02  3.530393456E+02  1.250000000E+02  0.00000E+00  9.000E+00
       2     1     1     2   501     0  5.290053626E+01 -6.906271485E+00  1.421529073E+02  1.518341607E+02  0.000000000E+00  0.00000E+00  9.000E+00
#rwgt            1           1   3.4792512116754715E-002           5      258023           0
</event>
<event>
      5   9999  3.19816E-02  7.05931E+01 -1.00000E+00  1.31035E-01
      21    -1     0     0   502   501  0.000000000E+00  0.000000000E+00  2.250256844E+02  2.250256844E+02  0.000000000E+00  0.00000E+00  9.000E+00
      21    -1     0     0   511   502  0.000000000E+00  0.000000000E+00 -3.862398751E+02  3.862398751E+02  0.000000000E+00  0.00000E+00  9.000E+00
      25     1     1     2     0     0 -5.569016408E+01 -1.456262728E+02 -1.201428126E+02  2.331688253E+02  1.250000000E+02  0.00000E+00  9.000E+00
      25     1     1     2     0     0  5.455212045E+01  7.504234615E+01  1.237054656E+02  1.988349310E+02  1.250000000E+02  0.00000E+00  9.000E+00
      21     1     1     2   511   501  1.138043625E+00  7.058392661E+01 -1.647768437E+02  1.792618031E+02  1.907348633E-06  0.00000E+00  9.000E+00
#rwgt            1           1   2.5455172219355754E-002           5      258185           0
</event>
<event>
      5   9999  3.19816E-02  3.81549E+02 -1.00000E+00  1.02306E-01
      21    -1     0     0   502   501  0.000000000E+00  0.000000000E+00  3.025736428E+02  3.025736428E+02  0.000000000E+00  0.00000E+00  9.000E+00
       4    -1     0     0   501     0  0.000000000E+00  0.000000000E+00 -6.717410654E+02  6.717410654E+02  0.000000000E+00  0.00000E+00  9.000E+00
      25     1     1     2     0     0 -1.903986203E+02  5.565682949E+01 -1.510137457E+02  2.788897070E+02  1.250000000E+02  0.00000E+00  9.000E+00
      25     1     1     2     0     0 -7.097632140E+01  2.223056599E+02 -1.999016373E+01  2.654845593E+02  1.250000000E+02  0.00000E+00  9.000E+00
       4     1     1     2   502     0  2.613749417E+02 -2.779624894E+02 -1.981635133E+02  4.299404419E+02  7.629394531E-06  0.00000E+00  9.000E+00
#rwgt            2          15   3.6078970869836120E-005           5      258298           0
</event>
<event>
      5   9999  3.19816E-02  9.76009E+01 -1.00000E+00  1.24304E-01
      21    -1     0     0   502   501  0.000000000E+00  0.000000000E+00  8.381780759E+02  8.381780759E+02  0.000000000E+00  0.00000E+00  9.000E+00
      21    -1     0     0   511   502  0.000000000E+00  0.000000000E+00 -2.898824685E+03  2.898824685E+03  0.000000000E+00  0.00000E+00  9.000E+00
      25     1     1     2     0     0 -1.408331856E+03 -2.693740716E+02 -1.163648973E+03  1.850855191E+03  1.250000000E+02  0.00000E+00  9.000E+00
      25     1     1     2     0     0  1.469752911E+03  1.935229297E+02 -6.555690359E+02  1.625736912E+03  1.250000000E+02  0.00000E+00  9.000E+00
      21     1     1     2   511   501 -6.142105579E+01  7.585114192E+01 -2.414286003E+02  2.604106581E+02  3.814697266E-06  0.00000E+00  9.000E+00
#rwgt            1           1   3.7972164395533893E-002           5      258332           0
</event>
<event>
      5   9999  3.19816E-02  3.81325E+01 -1.00000E+00  1.46140E-01
      21    -1     0     0   502   501  0.000000000E+00  0.000000000E+00  5.689562031E+02  5.689562031E+02  0.000000000E+00  0.00000E+00  9.000E+00
      21    -1     0     0   501   512  0.000000000E+00  0.000000000E+00 -2.424580332E+02  2.424580332E+02  0.000000000E+00  0.00000E+00  9.000E+00
      25     1     1     2     0     0 -2.476758880E+02  5.267686805E+01  3.672938151E+02  4.633011381E+02  1.250000000E+02  0.00000E+00  9.000E+00
      25     1     1     2     0     0  2.786907537E+02 -3.049207195E+01 -2.965919122E+01  3.083876947E+02  1.250000000E+02  0.00000E+00  9.000E+00
      21     1     1     2   502   512 -3.101486570E+01 -2.218479610E+01 -1.113645401E+01  3.972540346E+01  8.344650269E-07  0.00000E+00  9.000E+00
#rwgt            1           1   2.7255392059680954E-002           5      258408           0
</event>
<event>
      5   9999  3.19816E-02  7.02546E+01 -1.00000E+00  1.31141E-01
      21    -1     0     0   502   501  0.000000000E+00  0.000000000E+00  1.017933293E+03  1.017933293E+03  0.000000000E+00  0.00000E+00  9.000E+00
      21    -1     0     0   501   511  0.000000000E+00  0.000000000E+00 -2.990659984E+02  2.990659984E+02  0.000000000E+00  0.00000E+00  9.000E+00
      25     1     1     2     0     0 -2.054307313E+02  1.489323934E+02 -1.855850065E+01  2.834643913E+02  1.250000000E+02  0.00000E+00  9.000E+00
      25     1     1     2     0     0  2.661426339E+02 -1.842845149E+02  8.402016870E+02  9.090415605E+02  1.250000000E+02  0.00000E+00  9.000E+00
      21     1     1     2   502   511 -6.071190253E+01  3.535212145E+01 -1.027758919E+02  1.244933394E+02  3.015782986E-06  0.00000E+00  9.000E+00
#rwgt            1           1   2.8340233934764179E-002           5      258507           0
</event>
<event>
      5   9999  3.19816E-02  1.77346E+01 -1.00000E+00  1.70795E-01
      21    -1     0     0   512   501  0.000000000E+00  0.000000000E+00  8.630177786E+02  8.630177786E+02  0.000000000E+00  0.00000E+00  9.000E+00
      21    -1     0     0   501   502  0.000000000E+00  0.000000000E+00 -8.582531709E+01  8.582531709E+01  0.000000000E+00  0.00000E+00  9.000E+00
      25     1     1     2     0     0  7.990773338E+00  8.042978701E+01  7.261752167E+02  7.412747456E+02  1.250000000E+02  0.00000E+00  9.000E+00
      25     1     1     2     0     0 -9.583876326E+00 -9.809265510E+01  6.125100306E+00  1.593001460E+02  1.250000000E+02  0.00000E+00  9.000E+00
      21     1     1     2   512   502  1.593102987E+00  1.766286809E+01  4.489214455E+01  4.826820411E+01  9.536743164E-07  0.00000E+00  9.000E+00
#rwgt            1           1   3.0152733120503178E-002           5      258573           0
</event>
<event>
      5   9999  3.19816E-02  1.36208E+01 -1.00000E+00  1.81423E-01
      21    -1     0     0   502   501  0.000000000E+00  0.000000000E+00  1.302512496E+03  1.302512496E+03  0.000000000E+00  0.00000E+00  9.000E+00
      21    -1     0     0   511   502  0.000000000E+00  0.000000000E+00 -1.095959542E+02  1.095959542E+02  0.000000000E+00  0.00000E+00  9.000E+00
      25     1     1     2     0     0  8.436885635E+01  1.407039051E+02  1.194426485E+02  2.383426926E+02  1.250000000E+02  0.00000E+00  9.000E+00
      25     1     1     2     0     0 -7.556469717E+01 -1.303109231E+02  1.113971627E+03  1.131038791E+03  1.250000000E+02  0.00000E+00  9.000E+00
      21     1     1     2   511   501 -8.804159183E+00 -1.039298204E+01 -4.049773357E+01  4.272696711E+01  1.348699152E-06  0.00000E+00  9.000E+00
#rwgt            1           1   2.8590223879035918E-002           5      258792           0
</event>
<event>
      5   9999  3.19816E-02  2.86542E+01 -1.00000E+00  1.54437E-01
      21    -1     0     0   502   501  0.000000000E+00  0.000000000E+00  2.061315407E+03  2.061315407E+03  0.000000000E+00  0.00000E+00  9.000E+00
      21    -1     0     0   512   502  0.000000000E+00  0.000000000E+00 -1.405529182E+02  1.405529182E+02  0.000000000E+00  0.00000E+00  9.000E+00
      25     1     1     2     0     0  3.187903167E+02  2.751182908E+02  3.602955812E+02  5.681155215E+02  1.250000000E+02  0.00000E+00  9.000E+00
      25     1     1     2     0     0 -3.416707850E+02 -2.578687247E+02  1.520711083E+03  1.584746794E+03  1.250000000E+02  0.00000E+00  9.000E+00
      21     1     1     2   512   501  2.288046821E+01 -1.724956612E+01  3.975582479E+01  4.900600944E+01  6.743495762E-07  0.00000E+00  9.000E+00
#rwgt            2          11   1.4215146049976859E-002           5      259028           0
</event>
<event>
      5   9999  3.19816E-02  2.53291E+02 -1.00000E+00  1.08037E-01
      21    -1     0     0   502   501  0.000000000E+00  0.000000000E+00  6.326637760E+02  6.326637760E+02  0.000000000E+00  0.00000E+00  9.000E+00
       5    -1     0     0   501     0  0.000000000E+00  0.000000000E+00 -9.349106506E+02  9.349106506E+02  0.000000000E+00  0.00000E+00  9.000E+00
      25     1     1     2     0     0  2.590500781E+02 -1.343043751E+01  4.138438879E+02  5.041617629E+02  1.250000000E+02  0.00000E+00  9.000E+00
      25     1     1     2     0     0 -4.967798349E+02 -7.398183314E+01 -3.777627181E+02  6.407754577E+02  1.250000000E+02  0.00000E+00  9.000E+00
       5     1     1     2   502     0  2.377297568E+02  8.741227065E+01 -3.383280444E+02  4.226372061E+02  5.394796609E-06  0.00000E+00  9.000E+00
#rwgt            1           1   3.5005187487549473E-002           5      259048           0
</event>
<event>
      5   9999  3.21891E-02  2.37580E+02 -1.00000E+00  1.08992E-01
       2    -1     0     0   502     0  0.000000000E+00  0.000000000E+00  1.729705853E+02  1.729705853E+02  0.000000000E+00  0.00000E+00  9.000E+00
      21    -1     0     0   501   502  0.000000000E+00  0.000000000E+00 -9.584696802E+02  9.584696802E+02  0.000000000E+00  0.00000E+00  9.000E+00
      25     1     1     2     0     0  2.494538017E+01  7.322157959E+01 -1.739236798E+02  2.277237759E+02  1.250000000E+02  0.00000E+00  9.000E+00
      25     1     1     2     0     0  1.845635432E+02  3.880560096E+01 -6.260638307E+02  6.656954981E+02  1.250000000E+02  0.00000E+00  9.000E+00
       2     1     1     2   501     0 -2.095089234E+02 -1.120271806E+02  1.448841554E+01  2.380209914E+02  4.294844516E-06  0.00000E+00  9.000E+00
#rwgt            1           1   8.2694344029102279E-002           5      259097           0
</event>
<event>
      5   9999  3.19816E-02  1.10750E+02 -1.00000E+00  1.21866E-01
      21    -1     0     0   502   501  0.000000000E+00  0.000000000E+00  1.299034645E+03  1.299034645E+03  0.000000000E+00  0.00000E+00  9.000E+00
      21    -1     0     0   501   511  0.000000000E+00  0.000000000E+00 -1.889088736E+02  1.889088736E+02  0.000000000E+00  0.00000E+00  9.000E+00
      25     1     1     2     0     0 -2.340672736E+02 -1.957334271E+01 -7.911391029E-01  2.660756099E+02  1.250000000E+02  0.00000E+00  9.000E+00
      25     1     1     2     0     0  1.895549627E+02  1.209844279E+02  1.075121252E+03  1.105476830E+03  1.250000000E+02  0.00000E+00  9.000E+00
      21     1     1     2   502   511  4.451231083E+01 -1.014110851E+02  3.579565874E+01  1.163910787E+02  2.078484985E-06  0.00000E+00  9.000E+00
#rwgt            1           1   2.9931016155768531E-002           5      259130           0
</event>
<event>
      5   9999  3.19816E-02  8.67378E+01 -1.00000E+00  1.26672E-01
      21    -1     0     0   502   501  0.000000000E+00  0.000000000E+00  4.570657087E+02  4.570657087E+02  0.000000000E+00  0.00000E+00  9.000E+00
      21    -1     0     0   501   512  0.000000000E+00  0.000000000E+00 -9.559954138E+02  9.559954138E+02  0.000000000E+00  0.00000E+00  9.000E+00
      25     1     1     2     0     0  2.015675622E+02  7.603075681E+01  3.675527774E+02  4.439934710E+02  1.250000000E+02  0.00000E+00  9.000E+00
      25     1     1     2     0     0 -2.878315275E+02 -6.697725926E+01 -7.927521890E+02  8.552274403E+02  1.250000000E+02  0.00000E+00  9.000E+00
      21     1     1     2   502   512  8.626396530E+01 -9.053497547E+00 -7.373029340E+01  1.138402112E+02  9.536743164E-07  0.00000E+00  9.000E+00
#rwgt            1           1   2.7176142518087715E-002           5      259243           0
</event>
<event>
      5   9999  3.19816E-02  1.81225E+02 -1.00000E+00  1.13229E-01
       2    -1     0     0   502     0  0.000000000E+00  0.000000000E+00  1.490400019E+03  1.490400019E+03  0.000000000E+00  0.00000E+00  9.000E+00
      21    -1     0     0   501   502  0.000000000E+00  0.000000000E+00 -7.329131212E+01  7.329131212E+01  0.000000000E+00  0.00000E+00  9.000E+00
      25     1     1     2     0     0 -1.296154166E+02 -1.255730530E+02  6.522281815E+02  6.881826419E+02  1.250000000E+02  0.00000E+00  9.000E+00
      25     1     1     2     0     0 -5.118500869E+01  1.131681643E+02  1.405342220E+02  2.253925600E+02  1.250000000E+02  0.00000E+00  9.000E+00
       2     1     1     2   501     0  1.808004253E+02  1.240488865E+01  6.243463038E+02  6.501161297E+02  7.629394531E-06  0.00000E+00  9.000E+00
#rwgt            1           1   2.7798460970320123E-002           5      259323           0
</event>
<event>
      5   9999  3.19816E-02  5.57930E+01 -1.00000E+00  1.36412E-01
       2    -1     0     0   502     0  0.000000000E+00  0.000000000E+00  1.019264057E+03  1.019264057E+03  0.000000000E+00  0.00000E+00  9.000E+00
      21    -1     0     0   501   502  0.000000000E+00  0.000000000E+00 -1.828851612E+02  1.828851612E+02  0.000000000E+00  0.00000E+00  9.000E+00
      25     1     1     2     0     0  3.014639290E+02  1.199004161E+02  6.048192525E+02  6.976302305E+02  1.250000000E+02  0.00000E+00  9.000E+00
      25     1     1     2     0     0 -3.204879631E+02 -6.745094163E+01  1.045756018E+02  3.658185623E+02  1.250000000E+02  0.00000E+00  9.000E+00
       2     1     1     2   501     0  1.902403405E+01 -5.244947447E+01  1.269840419E+02  1.387004259E+02  1.907348633E-06  0.00000E+00  9.000E+00
#rwgt            1           1   2.9131970987406306E-002           5      259374           0
</event>
<event>
      5   9999  3.19816E-02  4.45981E+01 -1.00000E+00  1.41969E-01
      21    -1     0     0   511   501  0.000000000E+00  0.000000000E+00  6.339379201E+02  6.339379201E+02  0.000000000E+00  0.00000E+00  9.000E+00
      21    -1     0     0   501   502  0.000000000E+00  0.000000000E+00 -2.053449021E+02  2.053449021E+02  0.000000000E+00  0.00000E+00  9.000E+00
      25     1     1     2     0     0  1.538304837E+01 -2.446716093E+02  3.767599985E+02  4.665553890E+02  1.250000000E+02  0.00000E+00  9.000E+00
      25     1     1     2     0     0 -4.293060205E+01  2.797447097E+02  6.976844457E+00  3.094734488E+02  1.250000000E+02  0.00000E+00  9.000E+00
      21     1     1     2   511   502  2.754755368E+01 -3.507310040E+01  4.485617509E+01  6.325398429E+01  6.743495762E-07  0.00000E+00  9.000E+00
#rwgt            1           1   2.5754612237548317E-002           5      259455           0
</event>
<event>
      5   9999  3.19816E-02  5.90660E+02 -1.00000E+00  9.68387E-02
       1    -1     0     0   502     0  0.000000000E+00  0.000000000E+00  1.779802612E+03  1.779802612E+03  0.000000000E+00  0.00000E+00  9.000E+00
      21    -1     0     0   501   502  0.000000000E+00  0.000000000E+00 -1.876651445E+03  1.876651445E+03  0.000000000E+00  0.00000E+00  9.000E+00
      25     1     1     2     0     0 -4.664922504E+02 -1.070398990E+02 -1.311236805E+03  1.401441942E+03  1.250000000E+02  0.00000E+00  9.000E+00
      25     1     1     2     0     0 -1.228269146E+02  1.468154245E+02  1.555982555E+03  1.572688123E+03  1.250000000E+02  0.00000E+00  9.000E+00
       1     1     1     2   501     0  5.893191649E+02 -3.977552553E+01 -3.415945831E+02  6.823239918E+02  1.206313194E-05  0.00000E+00  9.000E+00
#rwgt            2          17   3.2756361197322010E-004           5      259580           0
</event>
<event>
      5   9999  3.19816E-02  2.78969E+02 -1.00000E+00  1.06628E-01
      21    -1     0     0   502   511  0.000000000E+00  0.000000000E+00  4.232556040E+02  4.232556040E+02  0.000000000E+00  0.00000E+00  9.000E+00
      21    -1     0     0   501   502  0.000000000E+00  0.000000000E+00 -1.594372426E+03  1.594372426E+03  0.000000000E+00  0.00000E+00  9.000E+00
      25     1     1     2     0     0 -7.188562052E+02  1.710833634E+02 -3.950838083E+02  8.471953591E+02  1.250000000E+02  0.00000E+00  9.000E+00
      25     1     1     2     0     0  5.432490766E+02  4.567818930E+01 -6.680951011E+02  8.713105763E+02  1.250000000E+02  0.00000E+00  9.000E+00
      21     1     1     2   501   511  1.756071285E+02 -2.167615527E+02 -1.079379123E+02  2.991220942E+02  6.607249480E-06  0.00000E+00  9.000E+00
#rwgt            2          11   4.9955326798692568E-003           5      259614           0
</event>
<event>
      5   9999  3.19816E-02  3.77917E+01 -1.00000E+00  1.46387E-01
      21    -1     0     0   512   501  0.000000000E+00  0.000000000E+00  1.330922149E+02  1.330922149E+02  0.000000000E+00  0.00000E+00  9.000E+00
      21    -1     0     0   501   502  0.000000000E+00  0.000000000E+00 -6.608237367E+02  6.608237367E+02  0.000000000E+00  0.00000E+00  9.000E+00
      25     1     1     2     0     0  1.210332466E+02  8.859426096E+01 -4.636443706E+02  5.030796082E+02  1.250000000E+02  0.00000E+00  9.000E+00
      25     1     1     2     0     0 -1.216294969E+02 -1.263812293E+02 -1.011049736E+02  2.379352124E+02  1.250000000E+02  0.00000E+00  9.000E+00
      21     1     1     2   512   502  5.962502899E-01  3.778696829E+01  3.701782231E+01  5.290113095E+01  6.743495762E-07  0.00000E+00  9.000E+00
#rwgt            1           1   2.8625739217877005E-002           5      259634           0
</event>
<event>
      5   9999  3.19816E-02  7.87412E+01 -1.00000E+00  1.28684E-01
      21    -1     0     0   511   501  0.000000000E+00  0.000000000E+00  3.092977854E+02  3.092977854E+02  0.000000000E+00  0.00000E+00  9.000E+00
      21    -1     0     0   501   502  0.000000000E+00  0.000000000E+00 -4.603544875E+02  4.603544875E+02  0.000000000E+00  0.00000E+00  9.000E+00
      25     1     1     2     0     0 -1.656199971E+02 -1.744236893E+01 -1.872258968E+02  2.800227778E+02  1.250000000E+02  0.00000E+00  9.000E+00
      25     1     1     2     0     0  9.558375363E+01  5.342990903E+01 -1.886583285E+02  2.514119608E+02  1.250000000E+02  0.00000E+00  9.000E+00
      21     1     1     2   511   502  7.003624350E+01 -3.598754010E+01  2.248275232E+02  2.382175343E+02  2.697398305E-06  0.00000E+00  9.000E+00
#rwgt            1           1   2.5433775072259988E-002           5      259699           0
</event>
<event>
      5   9999  3.19816E-02  8.27730E+00 -1.00000E+00  2.05754E-01
      21    -1     0     0   502   501  0.000000000E+00  0.000000000E+00  1.913244135E+02  1.913244135E+02  0.000000000E+00  0.00000E+00  9.000E+00
      21    -1     0     0   512   502  0.000000000E+00  0.000000000E+00 -2.189814423E+02  2.189814423E+02  0.000000000E+00  0.00000E+00  9.000E+00
      25     1     1     2     0     0  9.500397930E+01  6.479784879E+01  4.984585462E+01  1.770144811E+02  1.250000000E+02  0.00000E+00  9.000E+00
      25     1     1     2     0     0 -1.015872653E+02 -5.978047160E+01 -1.747603699E+01  1.726965232E+02  1.250000000E+02  0.00000E+00  9.000E+00
      21     1     1     2   512   501  6.583286019E+00 -5.017377189E+00 -6.002684649E+01  6.059485150E+01  9.536743164E-07  0.00000E+00  9.000E+00
#rwgt            1           1   2.4192106942678218E-002           5      259741           0
</event>
<event>
      5   9999  3.19816E-02  4.47474E+01 -1.00000E+00  1.41883E-01
      21    -1     0     0   502   501  0.000000000E+00  0.000000000E+00  7.146023442E+02  7.146023442E+02  0.000000000E+00  0.00000E+00  9.000E+00
      21    -1     0     0   501   511  0.000000000E+00  0.000000000E+00 -3.674380207E+02  3.674380207E+02  0.000000000E+00  0.00000E+00  9.000E+00
      25     1     1     2     0     0 -3.108497573E+01 -2.835952948E+02  5.811005360E+02  6.593143408E+02  1.250000000E+02  0.00000E+00  9.000E+00
      25     1     1     2     0     0  6.815663133E+01  2.585348438E+02 -1.584875389E+02  3.350058087E+02  1.250000000E+02  0.00000E+00  9.000E+00
      21     1     1     2   502   511 -3.707165561E+01  2.506045094E+01 -7.544867365E+01  8.772021550E+01  1.907348633E-06  0.00000E+00  9.000E+00
#rwgt            1           1   3.0037054109389279E-002           5      259940           0
</event>
<event>
      5   9999  3.19816E-02  3.27187E+01 -1.00000E+00  1.50468E-01
      21    -1     0     0   502   501  0.000000000E+00  0.000000000E+00  9.910758136E+01  9.910758136E+01  0.000000000E+00  0.00000E+00  9.000E+00
      21    -1     0     0   512   502  0.000000000E+00  0.000000000E+00 -6.518551421E+02  6.518551421E+02  0.000000000E+00  0.00000E+00  9.000E+00
      25     1     1     2     0     0 -1.880104024E+02  5.900494204E+01 -1.501183705E+02  2.774707548E+02  1.250000000E+02  0.00000E+00  9.000E+00
      25     1     1     2     0     0  1.733732171E+02 -2.974290645E+01 -3.372283600E+02  4.003634345E+02  1.250000000E+02  0.00000E+00  9.000E+00
      21     1     1     2   512   501  1.463718527E+01 -2.926203559E+01 -6.540083021E+01  7.312853419E+01  1.348699152E-06  0.00000E+00  9.000E+00
#rwgt            1           1   3.1846046478241623E-002           5      260118           0
</event>
<event>
      5   9999  3.19816E-02  1.25892E+02 -1.00000E+00  1.19491E-01
       1    -1     0     0   502     0  0.000000000E+00  0.000000000E+00  7.543785753E+02  7.543785753E+02  0.000000000E+00  0.00000E+00  9.000E+00
      21    -1     0     0   501   502  0.000000000E+00  0.000000000E+00 -9.711114290E+02  9.711114290E+02  0.000000000E+00  0.00000E+00  9.000E+00
      25     1     1     2     0     0 -2.385510886E+02  5.853455615E+02  2.662518898E+02  6.971736635E+02  1.250000000E+02  0.00000E+00  9.000E+00
      25     1     1     2     0     0  1.773085752E+02 -6.953366604E+02 -5.224459036E+02  8.963850313E+02  1.250000000E+02  0.00000E+00  9.000E+00
       1     1     1     2   501     0  6.124251335E+01  1.099910989E+02  3.946116003E+01  1.319313095E+02  1.261592536E-06  0.00000E+00  9.000E+00
#rwgt            1           1   2.6625967092310888E-002           5      260206           0
</event>
<event>
      5   9999  3.19816E-02  2.03377E+01 -1.00000E+00  1.65771E-01
      21    -1     0     0   502   511  0.000000000E+00  0.000000000E+00  1.885814111E+02  1.885814111E+02  0.000000000E+00  0.00000E+00  9.000E+00
      21    -1     0     0   501   502  0.000000000E+00  0.000000000E+00 -6.617644369E+02  6.617644369E+02  0.000000000E+00  0.00000E+00  9.000E+00
      25     1     1     2     0     0 -2.619284365E+01 -1.963460904E+02  5.296199679E+01  2.401412613E+02  1.250000000E+02  0.00000E+00  9.000E+00
      25     1     1     2     0     0  2.900030550E+01  2.164891166E+02 -5.324363689E+02  5.889159891E+02  1.250000000E+02  0.00000E+00  9.000E+00
      21     1     1     2   501   511 -2.807461853E+00 -2.014302613E+01  6.291346401E+00  2.128859749E+01  3.153981341E-07  0.00000E+00  9.000E+00
#rwgt            1           1   2.8242260940145709E-002           5      260305           0
</event>
<event>
      5   9999  3.19816E-02  1.16155E+02 -1.00000E+00  1.20972E-01
      21    -1     0     0   502   512  0.000000000E+00  0.000000000E+00  3.332437499E+02  3.332437499E+02  0.000000000E+00  0.00000E+00  9.000E+00
      21    -1     0     0   501   502  0.000000000E+00  0.000000000E+00 -9.988487801E+02  9.988487801E+02  0.000000000E+00  0.00000E+00  9.000E+00
      25     1     1     2     0     0  4.235993508E+02 -1.031186030E+02 -6.893948734E+02  8.252030948E+02  1.250000000E+02  0.00000E+00  9.000E+00
      25     1     1     2     0     0 -3.155823110E+02  1.458296415E+02  7.976702848E+01  3.779500737E+02  1.250000000E+02  0.00000E+00  9.000E+00
      21     1     1     2   501   512 -1.080170398E+02 -4.271103848E+01 -5.597718525E+01  1.289393615E+02  2.523185073E-06  0.00000E+00  9.000E+00
#rwgt            1           1   3.2181076112974334E-002           5      260500           0
</event>
<event>
      5   9999  3.19816E-02  8.05311E+01 -1.00000E+00  1.28211E-01
      21    -1     0     0   502   501  0.000000000E+00  0.000000000E+00  2.689967670E+02  2.689967670E+02  0.000000000E+00  0.00000E+00  9.000E+00
       2    -1     0     0   501     0  0.000000000E+00  0.000000000E+00 -9.823244422E+02  9.823244422E+02  0.000000000E+00  0.00000E+00  9.000E+00
      25     1     1     2     0     0  1.421689096E+02  6.639955681E+01 -1.181797511E+01  2.009615997E+02  1.250000000E+02  0.00000E+00  9.000E+00
      25     1     1     2     0     0 -1.178909037E+02 -1.431839547E+02  9.986784499E+01  2.449459053E+02  1.250000000E+02  0.00000E+00  9.000E+00
       2     1     1     2   502     0 -2.427800586E+01  7.678439787E+01 -8.013775450E+02  8.054137042E+02  0.000000000E+00  0.00000E+00  9.000E+00
#rwgt            1           1   2.6987975167311263E-002           5      260558           0
</event>
<event>
      5   9999  3.19816E-02  3.62763E+01 -1.00000E+00  1.47522E-01
      21    -1     0     0   511   501  0.000000000E+00  0.000000000E+00  7.777030037E+01  7.777030037E+01  0.000000000E+00  0.00000E+00  9.000E+00
      21    -1     0     0   501   502  0.000000000E+00  0.000000000E+00 -1.022523541E+03  1.022523541E+03  0.000000000E+00  0.00000E+00  9.000E+00
      25     1     1     2     0     0 -1.537656176E+02 -8.238679674E+01 -7.522542599E+02  7.822678064E+02  1.250000000E+02  0.00000E+00  9.000E+00
      25     1     1     2     0     0  1.682831071E+02  4.914206384E+01 -1.514330654E+02  2.632320646E+02  1.250000000E+02  0.00000E+00  9.000E+00
      21     1     1     2   511   502 -1.451748946E+01  3.324473290E+01 -4.106591489E+01  5.479396985E+01  8.259061849E-07  0.00000E+00  9.000E+00
#rwgt            1           1   3.6440300241454511E-002           5      260613           0
</event>
<event>
      5   9999  3.19816E-02  1.77595E+02 -1.00000E+00  1.13559E-01
       3    -1     0     0   502     0  0.000000000E+00  0.000000000E+00  1.290920825E+03  1.290920825E+03  0.000000000E+00  0.00000E+00  9.000E+00
      21    -1     0     0   501   502  0.000000000E+00  0.000000000E+00 -6.334984005E+02  6.334984005E+02  0.000000000E+00  0.00000E+00  9.000E+00
      25     1     1     2     0     0  5.857913767E+02 -1.753596003E+02 -2.034098684E+02  6.564320993E+02  1.250000000E+02  0.00000E+00  9.000E+00
      25     1     1     2     0     0 -4.082072963E+02  1.733688941E+02  8.056841898E+01  4.677672929E+02  1.250000000E+02  0.00000E+00  9.000E+00
       3     1     1     2   501     0 -1.775840804E+02  1.990706143E+00  7.802638736E+02  8.002198329E+02  1.078959322E-05  0.00000E+00  9.000E+00
#rwgt            2          19   6.7287578225120096E-005           5      260843           0
</event>
<event>
      5   9999  3.19816E-02  9.00286E+01 -1.00000E+00  1.25915E-01
      21    -1     0     0   502   501  0.000000000E+00  0.000000000E+00  1.902923997E+03  1.902923997E+03  0.000000000E+00  0.00000E+00  9.000E+00
      21    -1     0     0   501   511  0.000000000E+00  0.000000000E+00 -1.686251902E+02  1.686251902E+02  0.000000000E+00  0.00000E+00  9.000E+00
      25     1     1     2     0     0 -1.854614617E+02 -2.478641159E+02  5.846974769E+02  6.732968983E+02  1.250000000E+02  0.00000E+00  9.000E+00
      25     1     1     2     0     0  2.319907767E+02  1.707916589E+02  1.234917751E+03  1.274219904E+03  1.250000000E+02  0.00000E+00  9.000E+00
      21     1     1     2   502   511 -4.652931498E+01  7.707245696E+01 -8.531642138E+01  1.240323850E+02  4.264961200E-06  0.00000E+00  9.000E+00
#rwgt            1           1   3.6306515335019066E-002           5      260892           0
</event>
<event>
      5   9999  3.19816E-02  9.18981E+01 -1.00000E+00  1.25501E-01
      21    -1     0     0   502   512  0.000000000E+00  0.000000000E+00  1.885386669E+02  1.885386669E+02  0.000000000E+00  0.00000E+00  9.000E+00
      21    -1     0     0   501   502  0.000000000E+00  0.000000000E+00 -3.665559689E+02  3.665559689E+02  0.000000000E+00  0.00000E+00  9.000E+00
      25     1     1     2     0     0 -2.028687680E+02 -3.332346316E+01 -7.158085878E+01  2.510279059E+02  1.250000000E+02  0.00000E+00  9.000E+00
      25     1     1     2     0     0  1.121481625E+02  1.865978217E+01 -1.251675991E+02  2.102791614E+02  1.250000000E+02  0.00000E+00  9.000E+00
      21     1     1     2   501   512  9.072060545E+01  1.466368099E+01  1.873115595E+01  9.378756846E+01  5.840038640E-07  0.00000E+00  9.000E+00
#rwgt            2          11   2.5500985487412926E-003           5      261138           0
</event>
<event>
      5   9999  3.19816E-02  1.17091E+01 -1.00000E+00  1.88156E-01
      21    -1     0     0   502   501  0.000000000E+00  0.000000000E+00  9.954013561E+02  9.954013561E+02  0.000000000E+00  0.00000E+00  9.000E+00
      21    -1     0     0   501   511  0.000000000E+00  0.000000000E+00 -5.310514062E+02  5.310514062E+02  0.000000000E+00  0.00000E+00  9.000E+00
      25     1     1     2     0     0  3.135163129E+01 -3.425271499E+02 -2.836762050E+02  4.630388348E+02  1.250000000E+02  0.00000E+00  9.000E+00
      25     1     1     2     0     0 -2.058367892E+01  3.379278996E+02  8.694769078E+02  9.414000459E+02  1.250000000E+02  0.00000E+00  9.000E+00
      21     1     1     2   502   511 -1.076795237E+01  4.599250346E+00 -1.214507529E+02  1.220138816E+02  1.907348633E-06  0.00000E+00  9.000E+00
#rwgt            1           1   3.0972635743737632E-002           5      261158           0
</event>
<event>
      5   9999  3.19816E-02  2.32870E+01 -1.00000E+00  1.61095E-01
      21    -1     0     0   502   501  0.000000000E+00  0.000000000E+00  2.389958121E+03  2.389958121E+03  0.000000000E+00  0.00000E+00  9.000E+00
       5    -1     0     0   501     0  0.000000000E+00  0.000000000E+00 -1.002416073E+02  1.002416073E+02  0.000000000E+00  0.00000E+00  9.000E+00
      25     1     1     2     0     0 -2.108793461E+02  6.370783013E+00  1.068950203E+03  1.096717931E+03  1.250000000E+02  0.00000E+00  9.000E+00
      25     1     1     2     0     0  2.005393797E+02 -2.723633465E+01  1.294492003E+03  1.316165798E+03  1.250000000E+02  0.00000E+00  9.000E+00
       5     1     1     2   502     0  1.033996637E+01  2.086555164E+01 -7.372569181E+01  7.731599952E+01  4.672030912E-06  0.00000E+00  9.000E+00
#rwgt            1           1   5.0605106353547182E-002           5      261447           0
</event>
<event>
      5   9999  3.19816E-02  2.22516E+01 -1.00000E+00  1.62635E-01
      21    -1     0     0   502   511  0.000000000E+00  0.000000000E+00  6.664826608E+02  6.664826608E+02  0.000000000E+00  0.00000E+00  9.000E+00
      21    -1     0     0   501   502  0.000000000E+00  0.000000000E+00 -2.304205271E+02  2.304205271E+02  0.000000000E+00  0.00000E+00  9.000E+00
      25     1     1     2     0     0 -5.741009039E+01  1.040304214E+02  5.858351977E+02  6.106931520E+02  1.250000000E+02  0.00000E+00  9.000E+00
      25     1     1     2     0     0  5.786053936E+01 -1.262774388E+02 -1.725650810E+02  2.543571126E+02  1.250000000E+02  0.00000E+00  9.000E+00
      21     1     1     2   501   511 -4.504489780E-01  2.224701731E+01  2.279201699E+01  3.185292328E+01  7.539457465E-07  0.00000E+00  9.000E+00
#rwgt            1           1   2.5263119902460884E-002           5      261574           0
</event>
<event>
      5   9999  3.19816E-02  2.39232E+01 -1.00000E+00  1.60197E-01
      21    -1     0     0   502   501  0.000000000E+00  0.000000000E+00  2.225680215E+02  2.225680215E+02  0.000000000E+00  0.00000E+00  9.000E+00
      21    -1     0     0   501   512  0.000000000E+00  0.000000000E+00 -1.063354523E+03  1.063354523E+03  0.000000000E+00  0.00000E+00  9.000E+00
      25     1     1     2     0     0  6.012408106E+01 -1.601324681E+02  1.104458649E+02  2.389154694E+02  1.250000000E+02  0.00000E+00  9.000E+00
      25     1     1     2     0     0 -3.737519371E+01  1.527293774E+02 -1.637373804E+02  2.591487943E+02  1.250000000E+02  0.00000E+00  9.000E+00
      21     1     1     2   502   512 -2.274888734E+01  7.403090655E+00 -7.874949859E+02  7.878582807E+02  1.525878906E-05  0.00000E+00  9.000E+00
#rwgt            1           1   2.6876442655863735E-002           5      261696           0
</event>
<event>
      5   9999  3.19816E-02  1.08970E+02 -1.00000E+00  1.22173E-01
      21    -1     0     0   511   501  0.000000000E+00  0.000000000E+00  4.864468856E+02  4.864468856E+02  0.000000000E+00  0.00000E+00  9.000E+00
      21    -1     0     0   501   502  0.000000000E+00  0.000000000E+00 -9.735303968E+02  9.735303968E+02  0.000000000E+00  0.00000E+00  9.000E+00
      25     1     1     2     0     0  3.690785384E+02  2.509940502E+02  1.513392366E+02  4.875915763E+02  1.250000000E+02  0.00000E+00  9.000E+00
      25     1     1     2     0     0 -2.603642832E+02 -2.435390999E+02 -7.352381255E+02  8.266201996E+02  1.250000000E+02  0.00000E+00  9.000E+00
      21     1     1     2   511   502 -1.087142551E+02 -7.454950329E+00  9.681537772E+01  1.457655066E+02  2.336015456E-06  0.00000E+00  9.000E+00
#rwgt            1           1   2.6751949419789083E-002           5      261806           0
</event>
<event>
      5   9999  3.19816E-02  3.79991E+01 -1.00000E+00  1.46236E-01
      21    -1     0     0   512   501  0.000000000E+00  0.000000000E+00  1.906630205E+03  1.906630205E+03  0.000000000E+00  0.00000E+00  9.000E+00
      21    -1     0     0   501   502  0.000000000E+00  0.000000000E+00 -1.151950495E+02  1.151950495E+02  0.000000000E+00  0.00000E+00  9.000E+00
      25     1     1     2     0     0  2.215712108E+02 -1.784737082E+02  1.548661847E+02  3.472106006E+02  1.250000000E+02  0.00000E+00  9.000E+00
      25     1     1     2     0     0 -2.352505859E+02  1.430222820E+02  1.561179457E+03  1.590190086E+03  1.250000000E+02  0.00000E+00  9.000E+00
      21     1     1     2   512   502  1.367937507E+01  3.545142623E+01  7.538951311E+01  8.442456757E+01  1.907348633E-06  0.00000E+00  9.000E+00
#rwgt            2          11   1.9192245558596204E-002           5      261981           0
</event>
<event>
      5   9999  3.19816E-02  4.32860E+02 -1.00000E+00  1.00664E-01
      21    -1     0     0   502   501  0.000000000E+00  0.000000000E+00  7.656463973E+02  7.656463973E+02  0.000000000E+00  0.00000E+00  9.000E+00
       2    -1     0     0   501     0  0.000000000E+00  0.000000000E+00 -7.459609636E+02  7.459609636E+02  0.000000000E+00  0.00000E+00  9.000E+00
      25     1     1     2     0     0  6.187236661E+02 -3.907082887E+01  3.324213545E+02  7.144749552E+02  1.250000000E+02  0.00000E+00  9.000E+00
      25     1     1     2     0     0 -1.903569054E+02  1.012758479E+02  2.162860373E+01  2.501706323E+02  1.250000000E+02  0.00000E+00  9.000E+00
       2     1     1     2   502     0 -4.283667608E+02 -6.220501898E+01 -3.343645246E+02  5.469617733E+02  9.344061824E-06  0.00000E+00  9.000E+00
#rwgt            1           1   2.8137545096387957E-002           5      262031           0
</event>
<event>
      5   9999  3.19816E-02  6.20995E+01 -1.00000E+00  1.33910E-01
      21    -1     0     0   502   501  0.000000000E+00  0.000000000E+00  3.176023475E+02  3.176023475E+02  0.000000000E+00  0.00000E+00  9.000E+00
      21    -1     0     0   501   511  0.000000000E+00  0.000000000E+00 -1.552320589E+03  1.552320589E+03  0.000000000E+00  0.00000E+00  9.000E+00
      25     1     1     2     0     0  2.443359684E+02 -5.408734702E+02 -6.579231811E+02  8.948363473E+02  1.250000000E+02  0.00000E+00  9.000E+00
      25     1     1     2     0     0 -2.864308324E+02  5.865284172E+02 -3.731503023E+02  7.621839371E+02  1.250000000E+02  0.00000E+00  9.000E+00
      21     1     1     2   502   511  4.209486400E+01 -4.565494695E+01 -2.036447577E+02  2.129026517E+02  4.672030912E-06  0.00000E+00  9.000E+00
#rwgt            1           1   2.5871452235152286E-002           5      262102           0
</event>
<event>
      5   9999  3.19816E-02  4.52297E+01 -1.00000E+00  1.41606E-01
      21    -1     0     0   502   501  0.000000000E+00  0.000000000E+00  2.851980773E+02  2.851980773E+02  0.000000000E+00  0.00000E+00  9.000E+00
      21    -1     0     0   501   512  0.000000000E+00  0.000000000E+00 -5.059100603E+02  5.059100603E+02  0.000000000E+00  0.00000E+00  9.000E+00
      25     1     1     2     0     0  2.840841749E+02 -7.772304929E+01  6.113977637E+01  3.257418657E+02  1.250000000E+02  0.00000E+00  9.000E+00
      25     1     1     2     0     0 -2.977904239E+02  3.462006429E+01 -2.415019123E+02  4.047540723E+02  1.250000000E+02  0.00000E+00  9.000E+00
      21     1     1     2   502   512  1.370624897E+01  4.310298499E+01 -4.034984701E+01  6.061219952E+01  8.259061849E-07  0.00000E+00  9.000E+00
#rwgt            1           1   2.7811624393252618E-002           5      262316           0
</event>
<event>
      5   9999  3.19816E-02  3.10115E+01 -1.00000E+00  1.52046E-01
      21    -1     0     0   502   501  0.000000000E+00  0.000000000E+00  1.232743538E+03  1.232743538E+03  0.000000000E+00  0.00000E+00  9.000E+00
      21    -1     0     0   501   511  0.000000000E+00  0.000000000E+00 -4.985160993E+02  4.985160993E+02  0.000000000E+00  0.00000E+00  9.000E+00
      25     1     1     2     0     0  1.087622889E+02  4.180789476E+02  1.049292800E+03  1.141603969E+03  1.250000000E+02  0.00000E+00  9.000E+00
      25     1     1     2     0     0 -8.452673963E+01 -4.374271762E+02 -2.725272383E+02  5.370134075E+02  1.250000000E+02  0.00000E+00  9.000E+00
      21     1     1     2   502   511 -2.423554925E+01  1.934822856E+01 -4.253812254E+01  5.264226121E+01  1.261592536E-06  0.00000E+00  9.000E+00
#rwgt            1           1   2.7904138166471432E-002           5      262402           0
</event>
<event>
      5   9999  3.19816E-02  2.27381E+02 -1.00000E+00  1.09656E-01
      21    -1     0     0   502   501  0.000000000E+00  0.000000000E+00  1.073428512E+03  1.073428512E+03  0.000000000E+00  0.00000E+00  9.000E+00
      21    -1     0     0   512   502  0.000000000E+00  0.000000000E+00 -1.098856369E+03  1.098856369E+03  0.000000000E+00  0.00000E+00  9.000E+00
      25     1     1     2     0     0 -6.110987683E+02 -4.140446436E+02  2.667171106E+02  7.947563706E+02  1.250000000E+02  0.00000E+00  9.000E+00
      25     1     1     2     0     0  7.914646949E+02  2.755874000E+02  1.683958663E+02  8.639137376E+02  1.250000000E+02  0.00000E+00  9.000E+00
      21     1     1     2   512   501 -1.803659265E+02  1.384572437E+02 -4.605408337E+02  5.136147732E+02  9.344061824E-06  0.00000E+00  9.000E+00
#rwgt            2          11   3.5392173750149049E-003           5      262554           0
</event>
<event>
      5   9999  3.19816E-02  3.09590E+01 -1.00000E+00  1.52097E-01
      21    -1     0     0   502   501  0.000000000E+00  0.000000000E+00  2.809917110E+02  2.809917110E+02  0.000000000E+00  0.00000E+00  9.000E+00
      21    -1     0     0   501   511  0.000000000E+00  0.000000000E+00 -5.331689958E+02  5.331689958E+02  0.000000000E+00  0.00000E+00  9.000E+00
      25     1     1     2     0     0 -1.529084417E+02 -9.109055220E+00 -3.776329733E+02  4.262577026E+02  1.250000000E+02  0.00000E+00  9.000E+00
      25     1     1     2     0     0  1.222437720E+02  4.850130898E+00  2.242368978E+02  2.843839832E+02  1.250000000E+02  0.00000E+00  9.000E+00
      21     1     1     2   502   511  3.066466975E+01  4.258924322E+00 -9.878120929E+01  1.035190210E+02  1.348699152E-06  0.00000E+00  9.000E+00
#rwgt            1           1   2.6482893917648565E-002           5      262634           0
</event>
<event>
      5   9999  3.19816E-02  1.66660E+01 -1.00000E+00  1.73180E-01
      21    -1     0     0   502   501  0.000000000E+00  0.000000000E+00  1.400372856E+03  1.400372856E+03  0.000000000E+00  0.00000E+00  9.000E+00
       1    -1     0     0   501     0  0.000000000E+00  0.000000000E+00 -1.017044946E+03  1.017044946E+03  0.000000000E+00  0.00000E+00  9.000E+00
      25     1     1     2     0     0  9.485296075E+02 -1.981360337E+02  2.489499537E+02  1.008249663E+03  1.250000000E+02  0.00000E+00  9.000E+00
      25     1     1     2     0     0 -9.350205627E+02  2.078962247E+02  4.692230524E+02  1.073908546E+03  1.250000000E+02  0.00000E+00  9.000E+00
       1     1     1     2   502     0 -1.350904485E+01 -9.760191033E+00 -3.348450963E+02  3.352595922E+02  3.814697266E-06  0.00000E+00  9.000E+00
#rwgt            1           1   3.8454101551250244E-002           5      262801           0
</event>
<event>
      5   9999  3.19816E-02  5.90336E+01 -1.00000E+00  1.35081E-01
       2    -1     0     0   502     0  0.000000000E+00  0.000000000E+00  3.762632839E+02  3.762632839E+02  0.000000000E+00  0.00000E+00  9.000E+00
      21    -1     0     0   501   502  0.000000000E+00  0.000000000E+00 -5.198557401E+02  5.198557401E+02  0.000000000E+00  0.00000E+00  9.000E+00
      25     1     1     2     0     0 -1.837512962E+02  6.304819126E+00  3.038598750E+02  3.765104424E+02  1.250000000E+02  0.00000E+00  9.000E+00
      25     1     1     2     0     0  1.340157644E+02  2.549679033E+01 -4.096790225E+02  4.495244297E+02  1.250000000E+02  0.00000E+00  9.000E+00
       2     1     1     2   501     0  4.973553185E+01 -3.180160945E+01 -3.777330881E+01  7.008415192E+01  4.768371582E-07  0.00000E+00  9.000E+00
#rwgt            1           1   2.9514592182005424E-002           5      263039           0
</event>
<event>
      5   9999  3.19816E-02  1.73703E+01 -1.00000E+00  1.71584E-01
      21    -1     0     0   502   501  0.000000000E+00  0.000000000E+00  4.882669322E+02  4.882669322E+02  0.000000000E+00  0.00000E+00  9.000E+00
      21    -1     0     0   501   511  0.000000000E+00  0.000000000E+00 -5.066300398E+02  5.066300398E+02  0.000000000E+00  0.00000E+00  9.000E+00
      25     1     1     2     0     0  2.808885106E+02  4.007905703E+01  3.587736922E+02  4.741816618E+02  1.250000000E+02  0.00000E+00  9.000E+00
      25     1     1     2     0     0 -2.865727717E+02 -2.366510432E+01 -2.748223645E+02  4.169368329E+02  1.250000000E+02  0.00000E+00  9.000E+00
      21     1     1     2   502   511  5.684261067E+00 -1.641395271E+01 -1.023144353E+02  1.037784773E+02  1.907348633E-06  0.00000E+00  9.000E+00
#rwgt            1           1   3.1375356507471155E-002           5      263158           0
</event>
<event>
      5   9999  3.19816E-02  2.26149E+01 -1.00000E+00  1.62083E-01
      21    -1     0     0   502   512  0.000000000E+00  0.000000000E+00  4.170165160E+02  4.170165160E+02  0.000000000E+00  0.00000E+00  9.000E+00
      21    -1     0     0   501   502  0.000000000E+00  0.000000000E+00 -3.545248975E+02  3.545248975E+02  0.000000000E+00  0.00000E+00  9.000E+00
      25     1     1     2     0     0 -2.101421973E+02 -2.708135194E+02  2.386655295E+01  3.656423358E+02  1.250000000E+02  0.00000E+00  9.000E+00
      25     1     1     2     0     0  2.324909616E+02  2.742724699E+02  3.054481984E+01  3.818840413E+02  1.250000000E+02  0.00000E+00  9.000E+00
      21     1     1     2   501   512 -2.234876429E+01 -3.458950482E+00  8.080245686E+00  2.401503641E+01  2.920019320E-07  0.00000E+00  9.000E+00
#rwgt            1           1   2.5304848136949349E-002           5      263345           0
</event>
<event>
      5   9999  3.19816E-02  2.44884E+01 -1.00000E+00  1.59426E-01
      21    -1     0     0   502   511  0.000000000E+00  0.000000000E+00  2.780967225E+02  2.780967225E+02  0.000000000E+00  0.00000E+00  9.000E+00
      21    -1     0     0   501   502  0.000000000E+00  0.000000000E+00 -4.155037244E+02  4.155037244E+02  0.000000000E+00  0.00000E+00  9.000E+00
      25     1     1     2     0     0 -1.453079676E+02  1.038230394E+02 -2.916027652E+02  3.640752692E+02  1.250000000E+02  0.00000E+00  9.000E+00
      25     1     1     2     0     0  1.304792292E+02 -1.233112174E+02  5.256493555E+01  2.249856841E+02  1.250000000E+02  0.00000E+00  9.000E+00
      21     1     1     2   501   511  1.482873840E+01  1.948817795E+01  1.016308278E+02  1.045394936E+02  1.348699152E-06  0.00000E+00  9.000E+00
#rwgt            1           1   2.9291625554586167E-002           5      263513           0
</event>
<event>
      5   9999  3.19816E-02  6.27226E+01 -1.00000E+00  1.33682E-01
      21    -1     0     0   512   501  0.000000000E+00  0.000000000E+00  4.516211431E+02  4.516211431E+02  0.000000000E+00  0.00000E+00  9.000E+00
      21    -1     0     0   501   502  0.000000000E+00  0.000000000E+00 -3.478441138E+02  3.478441138E+02  0.000000000E+00  0.00000E+00  9.000E+00
      25     1     1     2     0     0 -1.248943425E+02 -5.972678834E+01  1.126896969E+02  2.179216690E+02  1.250000000E+02  0.00000E+00  9.000E+00
      25     1     1     2     0     0  1.119359448E+02  1.210961681E+02 -2.545373966E+02  3.280369246E+02  1.250000000E+02  0.00000E+00  9.000E+00
      21     1     1     2   512   502  1.295839776E+01 -6.136937979E+01  2.456247290E+02  2.535066633E+02  2.697398305E-06  0.00000E+00  9.000E+00
#rwgt            1           1   3.1075558622362456E-002           5      263603           0
</event>
<event>
      5   9999  3.19816E-02  6.96847E+00 -1.00000E+00  2.15831E-01
      21    -1     0     0   502   501  0.000000000E+00  0.000000000E+00  1.473257263E+03  1.473257263E+03  0.000000000E+00  0.00000E+00  9.000E+00
      21    -1     0     0   511   502  0.000000000E+00  0.000000000E+00 -6.700851889E+01  6.700851889E+01  0.000000000E+00  0.00000E+00  9.000E+00
      25     1     1     2     0     0 -1.294612963E+02  6.127810967E+01  4.148909193E+02  4.563712402E+02  1.250000000E+02  0.00000E+00  9.000E+00
      25     1     1     2     0     0  1.361635855E+02 -5.937051840E+01  1.028215934E+03  1.046383480E+03  1.250000000E+02  0.00000E+00  9.000E+00
      21     1     1     2   511   501 -6.702289247E+00 -1.907591270E+00 -3.685810881E+01  3.751106198E+01  1.966049969E-06  0.00000E+00  9.000E+00
#rwgt            1           1   3.3109287215560730E-002           5      263639           0
</event>
<event>
      5   9999  5.14839E-02  1.11827E+02 -1.00000E+00  1.21683E-01
      21    -1     0     0   502   501  0.000000000E+00  0.000000000E+00  2.119073459E+03  2.119073459E+03  0.000000000E+00  0.00000E+00  9.000E+00
      21    -1     0     0   501   512  0.000000000E+00  0.000000000E+00 -5.937926029E+02  5.937926029E+02  0.000000000E+00  0.00000E+00  9.000E+00
      25     1     1     2     0     0  2.262477941E+02  9.928030195E+01  8.094129427E+02  8.554641749E+02  1.250000000E+02  0.00000E+00  9.000E+00
      25     1     1     2     0     0 -1.147918839E+02 -9.017937207E+01  1.273879815E+03  1.288295105E+03  1.250000000E+02  0.00000E+00  9.000E+00
      21     1     1     2   502   512 -1.114559103E+02 -9.100929872E+00 -5.580119015E+02  5.691067818E+02  7.629394531E-06  0.00000E+00  9.000E+00
#rwgt            2          11  0.19610703145490718                5      263919           0
</event>
<event>
      5   9999  3.19816E-02  4.72970E+01 -1.00000E+00  1.40467E-01
      21    -1     0     0   511   501  0.000000000E+00  0.000000000E+00  5.150838555E+02  5.150838555E+02  0.000000000E+00  0.00000E+00  9.000E+00
      21    -1     0     0   501   502  0.000000000E+00  0.000000000E+00 -2.764372085E+02  2.764372085E+02  0.000000000E+00  0.00000E+00  9.000E+00
      25     1     1     2     0     0  4.182469346E+01 -5.685428703E+01 -2.074803824E+02  2.522990765E+02  1.250000000E+02  0.00000E+00  9.000E+00
      25     1     1     2     0     0 -7.925272827E+01  8.577045958E+01  1.182610584E+02  2.079621230E+02  1.250000000E+02  0.00000E+00  9.000E+00
      21     1     1     2   511   502  3.742803481E+01 -2.891617256E+01  3.278659710E+02  3.312598644E+02  3.814697266E-06  0.00000E+00  9.000E+00
#rwgt            1           1   3.1633795597534528E-002           5      263939           0
</event>
<event>
      5   9999  3.19816E-02  8.99210E+01 -1.00000E+00  1.25939E-01
      21    -1     0     0   502   512  0.000000000E+00  0.000000000E+00  6.805130458E+02  6.805130458E+02  0.000000000E+00  0.00000E+00  9.000E+00
      21    -1     0     0   501   502  0.000000000E+00  0.000000000E+00 -1.434697717E+03  1.434697717E+03  0.000000000E+00  0.00000E+00  9.000E+00
      25     1     1     2     0     0  2.234372037E+02  4.300651580E+00  5.118111973E+02  5.722922167E+02  1.250000000E+02  0.00000E+00  9.000E+00
      25     1     1     2     0     0 -1.540192236E+02 -6.145777888E+01 -1.381229090E+03  1.396752584E+03  1.250000000E+02  0.00000E+00  9.000E+00
      21     1     1     2   501   512 -6.941798009E+01  5.715712730E+01  1.152332219E+02  1.461659625E+02  1.907348633E-06  0.00000E+00  9.000E+00
#rwgt            1           1   2.1288789057314517E-002           5      264009           0
</event>
<event>
      5   9999  3.19816E-02  1.30053E+02 -1.00000E+00  1.18904E-01
      21    -1     0     0   502   501  0.000000000E+00  0.000000000E+00  3.233858215E+02  3.233858215E+02  0.000000000E+00  0.00000E+00  9.000E+00
      21    -1     0     0   501   511  0.000000000E+00  0.000000000E+00 -9.698296871E+02  9.698296871E+02  0.000000000E+00  0.00000E+00  9.000E+00
      25     1     1     2     0     0  1.669092844E+01 -1.753320392E+02 -1.158358905E+02  2.450772625E+02  1.250000000E+02  0.00000E+00  9.000E+00
      25     1     1     2     0     0 -1.421448894E+02  2.096125955E+02  1.739338516E+02  3.316935250E+02  1.250000000E+02  0.00000E+00  9.000E+00
      21     1     1     2   502   511  1.254539610E+02 -3.428055630E+01 -7.045418267E+02  7.164447212E+02  1.321449896E-05  0.00000E+00  9.000E+00
#rwgt            1           1   2.9711173213639797E-002           5      264153           0
</event>
<event>
      5   9999  3.19816E-02  1.50234E+02 -1.00000E+00  1.16367E-01
      21    -1     0     0   512   501  0.000000000E+00  0.000000000E+00  1.454821735E+03  1.454821735E+03  0.000000000E+00  0.00000E+00  9.000E+00
      21    -1     0     0   501   502  0.000000000E+00  0.000000000E+00 -1.519815478E+02  1.519815478E+02  0.000000000E+00  0.00000E+00  9.000E+00
      25     1     1     2     0     0  1.519244055E+02 -2.990287217E+02  7.019959326E+02  7.879863519E+02  1.250000000E+02  0.00000E+00  9.000E+00
      25     1     1     2     0     0 -1.593181304E+01  3.628741565E+02  3.185267023E+02  4.990147655E+02  1.250000000E+02  0.00000E+00  9.000E+00
      21     1     1     2   512   502 -1.359925924E+02 -6.384543474E+01  2.823175523E+02  3.198021655E+02  3.814697266E-06  0.00000E+00  9.000E+00
#rwgt            1           1   2.7632926248778864E-002           5      264219           0
</event>
<event>
      5   9999  3.19816E-02  1.30635E+02 -1.00000E+00  1.18824E-01
      21    -1     0     0   502   501  0.000000000E+00  0.000000000E+00  6.767864692E+02  6.767864692E+02  0.000000000E+00  0.00000E+00  9.000E+00
      21    -1     0     0   511   502  0.000000000E+00  0.000000000E+00 -1.624367859E+03  1.624367859E+03  0.000000000E+00  0.00000E+00  9.000E+00
      25     1     1     2     0     0  3.346024874E+02  3.340388243E+02  1.952975653E+02  5.265993731E+02  1.250000000E+02  0.00000E+00  9.000E+00
      25     1     1     2     0     0 -2.732366694E+02 -4.493628692E+02  7.847793783E+01  5.462316838E+02  1.250000000E+02  0.00000E+00  9.000E+00
      21     1     1     2   511   501 -6.136581799E+01  1.153240449E+02 -1.221356893E+03  1.228323271E+03  2.157918644E-05  0.00000E+00  9.000E+00
#rwgt            1           1   2.6394298383436550E-002           5      264266           0
</event>
<event>
      5   9999  3.19816E-02  8.95530E+01 -1.00000E+00  1.26022E-01
      21    -1     0     0   502   512  0.000000000E+00  0.000000000E+00  1.093540259E+03  1.093540259E+03  0.000000000E+00  0.00000E+00  9.000E+00
      21    -1     0     0   501   502  0.000000000E+00  0.000000000E+00 -1.206776180E+02  1.206776180E+02  0.000000000E+00  0.00000E+00  9.000E+00
      25     1     1     2     0     0  1.833864865E+02 -1.249038567E+02  1.541535016E+02  2.976909117E+02  1.250000000E+02  0.00000E+00  9.000E+00
      25     1     1     2     0     0 -1.802550926E+02  2.144021336E+02  5.104218700E+02  5.954961450E+02  1.250000000E+02  0.00000E+00  9.000E+00
      21     1     1     2   501   512 -3.131393886E+00 -8.949827690E+01  3.082872694E+02  3.210308204E+02  3.814697266E-06  0.00000E+00  9.000E+00
#rwgt            1           1   2.8459265334585742E-002           5      264332           0
</event>
<event>
      5   9999  3.19816E-02  4.06193E+01 -1.00000E+00  1.44428E-01
       2    -1     0     0   502     0  0.000000000E+00  0.000000000E+00  1.979480794E+03  1.979480794E+03  0.000000000E+00  0.00000E+00  9.000E+00
      21    -1     0     0   501   502  0.000000000E+00  0.000000000E+00 -5.117097361E+02  5.117097361E+02  0.000000000E+00  0.00000E+00  9.000E+00
      25     1     1     2     0     0  4.074268093E+02 -6.350882706E+02  1.086063845E+03  1.328342347E+03  1.250000000E+02  0.00000E+00  9.000E+00
      25     1     1     2     0     0 -3.692516654E+02  6.489656763E+02 -2.173699069E+01  7.573643365E+02  1.250000000E+02  0.00000E+00  9.000E+00
       2     1     1     2   501     0 -3.817514396E+01 -1.387740572E+01  4.034442040E+02  4.054838465E+02  0.000000000E+00  0.00000E+00  9.000E+00
#rwgt            1           1   3.2385922297203273E-002           5      264383           0
</event>
<event>
      5   9999  3.19816E-02  4.87493E+01 -1.00000E+00  1.39706E-01
      21    -1     0     0   502   511  0.000000000E+00  0.000000000E+00  7.483343830E+02  7.483343830E+02  0.000000000E+00  0.00000E+00  9.000E+00
      21    -1     0     0   501   502  0.000000000E+00  0.000000000E+00 -9.764571289E+01  9.764571289E+01  0.000000000E+00  0.00000E+00  9.000E+00
      25     1     1     2     0     0  1.643356862E+01 -1.560648980E+01  5.598691939E+02  5.741011575E+02  1.250000000E+02  0.00000E+00  9.000E+00
      25     1     1     2     0     0 -5.872072045E+01  3.986122060E+01 -2.529000277E+01  1.459507594E+02  1.250000000E+02  0.00000E+00  9.000E+00
      21     1     1     2   501   511  4.228715183E+01 -2.425473080E+01  1.161094789E+02  1.259281790E+02  1.348699152E-06  0.00000E+00  9.000E+00
#rwgt            1           1   3.0363157764462426E-002           5      264503           0
</event>
<event>
      5   9999  3.19816E-02  1.48762E+02 -1.00000E+00  1.16536E-01
      21    -1     0     0   502   501  0.000000000E+00  0.000000000E+00  8.361606612E+02  8.361606612E+02  0.000000000E+00  0.00000E+00  9.000E+00
      21    -1     0     0   501   512  0.000000000E+00  0.000000000E+00 -2.288357859E+02  2.288357859E+02  0.000000000E+00  0.00000E+00  9.000E+00
      25     1     1     2     0     0  1.411741647E+02  3.435545421E+02  1.492369889E+02  4.193525331E+02  1.250000000E+02  0.00000E+00  9.000E+00
      25     1     1     2     0     0 -3.764605355E+01 -2.367269550E+02  4.065122428E+02  4.881947154E+02  1.250000000E+02  0.00000E+00  9.000E+00
      21     1     1     2   502   512 -1.035281111E+02 -1.068275870E+02  5.157564351E+01  1.574491986E+02  2.336015456E-06  0.00000E+00  9.000E+00
#rwgt            1           1   2.6531576694937668E-002           5      264581           0
</event>
<event>
      5   9999  3.19816E-02  1.04214E+02 -1.00000E+00  1.23027E-01
      21    -1     0     0   502   501  0.000000000E+00  0.000000000E+00  1.145571119E+03  1.145571119E+03  0.000000000E+00  0.00000E+00  9.000E+00
      21    -1     0     0   511   502  0.000000000E+00  0.000000000E+00 -3.028908539E+02  3.028908539E+02  0.000000000E+00  0.00000E+00  9.000E+00
      25     1     1     2     0     0  4.289321729E+01  2.929407321E+02  1.794795735E+02  3.680924041E+02  1.250000000E+02  0.00000E+00  9.000E+00
      25     1     1     2     0     0  4.391933294E+01 -3.505951753E+02  8.145337110E+02  8.966248107E+02  1.250000000E+02  0.00000E+00  9.000E+00
      21     1     1     2   511   501 -8.681255023E+01  5.765444318E+01 -1.513330189E+02  1.837447586E+02  4.264961200E-06  0.00000E+00  9.000E+00
#rwgt            1           1   2.7343866420742831E-002           5      264645           0
</event>
<event>
      5   9999  3.19816E-02  2.06356E+02 -1.00000E+00  1.11156E-01
      21    -1     0     0   502   512  0.000000000E+00  0.000000000E+00  2.682331641E+02  2.682331641E+02  0.000000000E+00  0.00000E+00  9.000E+00
      21    -1     0     0   501   502  0.000000000E+00  0.000000000E+00 -7.591233086E+02  7.591233086E+02  0.000000000E+00  0.00000E+00  9.000E+00
      25     1     1     2     0     0 -1.871170342E+02 -1.817608252E+02 -4.002794012E+02  4.938606900E+02  1.250000000E+02  0.00000E+00  9.000E+00
      25     1     1     2     0     0  2.793792456E+02 -2.821465018E+00  4.871246642E+00  3.061199970E+02  1.250000000E+02  0.00000E+00  9.000E+00
      21     1     1     2   501   512 -9.226221139E+01  1.845822902E+02 -9.548198988E+01  2.273757857E+02  4.264961200E-06  0.00000E+00  9.000E+00
#rwgt            1           1   2.6620034102060142E-002           5      264707           0
</event>
<event>
      5   9999  3.35750E-02  3.03229E+01 -1.00000E+00  1.52718E-01
      21    -1     0     0   502   501  0.000000000E+00  0.000000000E+00  2.081885626E+01  2.081885626E+01  0.000000000E+00  0.00000E+00  9.000E+00
      21    -1     0     0   511   502  0.000000000E+00  0.000000000E+00 -2.259726175E+03  2.259726175E+03  0.000000000E+00  0.00000E+00  9.000E+00
      25     1     1     2     0     0  1.030135509E+02  4.978051160E+01 -1.013797478E+03  1.027861964E+03  1.250000000E+02  0.00000E+00  9.000E+00
      25     1     1     2     0     0 -1.210414880E+02 -7.416224145E+01 -6.548895654E+02  6.816571152E+02  1.250000000E+02  0.00000E+00  9.000E+00
      21     1     1     2   511   501  1.802793707E+01  2.438172985E+01 -5.702202759E+02  5.710259524E+02  0.000000000E+00  0.00000E+00  9.000E+00
#rwgt            1           1   9.9644187778281282E-002           5      264747           0
</event>
<event>
      5   9999  3.19816E-02  7.69487E+01 -1.00000E+00  1.29172E-01
       3    -1     0     0   502     0  0.000000000E+00  0.000000000E+00  1.341563938E+03  1.341563938E+03  0.000000000E+00  0.00000E+00  9.000E+00
      21    -1     0     0   501   502  0.000000000E+00  0.000000000E+00 -5.130100995E+02  5.130100995E+02  0.000000000E+00  0.00000E+00  9.000E+00
      25     1     1     2     0     0  2.814206937E+02 -9.050222591E+00 -4.184037437E+02  5.195827231E+02  1.250000000E+02  0.00000E+00  9.000E+00
      25     1     1     2     0     0 -3.368006845E+02 -4.437408264E+01  7.577630828E+02  8.397819062E+02  1.250000000E+02  0.00000E+00  9.000E+00
       3     1     1     2   501     0  5.537999084E+01  5.342430523E+01  4.891944991E+02  4.952094080E+02  0.000000000E+00  0.00000E+00  9.000E+00
#rwgt            1           1   2.2279818050684977E-002           5      264811           0
</event>
<event>
      5   9999  3.19816E-02  3.30650E+01 -1.00000E+00  1.50162E-01
      21    -1     0     0   502   501  0.000000000E+00  0.000000000E+00  8.897806823E+02  8.897806823E+02  0.000000000E+00  0.00000E+00  9.000E+00
      21    -1     0     0   501   511  0.000000000E+00  0.000000000E+00 -1.065755079E+02  1.065755079E+02  0.000000000E+00  0.00000E+00  9.000E+00
      25     1     1     2     0     0  9.792580258E+00  5.647551599E+01  7.642267010E+02  7.765003728E+02  1.250000000E+02  0.00000E+00  9.000E+00
      25     1     1     2     0     0 -4.244252538E+01 -5.125264481E+01  7.084818361E+01  1.583435085E+02  1.250000000E+02  0.00000E+00  9.000E+00
      21     1     1     2   502   511  3.264994512E+01 -5.222871187E+00 -5.186971021E+01  6.151230883E+01  9.536743164E-07  0.00000E+00  9.000E+00
#rwgt            1           1   3.4314268317078456E-002           5      264916           0
</event>
<event>
      5   9999  3.19816E-02  8.12788E+01 -1.00000E+00  1.28017E-01
      21    -1     0     0   502   501  0.000000000E+00  0.000000000E+00  4.602147283E+02  4.602147283E+02  0.000000000E+00  0.00000E+00  9.000E+00
      21    -1     0     0   501   512  0.000000000E+00  0.000000000E+00 -4.276852016E+02  4.276852016E+02  0.000000000E+00  0.00000E+00  9.000E+00
      25     1     1     2     0     0 -1.542585928E+02 -3.082367559E+02  2.499104831E+01  3.674985220E+02  1.250000000E+02  0.00000E+00  9.000E+00
      25     1     1     2     0     0  1.318818557E+02  3.863746139E+02  4.790840858E+01  4.296491380E+02  1.250000000E+02  0.00000E+00  9.000E+00
      21     1     1     2   502   512  2.237673713E+01 -7.813785800E+01 -4.036993020E+01  9.075226985E+01  8.259061849E-07  0.00000E+00  9.000E+00
#rwgt            1           1   2.6242728866995184E-002           5      264987           0
</event>
<event>
      5   9999  3.19816E-02  3.54886E+01 -1.00000E+00  1.48139E-01
      21    -1     0     0   502   501  0.000000000E+00  0.000000000E+00  1.574851224E+03  1.574851224E+03  0.000000000E+00  0.00000E+00  9.000E+00
      21    -1     0     0   511   502  0.000000000E+00  0.000000000E+00 -5.456446601E+02  5.456446601E+02  0.000000000E+00  0.00000E+00  9.000E+00
      25     1     1     2     0     0 -7.297955154E+02  3.731077865E+02  8.726879489E+02  1.203752537E+03  1.250000000E+02  0.00000E+00  9.000E+00
      25     1     1     2     0     0  7.652723330E+02 -3.721946722E+02  1.734410596E+02  8.774265888E+02  1.250000000E+02  0.00000E+00  9.000E+00
      21     1     1     2   511   501 -3.547681756E+01 -9.131142971E-01 -1.692244435E+01  3.931675831E+01  6.307962682E-07  0.00000E+00  9.000E+00
#rwgt            1           1   2.9201940352064894E-002           5      265053           0
</event>
<event>
      5   9999  3.19816E-02  1.47748E+02 -1.00000E+00  1.16655E-01
      21    -1     0     0   502   501  0.000000000E+00  0.000000000E+00  1.426705958E+03  1.426705958E+03  0.000000000E+00  0.00000E+00  9.000E+00
      21    -1     0     0   501   512  0.000000000E+00  0.000000000E+00 -2.340498181E+02  2.340498181E+02  0.000000000E+00  0.00000E+00  9.000E+00
      25     1     1     2     0     0  3.444001075E+02  8.771467048E+01  6.642774639E+02  7.636719495E+02  1.250000000E+02  0.00000E+00  9.000E+00
      25     1     1     2     0     0 -2.967643630E+02  5.214392636E+01  6.356721430E+02  7.144873334E+02  1.250000000E+02  0.00000E+00  9.000E+00
      21     1     1     2   502   512 -4.763574451E+01 -1.398585968E+02 -1.072934670E+02  1.825964932E+02  2.336015456E-06  0.00000E+00  9.000E+00
#rwgt            2          11   5.2593402938735517E-003           5      265360           0
</event>
<event>
      5   9999  3.19816E-02  4.82371E+01 -1.00000E+00  1.39971E-01
      21    -1     0     0   511   501  0.000000000E+00  0.000000000E+00  2.939468405E+02  2.939468405E+02  0.000000000E+00  0.00000E+00  9.000E+00
      21    -1     0     0   501   502  0.000000000E+00  0.000000000E+00 -1.138047909E+02  1.138047909E+02  0.000000000E+00  0.00000E+00  9.000E+00
      25     1     1     2     0     0 -4.665233614E+00  4.622839870E+01 -2.345282102E+01  1.354025999E+02  1.250000000E+02  0.00000E+00  9.000E+00
      25     1     1     2     0     0  4.169319637E+01 -1.531317463E+01  1.488221673E+02  1.993636211E+02  1.250000000E+02  0.00000E+00  9.000E+00
      21     1     1     2   511   502 -3.702796275E+01 -3.091522407E+01  5.477270335E+01  7.298541044E+01  1.168007728E-06  0.00000E+00  9.000E+00
#rwgt            2          11   2.2078752795531768E-003           5      265380           0
</event>
<event>
      5   9999  3.19816E-02  2.15195E+02 -1.00000E+00  1.10502E-01
      21    -1     0     0   502   501  0.000000000E+00  0.000000000E+00  5.812169614E+02  5.812169614E+02  0.000000000E+00  0.00000E+00  9.000E+00
      21    -1     0     0   512   502  0.000000000E+00  0.000000000E+00 -1.727935959E+03  1.727935959E+03  0.000000000E+00  0.00000E+00  9.000E+00
      25     1     1     2     0     0  3.834815912E+02 -1.587564031E+02  3.978232449E+02  5.883451882E+02  1.250000000E+02  0.00000E+00  9.000E+00
      25     1     1     2     0     0 -5.080219708E+02 -1.673917678E+01 -1.257203983E+03  1.361819877E+03  1.250000000E+02  0.00000E+00  9.000E+00
      21     1     1     2   512   501  1.245403796E+02  1.754955799E+02 -2.873382594E+02  3.589878549E+02  3.814697266E-06  0.00000E+00  9.000E+00
#rwgt            1           1   3.3997184341265897E-002           5      265400           0
</event>
<event>
      5   9999  3.19816E-02  2.09416E+02 -1.00000E+00  1.10925E-01
      21    -1     0     0   502   511  0.000000000E+00  0.000000000E+00  1.451078392E+03  1.451078392E+03  0.000000000E+00  0.00000E+00  9.000E+00
      21    -1     0     0   501   502  0.000000000E+00  0.000000000E+00 -7.915622165E+02  7.915622165E+02  0.000000000E+00  0.00000E+00  9.000E+00
      25     1     1     2     0     0 -2.993463796E+02 -1.198207536E+02 -5.496058653E+02  6.493511185E+02  1.250000000E+02  0.00000E+00  9.000E+00
      25     1     1     2     0     0  3.598707607E+02 -8.065854048E+01  2.436687089E+01  3.901685648E+02  1.250000000E+02  0.00000E+00  9.000E+00
      21     1     1     2   501   511 -6.052438109E+01  2.004792941E+02  1.184755170E+03  1.203120925E+03  2.157918644E-05  0.00000E+00  9.000E+00
#rwgt            1           1   3.1924711862318031E-002           5      265465           0
</event>
<event>
      5   9999  3.19816E-02  2.26405E+01 -1.00000E+00  1.62045E-01
      21    -1     0     0   502   501  0.000000000E+00  0.000000000E+00  4.017164702E+02  4.017164702E+02  0.000000000E+00  0.00000E+00  9.000E+00
      21    -1     0     0   501   512  0.000000000E+00  0.000000000E+00 -2.715882689E+02  2.715882689E+02  0.000000000E+00  0.00000E+00  9.000E+00
      25     1     1     2     0     0 -4.711702125E+01 -1.686569517E+02 -1.671087677E+02  2.724252582E+02  1.250000000E+02  0.00000E+00  9.000E+00
      25     1     1     2     0     0  6.911589801E+01  1.633051804E+02  3.072454535E+02  3.761254551E+02  1.250000000E+02  0.00000E+00  9.000E+00
      21     1     1     2   502   512 -2.199887676E+01  5.351771343E+00 -1.000848445E+01  2.475402586E+01  6.307962682E-07  0.00000E+00  9.000E+00
#rwgt            1           1   2.9501095490763352E-002           5      265501           0
</event>
<event>
      5   9999  3.19816E-02  1.20049E+01 -1.00000E+00  1.87009E-01
      21    -1     0     0   502   501  0.000000000E+00  0.000000000E+00  3.112221356E+02  3.112221356E+02  0.000000000E+00  0.00000E+00  9.000E+00
      21    -1     0     0   501   511  0.000000000E+00  0.000000000E+00 -1.723147512E+03  1.723147512E+03  0.000000000E+00  0.00000E+00  9.000E+00
      25     1     1     2     0     0 -2.281977936E+02  3.812397093E+02  7.776510324E+01  4.680708924E+02  1.250000000E+02  0.00000E+00  9.000E+00
      25     1     1     2     0     0  2.384694288E+02 -3.874535011E+02 -1.449937060E+03  1.524772232E+03  1.250000000E+02  0.00000E+00  9.000E+00
      21     1     1     2   502   511 -1.027163513E+01  6.213791748E+00 -3.975341965E+01  4.152652249E+01  6.743495762E-07  0.00000E+00  9.000E+00
#rwgt            1           1   3.7284876550896053E-002           5      265653           0
</event>
<event>
      5   9999  3.19816E-02  1.83797E+01 -1.00000E+00  1.69455E-01
      21    -1     0     0   502   501  0.000000000E+00  0.000000000E+00  1.075313725E+03  1.075313725E+03  0.000000000E+00  0.00000E+00  9.000E+00
      21    -1     0     0   512   502  0.000000000E+00  0.000000000E+00 -2.053409802E+02  2.053409802E+02  0.000000000E+00  0.00000E+00  9.000E+00
      25     1     1     2     0     0 -3.232533553E+02 -1.966289744E+02  7.532117010E+02  8.521200337E+02  1.250000000E+02  0.00000E+00  9.000E+00
      25     1     1     2     0     0  3.096524630E+02  2.089913252E+02  1.111775773E+02  4.093256351E+02  1.250000000E+02  0.00000E+00  9.000E+00
      21     1     1     2   512   501  1.360089228E+01 -1.236235080E+01  5.583466873E+00  1.920903669E+01  2.230201594E-07  0.00000E+00  9.000E+00
#rwgt            1           1   3.3221522082378739E-002           5      265973           0
</event>
<event>
      5   9999  3.19816E-02  1.40118E+02 -1.00000E+00  1.17579E-01
       2    -1     0     0   502     0  0.000000000E+00  0.000000000E+00  2.122687128E+03  2.122687128E+03  0.000000000E+00  0.00000E+00  9.000E+00
      21    -1     0     0   501   502  0.000000000E+00  0.000000000E+00 -1.586804308E+02  1.586804308E+02  0.000000000E+00  0.00000E+00  9.000E+00
      25     1     1     2     0     0  3.197172548E+02 -1.846871612E+01  7.808984603E+01  3.525382824E+02  1.250000000E+02  0.00000E+00  9.000E+00
      25     1     1     2     0     0 -1.917174937E+02 -3.853180266E+01  7.719389291E+02  8.060738226E+02  1.250000000E+02  0.00000E+00  9.000E+00
       2     1     1     2   501     0 -1.279997611E+02  5.700051878E+01  1.113977922E+03  1.122755454E+03  1.525878906E-05  0.00000E+00  9.000E+00
#rwgt            1           1   2.9357854724572564E-002           5      266162           0
</event>
<event>
      5   9999  3.19816E-02  2.53446E+02 -1.00000E+00  1.08027E-01
      21    -1     0     0   502   501  0.000000000E+00  0.000000000E+00  3.587649402E+02  3.587649402E+02  0.000000000E+00  0.00000E+00  9.000E+00
      21    -1     0     0   501   511  0.000000000E+00  0.000000000E+00 -7.577758470E+02  7.577758470E+02  0.000000000E+00  0.00000E+00  9.000E+00
      25     1     1     2     0     0 -4.981252537E+01 -1.636292672E+02 -4.278421621E+01  2.161280035E+02  1.250000000E+02  0.00000E+00  9.000E+00
      25     1     1     2     0     0 -1.333109276E+02  3.388456377E+02  8.251501967E+01  3.937282033E+02  1.250000000E+02  0.00000E+00  9.000E+00
      21     1     1     2   502   511  1.831234529E+02 -1.752163706E+02 -4.387417103E+02  5.066845803E+02  0.000000000E+00  0.00000E+00  9.000E+00
#rwgt            1           1   2.7366254962452211E-002           5      266222           0
</event>
<event>
      5   9999  3.19816E-02  2.28320E+01 -1.00000E+00  1.61759E-01
      21    -1     0     0   502   501  0.000000000E+00  0.000000000E+00  5.297994683E+02  5.297994683E+02  0.000000000E+00  0.00000E+00  9.000E+00
      21    -1     0     0   501   512  0.000000000E+00  0.000000000E+00 -1.208514137E+03  1.208514137E+03  0.000000000E+00  0.00000E+00  9.000E+00
      25     1     1     2     0     0  3.457946099E+02  2.173817281E+02 -1.039772480E+03  1.124090983E+03  1.250000000E+02  0.00000E+00  9.000E+00
      25     1     1     2     0     0 -3.638056673E+02 -2.033495671E+02  3.851035280E+02  5.810639700E+02  1.250000000E+02  0.00000E+00  9.000E+00
      21     1     1     2   502   512  1.801105737E+01 -1.403216104E+01 -2.404571678E+01  3.315865236E+01  4.768371582E-07  0.00000E+00  9.000E+00
#rwgt            1           1   3.0887346386231029E-002           5      266264           0
</event>
<event>
      5   9999  3.19816E-02  8.50897E+01 -1.00000E+00  1.27066E-01
      21    -1     0     0   502   511  0.000000000E+00  0.000000000E+00  7.110096939E+02  7.110096939E+02  0.000000000E+00  0.00000E+00  9.000E+00
      21    -1     0     0   501   502  0.000000000E+00  0.000000000E+00 -1.254043294E+03  1.254043294E+03  0.000000000E+00  0.00000E+00  9.000E+00
      25     1     1     2     0     0  3.353408184E+02  6.163043860E+02 -1.748489319E+02  7.338131300E+02  1.250000000E+02  0.00000E+00  9.000E+00
      25     1     1     2     0     0 -2.787578246E+02 -5.527542950E+02 -6.681745945E+02  9.194158603E+02  1.250000000E+02  0.00000E+00  9.000E+00
      21     1     1     2   501   511 -5.658299378E+01 -6.355009097E+01  2.999899266E+02  3.118239973E+02  5.394796609E-06  0.00000E+00  9.000E+00
#rwgt            1           1   2.5347416940255000E-002           5      266523           0
</event>
<event>
      5   9999  3.19816E-02  2.20115E+02 -1.00000E+00  1.10154E-01
      21    -1     0     0   502   501  0.000000000E+00  0.000000000E+00  6.373021052E+02  6.373021052E+02  0.000000000E+00  0.00000E+00  9.000E+00
      21    -1     0     0   512   502  0.000000000E+00  0.000000000E+00 -3.496999285E+02  3.496999285E+02  0.000000000E+00  0.00000E+00  9.000E+00
      25     1     1     2     0     0 -1.537423971E+02 -3.016374817E+01  4.561657094E+02  4.982556882E+02  1.250000000E+02  0.00000E+00  9.000E+00
      25     1     1     2     0     0 -4.295696876E+01  1.289555760E+02 -1.932007933E+02  2.672571576E+02  1.250000000E+02  0.00000E+00  9.000E+00
      21     1     1     2   512   501  1.966993659E+02 -9.879182779E+01  2.463726062E+01  2.214891880E+02  2.920019320E-06  0.00000E+00  9.000E+00
#rwgt            2          11   3.5707282154539971E-003           5      266982           0
</event>
<event>
      5   9999  3.19816E-02  1.46326E+01 -1.00000E+00  1.78404E-01
      21    -1     0     0   502   501  0.000000000E+00  0.000000000E+00  2.832920396E+02  2.832920396E+02  0.000000000E+00  0.00000E+00  9.000E+00
      21    -1     0     0   511   502  0.000000000E+00  0.000000000E+00 -2.018102840E+02  2.018102840E+02  0.000000000E+00  0.00000E+00  9.000E+00
      25     1     1     2     0     0  1.930890570E+02  4.177146197E+00  5.286095631E+00  2.301168731E+02  1.250000000E+02  0.00000E+00  9.000E+00
      25     1     1     2     0     0 -1.852210208E+02  8.160115776E+00  8.343171561E+01  2.386614028E+02  1.250000000E+02  0.00000E+00  9.000E+00
      21     1     1     2   511   501 -7.868036235E+00 -1.233726197E+01 -7.236055691E+00  1.632404757E+01  0.000000000E+00  0.00000E+00  9.000E+00
#rwgt            1           1   3.0432350457588735E-002           5      267002           0
</event>
<event>
      5   9999  3.19816E-02  1.25983E+02 -1.00000E+00  1.19478E-01
      21    -1     0     0   502   501  0.000000000E+00  0.000000000E+00  2.839262232E+02  2.839262232E+02  0.000000000E+00  0.00000E+00  9.000E+00
      21    -1     0     0   512   502  0.000000000E+00  0.000000000E+00 -9.218713632E+02  9.218713632E+02  0.000000000E+00  0.00000E+00  9.000E+00
      25     1     1     2     0     0 -2.542096177E+02 -1.466023588E+02 -4.781100673E+02  5.747425665E+02  1.250000000E+02  0.00000E+00  9.000E+00
      25     1     1     2     0     0  1.423984128E+02  2.046534348E+02  1.354249744E+02  3.100407393E+02  1.250000000E+02  0.00000E+00  9.000E+00
      21     1     1     2   512   501  1.118112049E+02 -5.805107591E+01 -2.952600471E+02  3.210142806E+02  3.814697266E-06  0.00000E+00  9.000E+00
#rwgt            1           1   2.8046708442966521E-002           5      267210           0
</event>
<event>
      5   9999  3.19816E-02  8.36788E+01 -1.00000E+00  1.27411E-01
      21    -1     0     0   502   501  0.000000000E+00  0.000000000E+00  1.813444565E+02  1.813444565E+02  0.000000000E+00  0.00000E+00  9.000E+00
      21    -1     0     0   511   502  0.000000000E+00  0.000000000E+00 -5.645282249E+02  5.645282249E+02  0.000000000E+00  0.00000E+00  9.000E+00
      25     1     1     2     0     0 -2.427427235E+02 -3.515895617E+01 -5.594321546E+01  2.809178267E+02  1.250000000E+02  0.00000E+00  9.000E+00
      25     1     1     2     0     0  2.082730451E+02 -4.109047841E+01 -2.360625857E+02  3.411988176E+02  1.250000000E+02  0.00000E+00  9.000E+00
      21     1     1     2   511   501  3.446967843E+01  7.624943458E+01 -9.117796730E+01  1.237560371E+02  1.348699152E-06  0.00000E+00  9.000E+00
#rwgt            1           1   2.8614964368134901E-002           5      267264           0
</event>
<event>
      5   9999  3.19816E-02  1.01699E+02 -1.00000E+00  1.23500E-01
      21    -1     0     0   502   501  0.000000000E+00  0.000000000E+00  2.189907273E+02  2.189907273E+02  0.000000000E+00  0.00000E+00  9.000E+00
       1    -1     0     0   501     0  0.000000000E+00  0.000000000E+00 -1.748589227E+03  1.748589227E+03  0.000000000E+00  0.00000E+00  9.000E+00
      25     1     1     2     0     0  1.262088602E+02 -2.216174233E+02 -1.481025313E+03  1.508013242E+03  1.250000000E+02  0.00000E+00  9.000E+00
      25     1     1     2     0     0 -3.370104794E+01  1.793689636E+02  1.281656362E+02  2.556568326E+02  1.250000000E+02  0.00000E+00  9.000E+00
       1     1     1     2   502     0 -9.250781226E+01  4.224845968E+01 -1.767388224E+02  2.039098796E+02  1.907348633E-06  0.00000E+00  9.000E+00
#rwgt            1           1   3.4577111494052112E-002           5      267319           0
</event>
<event>
      5   9999  3.19816E-02  2.97859E+01 -1.00000E+00  1.53256E-01
       2    -1     0     0   502     0  0.000000000E+00  0.000000000E+00  1.510169675E+03  1.510169675E+03  0.000000000E+00  0.00000E+00  9.000E+00
      21    -1     0     0   501   502  0.000000000E+00  0.000000000E+00 -2.939958718E+03  2.939958718E+03  0.000000000E+00  0.00000E+00  9.000E+00
      25     1     1     2     0     0  8.694107546E+02  1.515417587E+03  4.025573736E+02  1.797232028E+03  1.250000000E+02  0.00000E+00  9.000E+00
      25     1     1     2     0     0 -8.724175132E+02 -1.545051319E+03 -1.885410388E+03  2.592044218E+03  1.250000000E+02  0.00000E+00  9.000E+00
       2     1     1     2   501     0  3.006758629E+00  2.963373152E+01  5.306397137E+01  6.085214621E+01  1.348699152E-06  0.00000E+00  9.000E+00
#rwgt            1           1   1.1499607404842030E-002           5      267389           0
</event>
<event>
      5   9999  3.19816E-02  5.51577E+01 -1.00000E+00  1.36686E-01
      21    -1     0     0   502   501  0.000000000E+00  0.000000000E+00  4.614568473E+01  4.614568473E+01  0.000000000E+00  0.00000E+00  9.000E+00
      21    -1     0     0   511   502  0.000000000E+00  0.000000000E+00 -1.335016356E+03  1.335016356E+03  0.000000000E+00  0.00000E+00  9.000E+00
      25     1     1     2     0     0  1.371337114E+01  1.394671868E+02 -2.750749072E+02  3.330620923E+02  1.250000000E+02  0.00000E+00  9.000E+00
      25     1     1     2     0     0  3.738119778E+01 -1.602450110E+02 -7.152713723E+02  7.445226347E+02  1.250000000E+02  0.00000E+00  9.000E+00
      21     1     1     2   511   501 -5.109456892E+01  2.077782415E+01 -2.985243921E+02  3.035773141E+02  3.814697266E-06  0.00000E+00  9.000E+00
#rwgt            1           1   2.9662213501907037E-002           5      267764           0
</event>
<event>
      5   9999  3.19816E-02  2.15180E+02 -1.00000E+00  1.10504E-01
      21    -1     0     0   502   501  0.000000000E+00  0.000000000E+00  4.138049862E+02  4.138049862E+02  0.000000000E+00  0.00000E+00  9.000E+00
      21    -1     0     0   512   502  0.000000000E+00  0.000000000E+00 -3.164156534E+02  3.164156534E+02  0.000000000E+00  0.00000E+00  9.000E+00
      25     1     1     2     0     0 -1.514930940E+02 -9.928533883E+01  1.565711257E+02  2.700874922E+02  1.250000000E+02  0.00000E+00  9.000E+00
      25     1     1     2     0     0 -4.426052743E+01  1.886319455E+02 -7.973349176E+01  2.439742504E+02  1.250000000E+02  0.00000E+00  9.000E+00
      21     1     1     2   512   501  1.957536214E+02 -8.934660669E+01  2.055169895E+01  2.161588970E+02  3.126830351E-06  0.00000E+00  9.000E+00
#rwgt            1           1   2.4739351563688537E-002           5      267824           0
</event>
<event>
      5   9999  3.19816E-02  6.09219E+01 -1.00000E+00  1.34350E-01
      21    -1     0     0   502   501  0.000000000E+00  0.000000000E+00  2.472423060E+03  2.472423060E+03  0.000000000E+00  0.00000E+00  9.000E+00
      21    -1     0     0   501   511  0.000000000E+00  0.000000000E+00 -2.747140536E+01  2.747140536E+01  0.000000000E+00  0.00000E+00  9.000E+00
      25     1     1     2     0     0  9.593461025E+01  2.762220304E+01  2.029294579E+03  2.035590313E+03  1.250000000E+02  0.00000E+00  9.000E+00
      25     1     1     2     0     0 -3.553441313E+01 -1.966648864E+01  1.932876687E+02  2.337404291E+02  1.250000000E+02  0.00000E+00  9.000E+00
      21     1     1     2   502   511 -6.040019712E+01 -7.955714397E+00  2.223694072E+02  2.305637232E+02  0.000000000E+00  0.00000E+00  9.000E+00
#rwgt            1           1   7.0375897044542349E-002           5      267911           0
</event>
<event>
      5   9999  3.19816E-02  1.61731E+02 -1.00000E+00  1.15112E-01
      21    -1     0     0   512   501  0.000000000E+00  0.000000000E+00  1.144122836E+03  1.144122836E+03  0.000000000E+00  0.00000E+00  9.000E+00
      21    -1     0     0   501   502  0.000000000E+00  0.000000000E+00 -2.681102572E+02  2.681102572E+02  0.000000000E+00  0.00000E+00  9.000E+00
      25     1     1     2     0     0 -1.619866704E+02  5.911110064E+01 -1.769128214E+02  2.768699153E+02  1.250000000E+02  0.00000E+00  9.000E+00
      25     1     1     2     0     0  7.487419153E+01 -1.953771344E+02  7.893717190E+02  8.261422879E+02  1.250000000E+02  0.00000E+00  9.000E+00
      21     1     1     2   512   502  8.711247884E+01  1.362660337E+02  2.635536818E+02  3.092208905E+02  3.814697266E-06  0.00000E+00  9.000E+00
#rwgt            1           1   2.8320313955969040E-002           5      268013           0
</event>
<event>
      5   9999  3.19816E-02  2.24459E+02 -1.00000E+00  1.09854E-01
       1    -1     0     0   502     0  0.000000000E+00  0.000000000E+00  2.540471682E+03  2.540471682E+03  0.000000000E+00  0.00000E+00  9.000E+00
      21    -1     0     0   501   502  0.000000000E+00  0.000000000E+00 -1.083479221E+03  1.083479221E+03  0.000000000E+00  0.00000E+00  9.000E+00
      25     1     1     2     0     0  5.107248837E+02  7.885993865E+02 -2.102404392E+02  9.708526879E+02  1.250000000E+02  0.00000E+00  9.000E+00
      25     1     1     2     0     0 -3.624672321E+02 -9.571274150E+02  6.273310280E+01  1.032974262E+03  1.250000000E+02  0.00000E+00  9.000E+00
       1     1     1     2   501     0 -1.482576517E+02  1.685280285E+02  1.604499797E+03  1.620123954E+03  0.000000000E+00  0.00000E+00  9.000E+00
#rwgt            1           1   3.1569865749272924E-002           5      268097           0
</event>
<event>
      5   9999  3.19816E-02  2.06625E+01 -1.00000E+00  1.65210E-01
      21    -1     0     0   511   501  0.000000000E+00  0.000000000E+00  6.874752094E+02  6.874752094E+02  0.000000000E+00  0.00000E+00  9.000E+00
      21    -1     0     0   501   502  0.000000000E+00  0.000000000E+00 -4.487687132E+02  4.487687132E+02  0.000000000E+00  0.00000E+00  9.000E+00
      25     1     1     2     0     0 -4.832661065E+02 -4.921307651E+01  2.260813548E+02  5.501870914E+02  1.250000000E+02  0.00000E+00  9.000E+00
      25     1     1     2     0     0  5.022980906E+02  5.725822297E+01 -4.705906346E+01  5.228971518E+02  1.250000000E+02  0.00000E+00  9.000E+00
      21     1     1     2   511   502 -1.903198413E+01 -8.045146465E+00  5.968420481E+01  6.315967943E+01  0.000000000E+00  0.00000E+00  9.000E+00
#rwgt            1           1   3.0638382709136630E-002           5      268220           0
</event>
<event>
      5   9999  3.19816E-02  9.62961E+01 -1.00000E+00  1.24570E-01
      21    -1     0     0   512   501  0.000000000E+00  0.000000000E+00  4.708976059E+02  4.708976059E+02  0.000000000E+00  0.00000E+00  9.000E+00
      21    -1     0     0   501   502  0.000000000E+00  0.000000000E+00 -5.232382963E+02  5.232382963E+02  0.000000000E+00  0.00000E+00  9.000E+00
      25     1     1     2     0     0 -9.626082824E+01 -4.288773751E+02 -3.881674161E+01  4.586215100E+02  1.250000000E+02  0.00000E+00  9.000E+00
      25     1     1     2     0     0  5.123520224E-01  4.186217905E+02 -2.959088076E+01  4.378870702E+02  1.250000000E+02  0.00000E+00  9.000E+00
      21     1     1     2   512   502  9.574847622E+01  1.025558463E+01  1.606693202E+01  9.762732209E+01  2.407909617E-06  0.00000E+00  9.000E+00
#rwgt            1           1   2.9377152946092899E-002           5      268445           0
</event>
<event>
      5   9999  3.19816E-02  6.19660E+01 -1.00000E+00  1.33959E-01
      21    -1     0     0   502   511  0.000000000E+00  0.000000000E+00  1.791131581E+02  1.791131581E+02  0.000000000E+00  0.00000E+00  9.000E+00
      21    -1     0     0   501   502  0.000000000E+00  0.000000000E+00 -3.028142888E+02  3.028142888E+02  0.000000000E+00  0.00000E+00  9.000E+00
      25     1     1     2     0     0 -2.677293225E+01  3.357825018E+01  6.384977404E+01  1.467858387E+02  1.250000000E+02  0.00000E+00  9.000E+00
      25     1     1     2     0     0 -1.662005215E+01 -7.781430059E+01 -2.199582398E+02  2.652129687E+02  1.250000000E+02  0.00000E+00  9.000E+00
      21     1     1     2   501   511  4.339298440E+01  4.423605041E+01  3.240733511E+01  6.992863949E+01  8.259061849E-07  0.00000E+00  9.000E+00
#rwgt            1           1   2.5376022479540909E-002           5      268560           0
</event>
<event>
      5   9999  3.19816E-02  6.73600E+01 -1.00000E+00  1.32072E-01
       5    -1     0     0   502     0  0.000000000E+00  0.000000000E+00  6.034309293E+02  6.034309293E+02  0.000000000E+00  0.00000E+00  9.000E+00
      21    -1     0     0   501   502  0.000000000E+00  0.000000000E+00 -2.140819918E+02  2.140819918E+02  0.000000000E+00  0.00000E+00  9.000E+00
      25     1     1     2     0     0 -1.003684838E+02  2.808085218E+02  3.576756555E+01  3.253176558E+02  1.250000000E+02  0.00000E+00  9.000E+00
      25     1     1     2     0     0  9.961789040E+01 -2.134527400E+02  2.332022494E+02  3.542514438E+02  1.250000000E+02  0.00000E+00  9.000E+00
       5     1     1     2   501     0  7.505934392E-01 -6.735578173E+01  1.203791226E+02  1.379438215E+02  1.907348633E-06  0.00000E+00  9.000E+00
#rwgt            2          21   4.8769296668029886E-006           5      268725           0
</event>
<event>
      5   9999  3.19816E-02  6.46182E+01 -1.00000E+00  1.33005E-01
      21    -1     0     0   502   511  0.000000000E+00  0.000000000E+00  2.681343732E+02  2.681343732E+02  0.000000000E+00  0.00000E+00  9.000E+00
      21    -1     0     0   501   502  0.000000000E+00  0.000000000E+00 -2.508422292E+02  2.508422292E+02  0.000000000E+00  0.00000E+00  9.000E+00
      25     1     1     2     0     0 -8.067647305E+01 -4.723020653E+01 -1.532040233E+02  2.187141021E+02  1.250000000E+02  0.00000E+00  9.000E+00
      25     1     1     2     0     0  6.016534451E+01  1.085067228E+02  1.530514278E+02  2.333309176E+02  1.250000000E+02  0.00000E+00  9.000E+00
      21     1     1     2   501   511  2.051112854E+01 -6.127651623E+01  1.744473941E+01  6.693158274E+01  6.743495762E-07  0.00000E+00  9.000E+00
#rwgt            1           1   2.9076228198967363E-002           5      268744           0
</event>
<event>
      5   9999  3.19816E-02  2.84093E+01 -1.00000E+00  1.54702E-01
      21    -1     0     0   502   501  0.000000000E+00  0.000000000E+00  2.575723209E+03  2.575723209E+03  0.000000000E+00  0.00000E+00  9.000E+00
      21    -1     0     0   512   502  0.000000000E+00  0.000000000E+00 -1.400261013E+02  1.400261013E+02  0.000000000E+00  0.00000E+00  9.000E+00
      25     1     1     2     0     0 -4.826982445E+02 -2.193117412E+02  9.296022083E+02  1.077441646E+03  1.250000000E+02  0.00000E+00  9.000E+00
      25     1     1     2     0     0  4.804389319E+02  1.909923779E+02  1.517251418E+03  1.607786217E+03  1.250000000E+02  0.00000E+00  9.000E+00
      21     1     1     2   512   501  2.259312595E+00  2.831936330E+01 -1.115651822E+01  3.052144705E+01  3.576278687E-07  0.00000E+00  9.000E+00
#rwgt            1           1   2.2670632526323748E-002           5      268802           0
</event>
<event>
      5   9999  3.19816E-02  6.14794E+01 -1.00000E+00  1.34141E-01
      21    -1     0     0   502   511  0.000000000E+00  0.000000000E+00  2.016689248E+03  2.016689248E+03  0.000000000E+00  0.00000E+00  9.000E+00
      21    -1     0     0   501   502  0.000000000E+00  0.000000000E+00 -5.481042022E+01  5.481042022E+01  0.000000000E+00  0.00000E+00  9.000E+00
      25     1     1     2     0     0 -6.303295768E+01  1.124057873E+02  1.515714292E+03  1.526310266E+03  1.250000000E+02  0.00000E+00  9.000E+00
      25     1     1     2     0     0  1.158438879E+02 -1.438815769E+02  2.297260521E+02  3.201886530E+02  1.250000000E+02  0.00000E+00  9.000E+00
      21     1     1     2   501   511 -5.281093021E+01  3.147578951E+01  2.164384842E+02  2.250007492E+02  2.697398305E-06  0.00000E+00  9.000E+00
#rwgt            1           1   3.1338122689188237E-002           5      268955           0
</event>
<event>
      5   9999  3.19816E-02  1.54745E+02 -1.00000E+00  1.15860E-01
      21    -1     0     0   502   501  0.000000000E+00  0.000000000E+00  4.541755345E+02  4.541755345E+02  0.000000000E+00  0.00000E+00  9.000E+00
       2    -1     0     0   501     0  0.000000000E+00  0.000000000E+00 -4.685130543E+02  4.685130543E+02  0.000000000E+00  0.00000E+00  9.000E+00
      25     1     1     2     0     0 -1.243786070E+02 -8.767948116E+01  3.369366079E+02  3.902678658E+02  1.250000000E+02  0.00000E+00  9.000E+00
      25     1     1     2     0     0 -1.383438506E+01  1.808630534E+01  2.144544014E+01  1.288542260E+02  1.250000000E+02  0.00000E+00  9.000E+00
       2     1     1     2   502     0  1.382129921E+02  6.959317582E+01 -3.727195678E+02  4.035664970E+02  0.000000000E+00  0.00000E+00  9.000E+00
#rwgt            1           1   2.2279125880225913E-002           5      269011           0
</event>
<event>
      5   9999  3.19816E-02  2.57451E+02 -1.00000E+00  1.07796E-01
       2    -1     0     0   502     0  0.000000000E+00  0.000000000E+00  1.107709457E+03  1.107709457E+03  0.000000000E+00  0.00000E+00  9.000E+00
      21    -1     0     0   501   502  0.000000000E+00  0.000000000E+00 -5.482188975E+02  5.482188975E+02  0.000000000E+00  0.00000E+00  9.000E+00
      25     1     1     2     0     0  2.871981333E+02  4.807368006E+02  3.636522676E+02  6.793074495E+02  1.250000000E+02  0.00000E+00  9.000E+00
      25     1     1     2     0     0 -5.300890101E+02 -3.953828572E+02  3.682229820E+01  6.740199137E+02  1.250000000E+02  0.00000E+00  9.000E+00
       2     1     1     2   501     0  2.428908768E+02 -8.535394341E+01  1.590159937E+02  3.026009913E+02  3.814697266E-06  0.00000E+00  9.000E+00
#rwgt            2          18   5.6863194038547175E-004           5      269243           0
</event>
<event>
      5   9999  3.19816E-02  2.31034E+01 -1.00000E+00  1.61361E-01
      21    -1     0     0   511   501  0.000000000E+00  0.000000000E+00  8.088085986E+02  8.088085986E+02  0.000000000E+00  0.00000E+00  9.000E+00
      21    -1     0     0   501   502  0.000000000E+00  0.000000000E+00 -2.902268818E+02  2.902268818E+02  0.000000000E+00  0.00000E+00  9.000E+00
      25     1     1     2     0     0  6.637772123E+01  2.002706062E+00  1.909062257E+02  2.376556326E+02  1.250000000E+02  0.00000E+00  9.000E+00
      25     1     1     2     0     0 -4.662872695E+01 -1.399198837E+01 -2.497479686E+02  2.834943769E+02  1.250000000E+02  0.00000E+00  9.000E+00
      21     1     1     2   511   502 -1.974899429E+01  1.198928231E+01  5.774234597E+02  5.778854709E+02  1.078959322E-05  0.00000E+00  9.000E+00
#rwgt            1           1   2.8221796489660219E-002           5      269277           0
</event>
<event>
      5   9999  3.19816E-02  1.83276E+01 -1.00000E+00  1.69560E-01
      21    -1     0     0   512   501  0.000000000E+00  0.000000000E+00  1.968337130E+02  1.968337130E+02  0.000000000E+00  0.00000E+00  9.000E+00
      21    -1     0     0   501   502  0.000000000E+00  0.000000000E+00 -2.993576460E+02  2.993576460E+02  0.000000000E+00  0.00000E+00  9.000E+00
      25     1     1     2     0     0 -7.180041696E+01 -1.588651000E+02 -6.621600156E+01  2.245060773E+02  1.250000000E+02  0.00000E+00  9.000E+00
      25     1     1     2     0     0  8.878683157E+01  1.519829997E+02 -7.526676933E+01  2.286307508E+02  1.250000000E+02  0.00000E+00  9.000E+00
      21     1     1     2   512   502 -1.698641462E+01  6.882100335E+00  3.895883789E+01  4.305453096E+01  6.743495762E-07  0.00000E+00  9.000E+00
#rwgt            1           1   2.6956959977699178E-002           5      269389           0
</event>
<event>
      5   9999  3.19816E-02  7.39200E+01 -1.00000E+00  1.30033E-01
       2    -1     0     0   502     0  0.000000000E+00  0.000000000E+00  1.189615741E+03  1.189615741E+03  0.000000000E+00  0.00000E+00  9.000E+00
      21    -1     0     0   501   502  0.000000000E+00  0.000000000E+00 -1.805923916E+02  1.805923916E+02  0.000000000E+00  0.00000E+00  9.000E+00
      25     1     1     2     0     0  2.750344178E+02  9.263109185E+01  2.004353765E+02  3.741975284E+02  1.250000000E+02  0.00000E+00  9.000E+00
      25     1     1     2     0     0 -3.132223098E+02 -1.559229096E+02  2.877195716E+02  4.699231011E+02  1.250000000E+02  0.00000E+00  9.000E+00
       2     1     1     2   501     0  3.818789201E+01  6.329181779E+01  5.208684016E+02  5.260875033E+02  0.000000000E+00  0.00000E+00  9.000E+00
#rwgt            1           1   2.5357488115530645E-002           5      269521           0
</event>
<event>
      5   9999  3.19816E-02  6.78818E+01 -1.00000E+00  1.31900E-01
      21    -1     0     0   502   501  0.000000000E+00  0.000000000E+00  3.267129427E+02  3.267129427E+02  0.000000000E+00  0.00000E+00  9.000E+00
      21    -1     0     0   511   502  0.000000000E+00  0.000000000E+00 -2.417255037E+02  2.417255037E+02  0.000000000E+00  0.00000E+00  9.000E+00
      25     1     1     2     0     0 -8.049850869E+01 -8.860734314E-01  2.325922315E+02  2.760524247E+02  1.250000000E+02  0.00000E+00  9.000E+00
      25     1     1     2     0     0  1.246521005E+02  5.244567480E+01 -1.146332026E+02  2.169204142E+02  1.250000000E+02  0.00000E+00  9.000E+00
      21     1     1     2   511   501 -4.415359184E+01 -5.155960137E+01 -3.297158987E+01  7.546560743E+01  4.768371582E-07  0.00000E+00  9.000E+00
#rwgt            1           1   3.3629744665118456E-002           5      269598           0
</event>
<event>
      5   9999  3.19816E-02  1.87839E+02 -1.00000E+00  1.12649E-01
       2    -1     0     0   502     0  0.000000000E+00  0.000000000E+00  3.581548909E+02  3.581548909E+02  0.000000000E+00  0.00000E+00  9.000E+00
      21    -1     0     0   501   502  0.000000000E+00  0.000000000E+00 -3.962663629E+02  3.962663629E+02  0.000000000E+00  0.00000E+00  9.000E+00
      25     1     1     2     0     0 -2.024765264E+01  1.394425372E+02  7.671340148E+01  2.033817460E+02  1.250000000E+02  0.00000E+00  9.000E+00
      25     1     1     2     0     0  7.085313018E+01 -3.203359759E+02 -7.707070909E+01  3.594442901E+02  1.250000000E+02  0.00000E+00  9.000E+00
       2     1     1     2   501     0 -5.060547753E+01  1.808934387E+02 -3.775416439E+01  1.915952177E+02  2.697398305E-06  0.00000E+00  9.000E+00
#rwgt            1           1   2.7240735511103877E-002           5      269661           0
</event>
<event>
      5   9999  3.19816E-02  5.73812E+01 -1.00000E+00  1.35747E-01
      21    -1     0     0   502   501  0.000000000E+00  0.000000000E+00  2.981067433E+02  2.981067433E+02  0.000000000E+00  0.00000E+00  9.000E+00
      21    -1     0     0   511   502  0.000000000E+00  0.000000000E+00 -1.387807717E+03  1.387807717E+03  0.000000000E+00  0.00000E+00  9.000E+00
      25     1     1     2     0     0  7.016276380E+01 -5.453986455E+01 -1.794632021E+02  2.360708605E+02  1.250000000E+02  0.00000E+00  9.000E+00
      25     1     1     2     0     0 -1.357681384E+01  6.406006040E+01  2.505941985E+02  2.875942864E+02  1.250000000E+02  0.00000E+00  9.000E+00
      21     1     1     2   511   501 -5.658594996E+01 -9.520195857E+00 -1.160831970E+03  1.162249313E+03  0.000000000E+00  0.00000E+00  9.000E+00
#rwgt            1           1   2.4550897708155998E-002           5      269704           0
</event>
<event>
      5   9999  3.19816E-02  8.05570E+02 -1.00000E+00  9.33033E-02
      21    -1     0     0   502   501  0.000000000E+00  0.000000000E+00  1.134675499E+03  1.134675499E+03  0.000000000E+00  0.00000E+00  9.000E+00
      21    -1     0     0   512   502  0.000000000E+00  0.000000000E+00 -8.113195969E+02  8.113195969E+02  0.000000000E+00  0.00000E+00  9.000E+00
      25     1     1     2     0     0  4.548270817E+02 -3.057999601E+02  6.126307506E+01  5.654727706E+02  1.250000000E+02  0.00000E+00  9.000E+00
      25     1     1     2     0     0  3.501439970E+02  2.747501851E+02  3.361057457E+02  5.715597564E+02  1.250000000E+02  0.00000E+00  9.000E+00
      21     1     1     2   512   501 -8.049710787E+02  3.104977499E+01 -7.401291854E+01  8.089625691E+02  1.318004128E-05  0.00000E+00  9.000E+00
#rwgt            2          11   1.7888915830847161E-003           5      269818           0
</event>
<event>
      5   9999  3.19816E-02  2.35988E+02 -1.00000E+00  1.09093E-01
       1    -1     0     0   502     0  0.000000000E+00  0.000000000E+00  1.350753610E+03  1.350753610E+03  0.000000000E+00  0.00000E+00  9.000E+00
      21    -1     0     0   501   502  0.000000000E+00  0.000000000E+00 -7.973331267E+02  7.973331267E+02  0.000000000E+00  0.00000E+00  9.000E+00
      25     1     1     2     0     0 -1.347140880E+02  2.681575509E+02 -3.299222086E+02  4.631738565E+02  1.250000000E+02  0.00000E+00  9.000E+00
      25     1     1     2     0     0  2.786631998E+02 -4.551570250E+02 -1.944414375E+02  5.815957093E+02  1.250000000E+02  0.00000E+00  9.000E+00
       1     1     1     2   501     0 -1.439491119E+02  1.869994741E+02  1.077784129E+03  1.103317171E+03  0.000000000E+00  0.00000E+00  9.000E+00
#rwgt            1           1   2.8468961739900253E-002           5      269868           0
</event>
<event>
      5   9999  3.19816E-02  3.00870E+01 -1.00000E+00  1.52953E-01
      21    -1     0     0   502   501  0.000000000E+00  0.000000000E+00  3.197151178E+03  3.197151178E+03  0.000000000E+00  0.00000E+00  9.000E+00
      21    -1     0     0   511   502  0.000000000E+00  0.000000000E+00 -3.944862024E+01  3.944862024E+01  0.000000000E+00  0.00000E+00  9.000E+00
      25     1     1     2     0     0  1.932394947E+02  1.780630074E+02  2.149870629E+03  2.169473821E+03  1.250000000E+02  0.00000E+00  9.000E+00
      25     1     1     2     0     0 -1.638345586E+02 -1.716931452E+02  1.000945252E+03  1.036260921E+03  1.250000000E+02  0.00000E+00  9.000E+00
      21     1     1     2   511   501 -2.940493607E+01 -6.369862226E+00  6.886676793E+00  3.086505674E+01  1.387649384E-06  0.00000E+00  9.000E+00
#rwgt            1           1   2.3273313838468559E-002           5      269919           0
</event>
<event>
      5   9999  3.19816E-02  1.80602E+01 -1.00000E+00  1.70110E-01
      21    -1     0     0   502   501  0.000000000E+00  0.000000000E+00  1.654649431E+02  1.654649431E+02  0.000000000E+00  0.00000E+00  9.000E+00
      21    -1     0     0   512   502  0.000000000E+00  0.000000000E+00 -4.062738170E+02  4.062738170E+02  0.000000000E+00  0.00000E+00  9.000E+00
      25     1     1     2     0     0 -2.526877310E+01  1.798915267E+02 -1.989432434E+02  2.969897075E+02  1.250000000E+02  0.00000E+00  9.000E+00
      25     1     1     2     0     0  3.571709442E+01 -1.651604605E+02  1.920605135E+01  2.110629313E+02  1.250000000E+02  0.00000E+00  9.000E+00
      21     1     1     2   512   501 -1.044832132E+01 -1.473106617E+01 -6.107168183E+01  6.368612133E+01  6.743495762E-07  0.00000E+00  9.000E+00
#rwgt            1           1   3.4069139840773227E-002           5      270009           0
</event>
<event>
      5   9999  3.19816E-02  6.93236E+01 -1.00000E+00  1.31435E-01
      21    -1     0     0   511   501  0.000000000E+00  0.000000000E+00  3.346565722E+02  3.346565722E+02  0.000000000E+00  0.00000E+00  9.000E+00
      21    -1     0     0   501   502  0.000000000E+00  0.000000000E+00 -3.647014042E+02  3.647014042E+02  0.000000000E+00  0.00000E+00  9.000E+00
      25     1     1     2     0     0  7.584022641E+01 -2.282311723E+02  5.204670578E+01  2.759983107E+02  1.250000000E+02  0.00000E+00  9.000E+00
      25     1     1     2     0     0 -1.399446097E+02  2.546202489E+02 -1.269169441E+02  3.408062142E+02  1.250000000E+02  0.00000E+00  9.000E+00
      21     1     1     2   511   502  6.410438327E+01 -2.638907661E+01  4.482540620E+01  8.255345153E+01  1.430511475E-06  0.00000E+00  9.000E+00
#rwgt            1           1   2.8092869291634931E-002           5      270127           0
</event>
<event>
      5   9999  3.19816E-02  8.84686E+01 -1.00000E+00  1.26269E-01
      21    -1     0     0   502   501  0.000000000E+00  0.000000000E+00  3.397575470E+03  3.397575470E+03  0.000000000E+00  0.00000E+00  9.000E+00
      21    -1     0     0   512   502  0.000000000E+00  0.000000000E+00 -1.010738743E+02  1.010738743E+02  0.000000000E+00  0.00000E+00  9.000E+00
      25     1     1     2     0     0  4.531059746E+01  4.282232959E+02  1.567741095E+03  1.630602767E+03  1.250000000E+02  0.00000E+00  9.000E+00
      25     1     1     2     0     0 -1.298391046E+02 -4.543311159E+02  1.708834347E+03  1.777361748E+03  1.250000000E+02  0.00000E+00  9.000E+00
      21     1     1     2   512   501  8.452850717E+01  2.610781999E+01  1.992615335E+01  9.068482992E+01  1.348699152E-06  0.00000E+00  9.000E+00
#rwgt            1           1   2.9067828348209531E-002           5      270201           0
</event>
<event>
      5   9999  3.19816E-02  2.02044E+01 -1.00000E+00  1.66005E-01
      21    -1     0     0   511   501  0.000000000E+00  0.000000000E+00  7.881454650E+02  7.881454650E+02  0.000000000E+00  0.00000E+00  9.000E+00
      21    -1     0     0   501   502  0.000000000E+00  0.000000000E+00 -3.608370585E+02  3.608370585E+02  0.000000000E+00  0.00000E+00  9.000E+00
      25     1     1     2     0     0 -1.056563022E+02  1.208311012E+02 -3.113582495E+02  3.719305966E+02  1.250000000E+02  0.00000E+00  9.000E+00
      25     1     1     2     0     0  1.194493913E+02 -1.355949185E+02  6.956650773E+02  7.295402927E+02  1.250000000E+02  0.00000E+00  9.000E+00
      21     1     1     2   511   502 -1.379308916E+01  1.476381737E+01  4.300157869E+01  4.751163417E+01  0.000000000E+00  0.00000E+00  9.000E+00
#rwgt            1           1   2.8840546141937436E-002           5      270267           0
</event>
<event>
      5   9999  3.19816E-02  3.82646E+01 -1.00000E+00  1.46045E-01
      21    -1     0     0   512   501  0.000000000E+00  0.000000000E+00  1.231240866E+03  1.231240866E+03  0.000000000E+00  0.00000E+00  9.000E+00
      21    -1     0     0   501   502  0.000000000E+00  0.000000000E+00 -7.707564382E+02  7.707564382E+02  0.000000000E+00  0.00000E+00  9.000E+00
      25     1     1     2     0     0 -3.208452174E+02  8.429054278E+02  3.099544248E+02  9.618357236E+02  1.250000000E+02  0.00000E+00  9.000E+00
      25     1     1     2     0     0  2.936749898E+02 -8.159618363E+02 -8.894445379E+00  8.762093524E+02  1.250000000E+02  0.00000E+00  9.000E+00
      21     1     1     2   512   502  2.717022761E+01 -2.694359149E+01  1.594244482E+02  1.639522280E+02  2.697398305E-06  0.00000E+00  9.000E+00
#rwgt            1           1   3.7763331741257330E-002           5      270516           0
</event>
<event>
      5   9999  3.19816E-02  4.07122E+02 -1.00000E+00  1.01455E-01
      21    -1     0     0   502   511  0.000000000E+00  0.000000000E+00  1.978179783E+03  1.978179783E+03  0.000000000E+00  0.00000E+00  9.000E+00
      21    -1     0     0   501   502  0.000000000E+00  0.000000000E+00 -2.155312303E+03  2.155312303E+03  0.000000000E+00  0.00000E+00  9.000E+00
      25     1     1     2     0     0  1.535173680E+03 -1.965724764E+02 -7.684521334E+02  1.732496074E+03  1.250000000E+02  0.00000E+00  9.000E+00
      25     1     1     2     0     0 -1.860383633E+03  4.414947600E+02  5.391786997E+02  1.990548556E+03  1.250000000E+02  0.00000E+00  9.000E+00
      21     1     1     2   501   511  3.252099531E+02 -2.449222836E+02  5.214091320E+01  4.104474552E+02  2.697398305E-06  0.00000E+00  9.000E+00
#rwgt            2          11   1.0059703876172610E-002           5      270643           0
</event>
<event>
      5   9999  3.19816E-02  2.19934E+01 -1.00000E+00  1.63035E-01
      21    -1     0     0   502   501  0.000000000E+00  0.000000000E+00  5.328812043E+02  5.328812043E+02  0.000000000E+00  0.00000E+00  9.000E+00
      21    -1     0     0   501   512  0.000000000E+00  0.000000000E+00 -6.197973179E+02  6.197973179E+02  0.000000000E+00  0.00000E+00  9.000E+00
      25     1     1     2     0     0 -4.002045542E+02  3.757887133E+01 -5.325168863E+01  4.243071990E+02  1.250000000E+02  0.00000E+00  9.000E+00
      25     1     1     2     0     0  4.057052938E+02 -1.628448517E+01  2.167895491E+02  4.769535391E+02  1.250000000E+02  0.00000E+00  9.000E+00
      21     1     1     2   502   512 -5.500739633E+00 -2.129438617E+01 -2.504539741E+02  2.514177841E+02  3.814697266E-06  0.00000E+00  9.000E+00
#rwgt            1           1   2.6780908827505695E-002           5      270678           0
</event>
<event>
      5   9999  3.19816E-02  7.62349E+01 -1.00000E+00  1.29371E-01
      21    -1     0     0   511   501  0.000000000E+00  0.000000000E+00  2.894065221E+02  2.894065221E+02  0.000000000E+00  0.00000E+00  9.000E+00
      21    -1     0     0   501   502  0.000000000E+00  0.000000000E+00 -7.603399449E+02  7.603399449E+02  0.000000000E+00  0.00000E+00  9.000E+00
      25     1     1     2     0     0  2.991045867E+01 -6.472445621E+01 -6.869901833E+02  7.019005647E+02  1.250000000E+02  0.00000E+00  9.000E+00
      25     1     1     2     0     0 -1.036285033E+02  4.529744713E+01  6.888499522E+01  1.821012575E+02  1.250000000E+02  0.00000E+00  9.000E+00
      21     1     1     2   511   502  7.371804466E+01  1.942700908E+01  1.471717653E+02  1.657446448E+02  1.907348633E-06  0.00000E+00  9.000E+00
#rwgt            1           1   2.3796519749464944E-002           5      270805           0
</event>
<event>
      5   9999  3.19816E-02  1.00054E+02 -1.00000E+00  1.23817E-01
      21    -1     0     0   502   501  0.000000000E+00  0.000000000E+00  1.418417688E+03  1.418417688E+03  0.000000000E+00  0.00000E+00  9.000E+00
      21    -1     0     0   512   502  0.000000000E+00  0.000000000E+00 -2.958702419E+02  2.958702419E+02  0.000000000E+00  0.00000E+00  9.000E+00
      25     1     1     2     0     0  2.695756911E+02 -2.131743575E+02 -3.755841434E+01  3.676275213E+02  1.250000000E+02  0.00000E+00  9.000E+00
      25     1     1     2     0     0 -2.915882319E+02  1.155717041E+02  1.194154451E+03  1.240971543E+03  1.250000000E+02  0.00000E+00  9.000E+00
      21     1     1     2   512   501  2.201254076E+01  9.760265333E+01 -3.404859083E+01  1.056888661E+02  2.336015456E-06  0.00000E+00  9.000E+00
#rwgt            1           1   3.3002568858234091E-002           5      270897           0
</event>
<event>
      5   9999  3.19816E-02  2.69044E+02 -1.00000E+00  1.07152E-01
      21    -1     0     0   502   511  0.000000000E+00  0.000000000E+00  5.403706283E+02  5.403706283E+02  0.000000000E+00  0.00000E+00  9.000E+00
      21    -1     0     0   501   502  0.000000000E+00  0.000000000E+00 -2.882130875E+03  2.882130875E+03  0.000000000E+00  0.00000E+00  9.000E+00
      25     1     1     2     0     0  8.418626117E+02 -5.552041032E+02 -2.101095373E+03  2.333926096E+03  1.250000000E+02  0.00000E+00  9.000E+00
      25     1     1     2     0     0 -5.738160981E+02  5.320543130E+02 -1.875504123E+02  8.143382980E+02  1.250000000E+02  0.00000E+00  9.000E+00
      21     1     1     2   501   511 -2.680465136E+02  2.314979023E+01 -5.311446123E+01  2.742371096E+02  4.768371582E-06  0.00000E+00  9.000E+00
#rwgt            1           1   2.4010250447479908E-002           5      270991           0
</event>
<event>
      5   9999  3.19816E-02  6.22256E+01 -1.00000E+00  1.33864E-01
      21    -1     0     0   512   501  0.000000000E+00  0.000000000E+00  1.346481010E+03  1.346481010E+03  0.000000000E+00  0.00000E+00  9.000E+00
      21    -1     0     0   501   502  0.000000000E+00  0.000000000E+00 -7.111705135E+01  7.111705135E+01  0.000000000E+00  0.00000E+00  9.000E+00
      25     1     1     2     0     0 -1.881101997E+02 -3.484690543E+01  7.200505853E+02  7.554452988E+02  1.250000000E+02  0.00000E+00  9.000E+00
      25     1     1     2     0     0  2.404998179E+02  1.270907213E+00  3.230412723E+02  4.216899823E+02  1.250000000E+02  0.00000E+00  9.000E+00
      21     1     1     2   512   502 -5.238961815E+01  3.357599822E+01  2.322721008E+02  2.404627800E+02  2.697398305E-06  0.00000E+00  9.000E+00
#rwgt            1           1   2.8940032656968789E-002           5      271126           0
</event>
<event>
      5   9999  3.19816E-02  5.24213E+01 -1.00000E+00  1.37914E-01
      21    -1     0     0   502   501  0.000000000E+00  0.000000000E+00  7.091330615E+01  7.091330615E+01  0.000000000E+00  0.00000E+00  9.000E+00
       2    -1     0     0   501     0  0.000000000E+00  0.000000000E+00 -1.072595137E+03  1.072595137E+03  0.000000000E+00  0.00000E+00  9.000E+00
      25     1     1     2     0     0 -1.114248799E+01  7.964542150E+01 -1.678071025E+02  2.241690698E+02  1.250000000E+02  0.00000E+00  9.000E+00
      25     1     1     2     0     0  6.267622633E+01 -7.004008987E+01 -1.045231988E+02  1.881064130E+02  1.250000000E+02  0.00000E+00  9.000E+00
       2     1     1     2   502     0 -5.153373833E+01 -9.605331631E+00 -7.293515296E+02  7.312329604E+02  1.078959322E-05  0.00000E+00  9.000E+00
#rwgt            1           1   5.3741750488606028E-002           5      271203           0
</event>
<event>
      5   9999  3.19816E-02  3.05427E+01 -1.00000E+00  1.52501E-01
      21    -1     0     0   502   501  0.000000000E+00  0.000000000E+00  3.079035751E+02  3.079035751E+02  0.000000000E+00  0.00000E+00  9.000E+00
       2    -1     0     0   501     0  0.000000000E+00  0.000000000E+00 -1.580703724E+03  1.580703724E+03  0.000000000E+00  0.00000E+00  9.000E+00
      25     1     1     2     0     0  8.752784254E+01  5.050150390E+01  1.615552658E+02  2.278960926E+02  1.250000000E+02  0.00000E+00  9.000E+00
      25     1     1     2     0     0 -9.504744011E+01 -2.089896640E+01  5.751055118E+01  1.685326264E+02  1.250000000E+02  0.00000E+00  9.000E+00
       2     1     1     2   502     0  7.519597567E+00 -2.960253750E+01 -1.491865966E+03  1.492178580E+03  3.051757812E-05  0.00000E+00  9.000E+00
#rwgt            1           1   3.3708743044643233E-002           5      271248           0
</event>
<event>
      5   9999  3.19816E-02  3.00069E+01 -1.00000E+00  1.53033E-01
      21    -1     0     0   502   501  0.000000000E+00  0.000000000E+00  7.629910252E+02  7.629910252E+02  0.000000000E+00  0.00000E+00  9.000E+00
      21    -1     0     0   511   502  0.000000000E+00  0.000000000E+00 -2.614210111E+02  2.614210111E+02  0.000000000E+00  0.00000E+00  9.000E+00
      25     1     1     2     0     0 -3.075842034E+02  6.826965645E+01  5.791626935E+02  6.710612593E+02  1.250000000E+02  0.00000E+00  9.000E+00
      25     1     1     2     0     0  2.838807192E+02 -4.986976381E+01 -7.639020198E+01  3.233198402E+02  1.250000000E+02  0.00000E+00  9.000E+00
      21     1     1     2   511   501  2.370348420E+01 -1.839989264E+01 -1.202477399E+00  3.003093679E+01  4.274841633E-07  0.00000E+00  9.000E+00
#rwgt            1           1   2.9606861529852146E-002           5      271382           0
</event>
<event>
      5   9999  3.19816E-02  4.12645E+01 -1.00000E+00  1.44007E-01
      21    -1     0     0   502   501  0.000000000E+00  0.000000000E+00  1.805385986E+02  1.805385986E+02  0.000000000E+00  0.00000E+00  9.000E+00
       2    -1     0     0   501     0  0.000000000E+00  0.000000000E+00 -5.819531808E+02  5.819531808E+02  0.000000000E+00  0.00000E+00  9.000E+00
      25     1     1     2     0     0  9.376382404E+01 -1.309149265E+02  8.967459598E+01  2.227036278E+02  1.250000000E+02  0.00000E+00  9.000E+00
      25     1     1     2     0     0 -5.565857106E+01  1.150799248E+02 -3.534646169E+02  3.961104657E+02  1.250000000E+02  0.00000E+00  9.000E+00
       2     1     1     2   502     0 -3.810525298E+01  1.583500165E+01 -1.376245612E+02  1.436776859E+02  1.907348633E-06  0.00000E+00  9.000E+00
#rwgt            1           1   2.7524065269876285E-002           5      271517           0
</event>
<event>
      5   9999  3.19816E-02  2.87543E+01 -1.00000E+00  1.54330E-01
      21    -1     0     0   502   511  0.000000000E+00  0.000000000E+00  4.458895356E+01  4.458895356E+01  0.000000000E+00  0.00000E+00  9.000E+00
      21    -1     0     0   501   502  0.000000000E+00  0.000000000E+00 -3.067533982E+03  3.067533982E+03  0.000000000E+00  0.00000E+00  9.000E+00
      25     1     1     2     0     0 -5.021265578E+01  2.664311363E+01 -2.905132896E+02  3.213318188E+02  1.250000000E+02  0.00000E+00  9.000E+00
      25     1     1     2     0     0  2.180096049E+01 -2.221742195E+01 -2.752635799E+03  2.755648333E+03  1.250000000E+02  0.00000E+00  9.000E+00
      21     1     1     2   501   511  2.841169529E+01 -4.425691685E+00  2.020406015E+01  3.514278337E+01  2.037049233E-06  0.00000E+00  9.000E+00
#rwgt            1           1   2.4795443615787820E-002           5      271612           0
</event>
<event>
      5   9999  3.19816E-02  4.00911E+01 -1.00000E+00  1.44779E-01
      21    -1     0     0   502   501  0.000000000E+00  0.000000000E+00  1.446313000E+03  1.446313000E+03  0.000000000E+00  0.00000E+00  9.000E+00
      21    -1     0     0   512   502  0.000000000E+00  0.000000000E+00 -1.382955737E+02  1.382955737E+02  0.000000000E+00  0.00000E+00  9.000E+00
      25     1     1     2     0     0  3.440309486E+02  1.186177403E+02  5.309710907E+02  6.557307077E+02  1.250000000E+02  0.00000E+00  9.000E+00
      25     1     1     2     0     0 -3.121892144E+02 -1.429775988E+02  8.022292696E+02  8.815336070E+02  1.250000000E+02  0.00000E+00  9.000E+00
      21     1     1     2   512   501 -3.184173417E+01  2.435985858E+01 -2.518293358E+01  4.734425930E+01  8.920806376E-07  0.00000E+00  9.000E+00
#rwgt            1           1   2.9165940215697503E-002           5      271720           0
</event>
<event>
      5   9999  3.19816E-02  4.06839E+01 -1.00000E+00  1.44385E-01
      21    -1     0     0   502   501  0.000000000E+00  0.000000000E+00  2.151529560E+02  2.151529560E+02  0.000000000E+00  0.00000E+00  9.000E+00
      21    -1     0     0   511   502  0.000000000E+00  0.000000000E+00 -2.651432645E+02  2.651432645E+02  0.000000000E+00  0.00000E+00  9.000E+00
      25     1     1     2     0     0  1.906636926E+02 -1.025199927E+01 -4.286531212E+01  2.322071966E+02  1.250000000E+02  0.00000E+00  9.000E+00
      25     1     1     2     0     0 -1.588644340E+02 -1.512482568E+01  1.214083032E+01  2.030740468E+02  1.250000000E+02  0.00000E+00  9.000E+00
      21     1     1     2   511   501 -3.179925861E+01  2.537682495E+01 -1.926582666E+01  4.501497716E+01  6.307962682E-07  0.00000E+00  9.000E+00
#rwgt            1           1   2.8452033780523484E-002           5      271834           0
</event>
<event>
      5   9999  3.19816E-02  4.63595E+02 -1.00000E+00  9.97937E-02
      21    -1     0     0   502   501  0.000000000E+00  0.000000000E+00  6.150159692E+02  6.150159692E+02  0.000000000E+00  0.00000E+00  9.000E+00
       1    -1     0     0   501     0  0.000000000E+00  0.000000000E+00 -4.127204253E+03  4.127204253E+03  0.000000000E+00  0.00000E+00  9.000E+00
      25     1     1     2     0     0 -8.534659128E+02 -3.078612150E+02 -1.200695817E+03  1.510125172E+03  1.250000000E+02  0.00000E+00  9.000E+00
      25     1     1     2     0     0  1.278365465E+03  1.224396652E+02 -5.361893382E+02  1.397259368E+03  1.250000000E+02  0.00000E+00  9.000E+00
       1     1     1     2   502     0 -4.248995525E+02  1.854215498E+02 -1.775303129E+03  1.834835682E+03  2.157918644E-05  0.00000E+00  9.000E+00
#rwgt            2          12   2.3830984712586189E-004           5      271919           0
</event>
<event>
      5   9999  3.19816E-02  7.84217E+01 -1.00000E+00  1.28770E-01
      21    -1     0     0   502   501  0.000000000E+00  0.000000000E+00  2.206678891E+02  2.206678891E+02  0.000000000E+00  0.00000E+00  9.000E+00
      21    -1     0     0   511   502  0.000000000E+00  0.000000000E+00 -2.317873263E+02  2.317873263E+02  0.000000000E+00  0.00000E+00  9.000E+00
      25     1     1     2     0     0 -2.430167576E+01  3.095853677E+01  1.203088628E+02  1.778994798E+02  1.250000000E+02  0.00000E+00  9.000E+00
      25     1     1     2     0     0  7.434721196E+01  2.941865631E+01 -1.281554775E+02  1.960657841E+02  1.250000000E+02  0.00000E+00  9.000E+00
      21     1     1     2   511   501 -5.004553620E+01 -6.037719308E+01 -3.272822431E+00  7.848995161E+01  1.010645923E-06  0.00000E+00  9.000E+00
#rwgt            1           1   2.4986464742564825E-002           5      271953           0
</event>
<event>
      5   9999  3.19816E-02  3.49048E+01 -1.00000E+00  1.48608E-01
      21    -1     0     0   502   512  0.000000000E+00  0.000000000E+00  1.327368227E+03  1.327368227E+03  0.000000000E+00  0.00000E+00  9.000E+00
      21    -1     0     0   501   502  0.000000000E+00  0.000000000E+00 -1.058607111E+02  1.058607111E+02  0.000000000E+00  0.00000E+00  9.000E+00
      25     1     1     2     0     0 -2.018180892E+01 -3.375799362E+02  5.082908574E+02  6.231790388E+02  1.250000000E+02  0.00000E+00  9.000E+00
      25     1     1     2     0     0  4.864326466E+01  3.173737257E+02  6.036953748E+02  6.951009671E+02  1.250000000E+02  0.00000E+00  9.000E+00
      21     1     1     2   501   512 -2.846145574E+01  2.020621051E+01  1.095212838E+02  1.149489322E+02  1.348699152E-06  0.00000E+00  9.000E+00
#rwgt            1           1   2.9131863031848143E-002           5      271999           0
</event>
<event>
      5   9999  3.19816E-02  3.24130E+01 -1.00000E+00  1.50742E-01
      21    -1     0     0   502   501  0.000000000E+00  0.000000000E+00  1.603361288E+02  1.603361288E+02  0.000000000E+00  0.00000E+00  9.000E+00
       2    -1     0     0   501     0  0.000000000E+00  0.000000000E+00 -1.760394018E+03  1.760394018E+03  0.000000000E+00  0.00000E+00  9.000E+00
      25     1     1     2     0     0 -2.637462780E+02  2.905026055E+01 -3.277543041E+01  2.951359782E+02  1.250000000E+02  0.00000E+00  9.000E+00
      25     1     1     2     0     0  2.917474513E+02 -4.537625578E+01 -8.641255047E+02  9.216905489E+02  1.250000000E+02  0.00000E+00  9.000E+00
       2     1     1     2   502     0 -2.800117335E+01  1.632599523E+01 -7.031569545E+02  7.039036202E+02  0.000000000E+00  0.00000E+00  9.000E+00
#rwgt            1           1   2.7957935014812665E-002           5      272107           0
</event>
<event>
      5   9999  3.19816E-02  4.35286E+01 -1.00000E+00  1.42599E-01
      21    -1     0     0   502   511  0.000000000E+00  0.000000000E+00  1.413635397E+03  1.413635397E+03  0.000000000E+00  0.00000E+00  9.000E+00
      21    -1     0     0   501   502  0.000000000E+00  0.000000000E+00 -2.848765443E+02  2.848765443E+02  0.000000000E+00  0.00000E+00  9.000E+00
      25     1     1     2     0     0 -1.282917981E+02 -1.351050641E+02 -1.462544780E+02  2.678199697E+02  1.250000000E+02  0.00000E+00  9.000E+00
      25     1     1     2     0     0  9.433804833E+01  1.623425179E+02  8.681293603E+01  2.416945310E+02  1.250000000E+02  0.00000E+00  9.000E+00
      21     1     1     2   501   511  3.395374981E+01 -2.723745376E+01  1.188200394E+03  1.188997440E+03  2.157918644E-05  0.00000E+00  9.000E+00
#rwgt            1           1   2.8749631866828620E-002           5      272205           0
</event>
<event>
      5   9999  3.19816E-02  4.02597E+01 -1.00000E+00  1.44666E-01
       2    -1     0     0   502     0  0.000000000E+00  0.000000000E+00  5.732785666E+02  5.732785666E+02  0.000000000E+00  0.00000E+00  9.000E+00
      21    -1     0     0   501   502  0.000000000E+00  0.000000000E+00 -1.368182154E+03  1.368182154E+03  0.000000000E+00  0.00000E+00  9.000E+00
      25     1     1     2     0     0  7.577280844E+00  2.892401842E+01 -1.348992879E+03  1.355101768E+03  1.250000000E+02  0.00000E+00  9.000E+00
      25     1     1     2     0     0  3.223953675E+01 -3.487920901E+01  2.915757279E+02  3.207761713E+02  1.250000000E+02  0.00000E+00  9.000E+00
       2     1     1     2   501     0 -3.981681759E+01  5.955190588E+00  2.625135631E+02  2.655827819E+02  5.394796609E-06  0.00000E+00  9.000E+00
#rwgt            1           1   2.7765788875938981E-002           5      272249           0
</event>
<event>
      5   9999  3.19816E-02  6.17051E+01 -1.00000E+00  1.34056E-01
      21    -1     0     0   511   501  0.000000000E+00  0.000000000E+00  3.924934988E+02  3.924934988E+02  0.000000000E+00  0.00000E+00  9.000E+00
      21    -1     0     0   501   502  0.000000000E+00  0.000000000E+00 -5.227111762E+02  5.227111762E+02  0.000000000E+00  0.00000E+00  9.000E+00
      25     1     1     2     0     0 -7.932350144E+01 -1.361511388E+02 -3.587840376E+02  4.113153730E+02  1.250000000E+02  0.00000E+00  9.000E+00
      25     1     1     2     0     0  9.137421210E+01  1.966681178E+02 -1.681433653E+01  2.508691235E+02  1.250000000E+02  0.00000E+00  9.000E+00
      21     1     1     2   511   502 -1.205071066E+01 -6.051697907E+01  2.453806967E+02  2.530201785E+02  2.697398305E-06  0.00000E+00  9.000E+00
#rwgt            1           1   2.6743103503519158E-002           5      272387           0
</event>
<event>
      5   9999  3.19816E-02  2.56288E+02 -1.00000E+00  1.07863E-01
      21    -1     0     0   502   501  0.000000000E+00  0.000000000E+00  1.511447317E+03  1.511447317E+03  0.000000000E+00  0.00000E+00  9.000E+00
      21    -1     0     0   512   502  0.000000000E+00  0.000000000E+00 -2.459638645E+02  2.459638645E+02  0.000000000E+00  0.00000E+00  9.000E+00
      25     1     1     2     0     0 -1.808650430E+02 -2.041695650E+02  1.802120872E+02  3.499982449E+02  1.250000000E+02  0.00000E+00  9.000E+00
      25     1     1     2     0     0  4.371406884E+02  2.066413352E+02  1.030785084E+03  1.145397535E+03  1.250000000E+02  0.00000E+00  9.000E+00
      21     1     1     2   512   501 -2.562756453E+02 -2.471770232E+00  5.448628129E+01  2.620154020E+02  2.861022949E-06  0.00000E+00  9.000E+00
#rwgt            1           1   2.3166009112021293E-002           5      272447           0
</event>
<event>
      5   9999  3.19816E-02  9.51099E+00 -1.00000E+00  1.98308E-01
      21    -1     0     0   511   501  0.000000000E+00  0.000000000E+00  5.492873955E+02  5.492873955E+02  0.000000000E+00  0.00000E+00  9.000E+00
      21    -1     0     0   501   502  0.000000000E+00  0.000000000E+00 -6.094818196E+02  6.094818196E+02  0.000000000E+00  0.00000E+00  9.000E+00
      25     1     1     2     0     0 -1.901899037E+02 -4.605863827E+01 -4.825824773E+02  5.355412636E+02  1.250000000E+02  0.00000E+00  9.000E+00
      25     1     1     2     0     0  1.915543393E+02  5.547124507E+01  3.762823499E+01  2.383505989E+02  1.250000000E+02  0.00000E+00  9.000E+00
      21     1     1     2   511   502 -1.364435620E+00 -9.412606794E+00  3.847598182E+02  3.848773526E+02  5.394796609E-06  0.00000E+00  9.000E+00
#rwgt            1           1   2.7648440685710058E-002           5      272502           0
</event>
<event>
      5   9999  4.10527E-02  2.26935E+02 -1.00000E+00  1.09686E-01
       2    -1     0     0   502     0  0.000000000E+00  0.000000000E+00  9.502275314E+02  9.502275314E+02  0.000000000E+00  0.00000E+00  9.000E+00
      21    -1     0     0   501   502  0.000000000E+00  0.000000000E+00 -2.401668080E+03  2.401668080E+03  0.000000000E+00  0.00000E+00  9.000E+00
      25     1     1     2     0     0  8.485031175E+01 -1.920150848E+02 -4.787681024E+02  5.375065246E+02  1.250000000E+02  0.00000E+00  9.000E+00
      25     1     1     2     0     0 -4.481656267E+01  4.153905862E+02 -1.853852770E+03  1.904456079E+03  1.250000000E+02  0.00000E+00  9.000E+00
       2     1     1     2   501     0 -4.003374908E+01 -2.233755014E+02  8.811803238E+02  9.099330078E+02  1.525878906E-05  0.00000E+00  9.000E+00
#rwgt            2          18   4.0141402648595302E-002           5      272714           0
</event>
<event>
      5   9999  3.19816E-02  2.58084E+01 -1.00000E+00  1.57723E-01
      21    -1     0     0   502   511  0.000000000E+00  0.000000000E+00  7.017534068E+02  7.017534068E+02  0.000000000E+00  0.00000E+00  9.000E+00
      21    -1     0     0   501   502  0.000000000E+00  0.000000000E+00 -6.033171303E+02  6.033171303E+02  0.000000000E+00  0.00000E+00  9.000E+00
      25     1     1     2     0     0  2.753797803E+02 -4.540976977E+01 -5.138155733E+02  5.979360450E+02  1.250000000E+02  0.00000E+00  9.000E+00
      25     1     1     2     0     0 -2.975308344E+02  5.865387175E+01  5.674154485E+02  6.554007670E+02  1.250000000E+02  0.00000E+00  9.000E+00
      21     1     1     2   501   511  2.215105419E+01 -1.324410197E+01  4.483640123E+01  5.173372511E+01  8.259061849E-07  0.00000E+00  9.000E+00
#rwgt            1           1   2.3006355545049251E-002           5      272748           0
</event>
<event>
      5   9999  3.19816E-02  5.54595E+01 -1.00000E+00  1.36555E-01
      21    -1     0     0   502   501  0.000000000E+00  0.000000000E+00  3.810370296E+02  3.810370296E+02  0.000000000E+00  0.00000E+00  9.000E+00
      21    -1     0     0   512   502  0.000000000E+00  0.000000000E+00 -2.749951963E+02  2.749951963E+02  0.000000000E+00  0.00000E+00  9.000E+00
      25     1     1     2     0     0 -1.257737750E+02  2.286338166E+02  5.044762876E+01  2.937046609E+02  1.250000000E+02  0.00000E+00  9.000E+00
      25     1     1     2     0     0  1.326648622E+02 -1.736041064E+02  1.187095232E+02  2.783079272E+02  1.250000000E+02  0.00000E+00  9.000E+00
      21     1     1     2   512   501 -6.891087261E+00 -5.502971019E+01 -6.311531866E+01  8.401963781E+01  1.348699152E-06  0.00000E+00  9.000E+00
#rwgt            1           1   3.0281245444073217E-002           5      272923           0
</event>
<event>
      5   9999  3.19816E-02  1.49633E+02 -1.00000E+00  1.16436E-01
      21    -1     0     0   502   511  0.000000000E+00  0.000000000E+00  5.335953756E+02  5.335953756E+02  0.000000000E+00  0.00000E+00  9.000E+00
      21    -1     0     0   501   502  0.000000000E+00  0.000000000E+00 -2.330205554E+02  2.330205554E+02  0.000000000E+00  0.00000E+00  9.000E+00
      25     1     1     2     0     0 -1.162236443E+02  1.512628647E+02  1.072805456E+02  2.520367140E+02  1.250000000E+02  0.00000E+00  9.000E+00
      25     1     1     2     0     0  2.602701640E+02 -1.107575873E+02  6.175997090E+01  3.153523354E+02  1.250000000E+02  0.00000E+00  9.000E+00
      21     1     1     2   501   511 -1.440465197E+02 -4.050527738E+01  1.315343037E+02  1.992268817E+02  5.046370146E-06  0.00000E+00  9.000E+00
#rwgt            2          11   3.0853479156067397E-003           5      273064           0
</event>
<event>
      5   9999  3.19816E-02  1.33000E+02 -1.00000E+00  1.18502E-01
      21    -1     0     0   502   501  0.000000000E+00  0.000000000E+00  8.845612827E+02  8.845612827E+02  0.000000000E+00  0.00000E+00  9.000E+00
      21    -1     0     0   512   502  0.000000000E+00  0.000000000E+00 -2.879081465E+02  2.879081465E+02  0.000000000E+00  0.00000E+00  9.000E+00
      25     1     1     2     0     0  2.078395877E+02 -4.094221198E+02  2.258374436E+02  5.267364781E+02  1.250000000E+02  0.00000E+00  9.000E+00
      25     1     1     2     0     0 -8.345266709E+01  3.623389340E+02  3.074922178E+02  4.984278431E+02  1.250000000E+02  0.00000E+00  9.000E+00
      21     1     1     2   512   501 -1.243869206E+02  4.708318577E+01  6.332347476E+01  1.473051081E+02  2.336015456E-06  0.00000E+00  9.000E+00
#rwgt            1           1   2.8576406301781845E-002           5      273084           0
</event>
<event>
      5   9999  3.19816E-02  8.25306E+01 -1.00000E+00  1.27698E-01
      21    -1     0     0   511   501  0.000000000E+00  0.000000000E+00  4.265014212E+02  4.265014212E+02  0.000000000E+00  0.00000E+00  9.000E+00
      21    -1     0     0   501   502  0.000000000E+00  0.000000000E+00 -6.903942974E+02  6.903942974E+02  0.000000000E+00  0.00000E+00  9.000E+00
      25     1     1     2     0     0  2.300021559E+02 -4.510203122E+02 -8.796262781E+01  5.288503925E+02  1.250000000E+02  0.00000E+00  9.000E+00
      25     1     1     2     0     0 -1.502619901E+02  4.297409674E+02 -1.803945032E+02  5.053940458E+02  1.250000000E+02  0.00000E+00  9.000E+00
      21     1     1     2   511   502 -7.974016580E+01  2.127934480E+01  4.464254896E+00  8.265128026E+01  1.712013080E-06  0.00000E+00  9.000E+00
#rwgt            1           1   3.0532042226714559E-002           5      273155           0
</event>
<event>
      5   9999  3.19816E-02  3.07315E+01 -1.00000E+00  1.52317E-01
      21    -1     0     0   502   501  0.000000000E+00  0.000000000E+00  1.542774582E+02  1.542774582E+02  0.000000000E+00  0.00000E+00  9.000E+00
      21    -1     0     0   501   512  0.000000000E+00  0.000000000E+00 -1.166034206E+03  1.166034206E+03  0.000000000E+00  0.00000E+00  9.000E+00
      25     1     1     2     0     0 -3.087076533E+02 -1.379824524E+02 -2.167770716E+02  4.206624195E+02  1.250000000E+02  0.00000E+00  9.000E+00
      25     1     1     2     0     0  3.273525589E+02  1.624118042E+02 -6.956018161E+02  7.956281660E+02  1.250000000E+02  0.00000E+00  9.000E+00
      21     1     1     2   502   512 -1.864490558E+01 -2.442935183E+01 -9.937786020E+01  1.040210788E+02  1.907348633E-06  0.00000E+00  9.000E+00
#rwgt            1           1   2.9012108477404194E-002           5      273237           0
</event>
<event>
      5   9999  3.20473E-02  4.70718E+01 -1.00000E+00  1.40588E-01
      21    -1     0     0   511   501  0.000000000E+00  0.000000000E+00  1.962120690E+03  1.962120690E+03  0.000000000E+00  0.00000E+00  9.000E+00
      21    -1     0     0   501   502  0.000000000E+00  0.000000000E+00 -7.239708270E+02  7.239708270E+02  0.000000000E+00  0.00000E+00  9.000E+00
      25     1     1     2     0     0 -3.992615083E+02 -3.900983804E+02  1.742170210E+03  1.833676236E+03  1.250000000E+02  0.00000E+00  9.000E+00
      25     1     1     2     0     0  3.780014101E+02  4.320955901E+02 -5.361626608E+02  7.954162834E+02  1.250000000E+02  0.00000E+00  9.000E+00
      21     1     1     2   511   502  2.126009816E+01 -4.199720969E+01  3.214231443E+01  5.699899799E+01  6.743495762E-07  0.00000E+00  9.000E+00
#rwgt            1           1   7.4071307262199348E-002           5      273351           0
</event>
<event>
      5   9999  3.19816E-02  1.24407E+01 -1.00000E+00  1.85396E-01
      21    -1     0     0   502   501  0.000000000E+00  0.000000000E+00  7.266859749E+02  7.266859749E+02  0.000000000E+00  0.00000E+00  9.000E+00
      21    -1     0     0   512   502  0.000000000E+00  0.000000000E+00 -3.107020071E+02  3.107020071E+02  0.000000000E+00  0.00000E+00  9.000E+00
      25     1     1     2     0     0  1.131805659E+02  2.119136888E+01  6.026559352E+02  6.261613936E+02  1.250000000E+02  0.00000E+00  9.000E+00
      25     1     1     2     0     0 -1.142720846E+02 -3.358404858E+01  4.563427303E+01  1.785874702E+02  1.250000000E+02  0.00000E+00  9.000E+00
      21     1     1     2   512   501  1.091518722E+00  1.239267970E+01 -2.323062405E+02  2.326391181E+02  0.000000000E+00  0.00000E+00  9.000E+00
#rwgt            1           1   3.6550433664251737E-002           5      273551           0
</event>
<event>
      5   9999  3.19816E-02  1.68732E+01 -1.00000E+00  1.72701E-01
      21    -1     0     0   502   511  0.000000000E+00  0.000000000E+00  3.533245935E+02  3.533245935E+02  0.000000000E+00  0.00000E+00  9.000E+00
      21    -1     0     0   501   502  0.000000000E+00  0.000000000E+00 -2.628819951E+03  2.628819951E+03  0.000000000E+00  0.00000E+00  9.000E+00
      25     1     1     2     0     0 -9.039190351E+02  6.177259922E+01 -7.255506683E+02  1.167447750E+03  1.250000000E+02  0.00000E+00  9.000E+00
      25     1     1     2     0     0  9.059017911E+02 -4.501627762E+01 -1.546892149E+03  1.797549677E+03  1.250000000E+02  0.00000E+00  9.000E+00
      21     1     1     2   501   511 -1.982755959E+00 -1.675632160E+01 -3.052539560E+00  1.714711733E+01  2.598106231E-07  0.00000E+00  9.000E+00
#rwgt            1           1   3.3802770263409540E-002           5      273748           0
</event>
<event>
      5   9999  3.19816E-02  5.09645E+02 -1.00000E+00  9.86169E-02
      21    -1     0     0   502   501  0.000000000E+00  0.000000000E+00  8.390315479E+02  8.390315479E+02  0.000000000E+00  0.00000E+00  9.000E+00
      21    -1     0     0   501   512  0.000000000E+00  0.000000000E+00 -1.222909563E+03  1.222909563E+03  0.000000000E+00  0.00000E+00  9.000E+00
      25     1     1     2     0     0 -3.775955981E+02 -1.369758902E+01  4.407975856E+02  5.938800983E+02  1.250000000E+02  0.00000E+00  9.000E+00
      25     1     1     2     0     0  4.342629061E+02 -4.927867901E+02 -2.881563608E+02  7.280674285E+02  1.250000000E+02  0.00000E+00  9.000E+00
      21     1     1     2   502   512 -5.666730807E+01  5.064843791E+02 -5.365192403E+02  7.399935846E+02  0.000000000E+00  0.00000E+00  9.000E+00
#rwgt            1           1   2.4022272154145097E-002           5      274047           0
</event>
<event>
      5   9999  3.19816E-02  1.53924E+01 -1.00000E+00  1.76334E-01
      21    -1     0     0   511   501  0.000000000E+00  0.000000000E+00  3.011414713E+02  3.011414713E+02  0.000000000E+00  0.00000E+00  9.000E+00
      21    -1     0     0   501   502  0.000000000E+00  0.000000000E+00 -2.328723674E+03  2.328723674E+03  0.000000000E+00  0.00000E+00  9.000E+00
      25     1     1     2     0     0 -3.148725381E+02  6.313688503E+02 -1.373142818E+03  1.548843936E+03  1.250000000E+02  0.00000E+00  9.000E+00
      25     1     1     2     0     0  3.258624234E+02 -6.421460070E+02 -7.126558955E+02  1.020804212E+03  1.250000000E+02  0.00000E+00  9.000E+00
      21     1     1     2   511   502 -1.098988532E+01  1.077715662E+01  5.821651054E+01  6.021699747E+01  1.784161275E-06  0.00000E+00  9.000E+00
#rwgt            1           1   2.7163179313332127E-002           5      274094           0
</event>
<event>
      5   9999  3.19816E-02  3.15065E+02 -1.00000E+00  1.04905E-01
      21    -1     0     0   512   501  0.000000000E+00  0.000000000E+00  5.565874974E+02  5.565874974E+02  0.000000000E+00  0.00000E+00  9.000E+00
      21    -1     0     0   501   502  0.000000000E+00  0.000000000E+00 -3.887234945E+02  3.887234945E+02  0.000000000E+00  0.00000E+00  9.000E+00
      25     1     1     2     0     0 -9.300546100E+01 -5.512922087E+01  1.374934368E+02  2.149853296E+02  1.250000000E+02  0.00000E+00  9.000E+00
      25     1     1     2     0     0  3.673792930E+02 -9.974055159E+01 -5.364781350E+01  4.042509251E+02  1.250000000E+02  0.00000E+00  9.000E+00
      21     1     1     2   512   502 -2.743738320E+02  1.548697725E+02  8.401837960E+01  3.260747372E+02  5.722045898E-06  0.00000E+00  9.000E+00
#rwgt            2          11   3.4347951658651303E-003           5      274459           0
</event>
<event>
      5   9999  3.19816E-02  1.85284E+01 -1.00000E+00  1.69155E-01
      21    -1     0     0   502   511  0.000000000E+00  0.000000000E+00  7.023862446E+02  7.023862446E+02  0.000000000E+00  0.00000E+00  9.000E+00
      21    -1     0     0   501   502  0.000000000E+00  0.000000000E+00 -1.199309879E+02  1.199309879E+02  0.000000000E+00  0.00000E+00  9.000E+00
      25     1     1     2     0     0 -8.540786962E+01 -1.333166262E+02  8.099495420E+00  2.018871686E+02  1.250000000E+02  0.00000E+00  9.000E+00
      25     1     1     2     0     0  8.994471113E+01  1.512810267E+02  5.211639556E+02  5.641035975E+02  1.250000000E+02  0.00000E+00  9.000E+00
      21     1     1     2   501   511 -4.536841508E+00 -1.796440047E+01  5.319180566E+01  5.632646629E+01  0.000000000E+00  0.00000E+00  9.000E+00
#rwgt            1           1   3.0126537059447001E-002           5      274479           0
</event>
<event>
      5   9999  3.19816E-02  1.75393E+02 -1.00000E+00  1.13764E-01
      21    -1     0     0   502   512  0.000000000E+00  0.000000000E+00  6.196199911E+02  6.196199911E+02  0.000000000E+00  0.00000E+00  9.000E+00
      21    -1     0     0   501   502  0.000000000E+00  0.000000000E+00 -4.917826122E+02  4.917826122E+02  0.000000000E+00  0.00000E+00  9.000E+00
      25     1     1     2     0     0 -9.065789413E+01  1.463035540E+02  1.231067121E+02  2.457719395E+02  1.250000000E+02  0.00000E+00  9.000E+00
      25     1     1     2     0     0  8.121903570E+01  2.883542488E+01 -3.982089472E+02  4.261729451E+02  1.250000000E+02  0.00000E+00  9.000E+00
      21     1     1     2   501   512  9.438858428E+00 -1.751389789E+02  4.029396139E+02  4.394577186E+02  5.394796609E-06  0.00000E+00  9.000E+00
#rwgt            1           1   2.6982712073032458E-002           5      274603           0
</event>
<event>
      5   9999  3.19816E-02  2.58734E+01 -1.00000E+00  1.57642E-01
      21    -1     0     0   502   501  0.000000000E+00  0.000000000E+00  4.992364469E+02  4.992364469E+02  0.000000000E+00  0.00000E+00  9.000E+00
      21    -1     0     0   501   511  0.000000000E+00  0.000000000E+00 -3.322405073E+02  3.322405073E+02  0.000000000E+00  0.00000E+00  9.000E+00
      25     1     1     2     0     0  9.608772622E+01 -2.224826388E+02  2.695118671E+02  3.833966904E+02  1.250000000E+02  0.00000E+00  9.000E+00
      25     1     1     2     0     0 -1.164099007E+02  2.064688359E+02  6.731364598E+01  2.762911003E+02  1.250000000E+02  0.00000E+00  9.000E+00
      21     1     1     2   502   511  2.032217445E+01  1.601380289E+01 -1.698295735E+02  1.717891635E+02  2.697398305E-06  0.00000E+00  9.000E+00
#rwgt            1           1   2.7669999845036288E-002           5      274656           0
</event>
<event>
      5   9999  3.19816E-02  1.94241E+02 -1.00000E+00  1.12112E-01
      21    -1     0     0   512   501  0.000000000E+00  0.000000000E+00  2.366291687E+03  2.366291687E+03  0.000000000E+00  0.00000E+00  9.000E+00
      21    -1     0     0   501   502  0.000000000E+00  0.000000000E+00 -2.632593451E+02  2.632593451E+02  0.000000000E+00  0.00000E+00  9.000E+00
      25     1     1     2     0     0  4.283060308E+02  4.865827009E+02  8.276173836E+02  1.058671013E+03  1.250000000E+02  0.00000E+00  9.000E+00
      25     1     1     2     0     0 -5.453331591E+02 -3.315531695E+02  6.643179535E+02  9.296553673E+02  1.250000000E+02  0.00000E+00  9.000E+00
      21     1     1     2   512   502  1.170271283E+02 -1.550295315E+02  6.110970045E+02  6.412246512E+02  7.629394531E-06  0.00000E+00  9.000E+00
#rwgt            1           1   2.9008363405165362E-002           5      274766           0
</event>
<event>
      5   9999  3.19816E-02  8.88983E+01 -1.00000E+00  1.26171E-01
      21    -1     0     0   502   501  0.000000000E+00  0.000000000E+00  1.080822969E+03  1.080822969E+03  0.000000000E+00  0.00000E+00  9.000E+00
      21    -1     0     0   511   502  0.000000000E+00  0.000000000E+00 -8.368209649E+01  8.368209649E+01  0.000000000E+00  0.00000E+00  9.000E+00
      25     1     1     2     0     0 -8.069919141E+01  1.846116841E+02  4.604154806E+02  5.178815002E+02  1.250000000E+02  0.00000E+00  9.000E+00
      25     1     1     2     0     0  1.666198805E+02 -1.617964100E+02  4.547302206E+02  5.256851114E+02  1.250000000E+02  0.00000E+00  9.000E+00
      21     1     1     2   511   501 -8.592068907E+01 -2.281527416E+01  8.199517163E+01  1.209384542E+02  1.651812370E-06  0.00000E+00  9.000E+00
#rwgt            1           1   3.5327758791533451E-002           5      274866           0
</event>
<event>
      5   9999  3.19816E-02  1.33379E+02 -1.00000E+00  1.18451E-01
      21    -1     0     0   502   501  0.000000000E+00  0.000000000E+00  2.646492554E+02  2.646492554E+02  0.000000000E+00  0.00000E+00  9.000E+00
      21    -1     0     0   512   502  0.000000000E+00  0.000000000E+00 -1.933769955E+02  1.933769955E+02  0.000000000E+00  0.00000E+00  9.000E+00
      25     1     1     2     0     0  7.730237099E-01  4.796102684E+01  1.054398443E+02  1.704212969E+02  1.250000000E+02  0.00000E+00  9.000E+00
      25     1     1     2     0     0 -2.395815570E+01  8.338779368E+01 -2.026167341E+01  1.535026149E+02  1.250000000E+02  0.00000E+00  9.000E+00
      21     1     1     2   512   501  2.318513199E+01 -1.313488205E+02 -1.390591096E+01  1.341023391E+02  9.233911863E-07  0.00000E+00  9.000E+00
#rwgt            1           1   1.9396579415454231E-002           5      274924           0
</event>
<event>
      5   9999  3.19816E-02  6.36674E+01 -1.00000E+00  1.33341E-01
      21    -1     0     0   502   501  0.000000000E+00  0.000000000E+00  1.087383791E+02  1.087383791E+02  0.000000000E+00  0.00000E+00  9.000E+00
      21    -1     0     0   501   511  0.000000000E+00  0.000000000E+00 -1.366776966E+03  1.366776966E+03  0.000000000E+00  0.00000E+00  9.000E+00
      25     1     1     2     0     0  1.166771351E+02  4.428836290E+01 -4.075879787E+02  4.442161336E+02  1.250000000E+02  0.00000E+00  9.000E+00
      25     1     1     2     0     0 -1.555086500E+02  6.166034536E+00 -2.247098208E+01  2.008753475E+02  1.250000000E+02  0.00000E+00  9.000E+00
      21     1     1     2   502   511  3.883151487E+01 -5.045439744E+01 -8.279796259E+02  8.304238639E+02  1.868812365E-05  0.00000E+00  9.000E+00
#rwgt            1           1   2.6935521962714575E-002           5      274969           0
</event>
<event>
      5   9999  3.19816E-02  8.03856E+01 -1.00000E+00  1.28248E-01
      21    -1     0     0   502   501  0.000000000E+00  0.000000000E+00  4.468467966E+02  4.468467966E+02  0.000000000E+00  0.00000E+00  9.000E+00
      21    -1     0     0   501   512  0.000000000E+00  0.000000000E+00 -2.935688117E+02  2.935688117E+02  0.000000000E+00  0.00000E+00  9.000E+00
      25     1     1     2     0     0 -1.992083471E+02  3.792108356E+00 -1.019159540E+02  2.563400229E+02  1.250000000E+02  0.00000E+00  9.000E+00
      25     1     1     2     0     0  1.508010358E+02 -6.796830774E+01  3.196762790E+02  3.810230526E+02  1.250000000E+02  0.00000E+00  9.000E+00
      21     1     1     2   502   512  4.840731129E+01  6.417619938E+01 -6.448234006E+01  1.030525329E+02  1.651812370E-06  0.00000E+00  9.000E+00
#rwgt            1           1   2.8380435987626736E-002           5      275053           0
</event>
<event>
      5   9999  3.19816E-02  3.77300E+01 -1.00000E+00  1.46432E-01
      21    -1     0     0   502   501  0.000000000E+00  0.000000000E+00  1.081422660E+03  1.081422660E+03  0.000000000E+00  0.00000E+00  9.000E+00
      21    -1     0     0   511   502  0.000000000E+00  0.000000000E+00 -1.433196366E+02  1.433196366E+02  0.000000000E+00  0.00000E+00  9.000E+00
      25     1     1     2     0     0  2.360716825E+02  5.947639265E+01  8.178980456E+02  8.624670971E+02  1.250000000E+02  0.00000E+00  9.000E+00
      25     1     1     2     0     0 -2.623002282E+02 -8.659866147E+01  1.146156096E+02  3.241334229E+02  1.250000000E+02  0.00000E+00  9.000E+00
      21     1     1     2   511   501  2.622854564E+01  2.712226881E+01  5.589367851E+00  3.814177637E+01  6.690604782E-07  0.00000E+00  9.000E+00
#rwgt            1           1   2.8365032292644241E-002           5      275153           0
</event>
<event>
      5   9999  3.19816E-02  1.69866E+02 -1.00000E+00  1.14292E-01
      21    -1     0     0   502   501  0.000000000E+00  0.000000000E+00  4.063127668E+02  4.063127668E+02  0.000000000E+00  0.00000E+00  9.000E+00
      21    -1     0     0   501   512  0.000000000E+00  0.000000000E+00 -1.917581203E+03  1.917581203E+03  0.000000000E+00  0.00000E+00  9.000E+00
      25     1     1     2     0     0  5.616183018E+01 -1.502221027E+02  3.134051240E+02  3.735888155E+02  1.250000000E+02  0.00000E+00  9.000E+00
      25     1     1     2     0     0 -2.131796357E+02  8.541680668E+01 -2.349206838E+02  3.515029382E+02  1.250000000E+02  0.00000E+00  9.000E+00
      21     1     1     2   502   512  1.570178055E+02  6.480529606E+01 -1.589752876E+03  1.598802216E+03  3.051757812E-05  0.00000E+00  9.000E+00
#rwgt            1           1   2.8616621577421175E-002           5      275300           0
</event>
<event>
      5   9999  3.19816E-02  4.62897E+01 -1.00000E+00  1.41013E-01
      21    -1     0     0   511   501  0.000000000E+00  0.000000000E+00  4.095984402E+02  4.095984402E+02  0.000000000E+00  0.00000E+00  9.000E+00
      21    -1     0     0   501   502  0.000000000E+00  0.000000000E+00 -1.073816273E+03  1.073816273E+03  0.000000000E+00  0.00000E+00  9.000E+00
      25     1     1     2     0     0 -2.092863751E+02  3.052126284E+01 -9.673582072E+02  9.980677509E+02  1.250000000E+02  0.00000E+00  9.000E+00
      25     1     1     2     0     0  2.543096435E+02 -4.127480661E+01  1.458034395E+02  3.213419478E+02  1.250000000E+02  0.00000E+00  9.000E+00
      21     1     1     2   511   502 -4.502326835E+01  1.075354377E+01  1.573369354E+02  1.640050140E+02  2.697398305E-06  0.00000E+00  9.000E+00
#rwgt            1           1   2.7590989390602332E-002           5      275336           0
</event>
<event>
      5   9999  3.19816E-02  3.02077E+01 -1.00000E+00  1.52832E-01
      21    -1     0     0   502   501  0.000000000E+00  0.000000000E+00  4.647304385E+02  4.647304385E+02  0.000000000E+00  0.00000E+00  9.000E+00
       1    -1     0     0   501     0  0.000000000E+00  0.000000000E+00 -2.089492848E+03  2.089492848E+03  0.000000000E+00  0.00000E+00  9.000E+00
      25     1     1     2     0     0 -1.688919253E+02  8.959979247E+01 -5.118886417E+02  5.605422257E+02  1.250000000E+02  0.00000E+00  9.000E+00
      25     1     1     2     0     0  1.411058974E+02 -7.774906098E+01  4.166427208E+02  4.638663035E+02  1.250000000E+02  0.00000E+00  9.000E+00
       1     1     1     2   502     0  2.778602793E+01 -1.185073149E+01 -1.529516488E+03  1.529814757E+03  0.000000000E+00  0.00000E+00  9.000E+00
#rwgt            1           1   2.9598570950000357E-002           5      275463           0
</event>
<event>
      5   9999  3.19816E-02  2.77351E+01 -1.00000E+00  1.55446E-01
      21    -1     0     0   502   501  0.000000000E+00  0.000000000E+00  2.710223913E+02  2.710223913E+02  0.000000000E+00  0.00000E+00  9.000E+00
      21    -1     0     0   501   511  0.000000000E+00  0.000000000E+00 -7.149708913E+02  7.149708913E+02  0.000000000E+00  0.00000E+00  9.000E+00
      25     1     1     2     0     0  2.738826572E+02 -3.014866082E+01  6.262029564E+01  3.089772696E+02  1.250000000E+02  0.00000E+00  9.000E+00
      25     1     1     2     0     0 -2.463063959E+02  2.718420912E+01 -1.426788392E+02  3.120706219E+02  1.250000000E+02  0.00000E+00  9.000E+00
      21     1     1     2   502   511 -2.757626132E+01  2.964451702E+00 -3.638899565E+02  3.649453912E+02  0.000000000E+00  0.00000E+00  9.000E+00
#rwgt            1           1   3.4159817704249196E-002           5      275642           0
</event>
<event>
      5   9999  3.19816E-02  1.99175E+01 -1.00000E+00  1.66517E-01
      21    -1     0     0   502   512  0.000000000E+00  0.000000000E+00  2.246200463E+02  2.246200463E+02  0.000000000E+00  0.00000E+00  9.000E+00
      21    -1     0     0   501   502  0.000000000E+00  0.000000000E+00 -7.086421229E+02  7.086421229E+02  0.000000000E+00  0.00000E+00  9.000E+00
      25     1     1     2     0     0  2.046643354E+02 -2.141570194E+02  1.107794014E+01  3.217117342E+02  1.250000000E+02  0.00000E+00  9.000E+00
      25     1     1     2     0     0 -2.245740856E+02  2.136004472E+02 -4.855989982E+02  5.894828734E+02  1.250000000E+02  0.00000E+00  9.000E+00
      21     1     1     2   501   512  1.990975023E+01  5.565721887E-01 -9.501018495E+00  2.206756169E+01  0.000000000E+00  0.00000E+00  9.000E+00
#rwgt            1           1   2.8008543002499879E-002           5      275802           0
</event>
<event>
      5   9999  3.19816E-02  6.87038E+01 -1.00000E+00  1.31633E-01
      21    -1     0     0   502   511  0.000000000E+00  0.000000000E+00  5.323697305E+02  5.323697305E+02  0.000000000E+00  0.00000E+00  9.000E+00
      21    -1     0     0   501   502  0.000000000E+00  0.000000000E+00 -1.215416462E+03  1.215416462E+03  0.000000000E+00  0.00000E+00  9.000E+00
      25     1     1     2     0     0  1.244726486E+02 -2.107371028E+02 -1.012023731E+02  2.928659882E+02  1.250000000E+02  0.00000E+00  9.000E+00
      25     1     1     2     0     0 -1.748881992E+02  2.574113832E+02 -9.878071890E+02  1.043184809E+03  1.250000000E+02  0.00000E+00  9.000E+00
      21     1     1     2   501   511  5.041555062E+01 -4.667428041E+01  4.059628306E+02  4.117353956E+02  5.394796609E-06  0.00000E+00  9.000E+00
#rwgt            1           1   3.2318592041502614E-002           5      276052           0
</event>
<event>
      5   9999  3.19816E-02  6.78456E+01 -1.00000E+00  1.31912E-01
      21    -1     0     0   502   501  0.000000000E+00  0.000000000E+00  1.533512503E+02  1.533512503E+02  0.000000000E+00  0.00000E+00  9.000E+00
      21    -1     0     0   501   512  0.000000000E+00  0.000000000E+00 -7.119447843E+02  7.119447843E+02  0.000000000E+00  0.00000E+00  9.000E+00
      25     1     1     2     0     0 -1.634511699E+02  6.300213537E+01 -3.399101370E+02  4.023051768E+02  1.250000000E+02  0.00000E+00  9.000E+00
      25     1     1     2     0     0  1.178401015E+02 -1.132281653E+02  2.754823124E+01  2.075832652E+02  1.250000000E+02  0.00000E+00  9.000E+00
      21     1     1     2   502   512  4.561106840E+01  5.022602994E+01 -2.462316282E+02  2.554075926E+02  2.697398305E-06  0.00000E+00  9.000E+00
#rwgt            1           1   2.6992267822181545E-002           5      276176           0
</event>
<event>
      5   9999  3.19816E-02  1.58343E+02 -1.00000E+00  1.15470E-01
      21    -1     0     0   502   501  0.000000000E+00  0.000000000E+00  6.268621727E+01  6.268621727E+01  0.000000000E+00  0.00000E+00  9.000E+00
       1    -1     0     0   501     0  0.000000000E+00  0.000000000E+00 -1.715593224E+03  1.715593224E+03  0.000000000E+00  0.00000E+00  9.000E+00
      25     1     1     2     0     0 -4.778282056E+01 -1.674323109E+02 -4.092279556E+02  4.619624403E+02  1.250000000E+02  0.00000E+00  9.000E+00
      25     1     1     2     0     0  1.816698309E+02  8.289351250E+01 -4.601793809E+02  5.169771025E+02  1.250000000E+02  0.00000E+00  9.000E+00
       1     1     1     2   502     0 -1.338870104E+02  8.453879838E+01 -7.834996702E+02  7.993398984E+02  1.078959322E-05  0.00000E+00  9.000E+00
#rwgt            1           1   2.8061931671243875E-002           5      276251           0
</event>
<event>
      5   9999  3.19816E-02  3.32129E+01 -1.00000E+00  1.50033E-01
      21    -1     0     0   502   511  0.000000000E+00  0.000000000E+00  2.877697468E+02  2.877697468E+02  0.000000000E+00  0.00000E+00  9.000E+00
      21    -1     0     0   501   502  0.000000000E+00  0.000000000E+00 -1.899306489E+02  1.899306489E+02  0.000000000E+00  0.00000E+00  9.000E+00
      25     1     1     2     0     0  1.265747048E+02 -4.816527623E+01 -8.109156464E+01  2.013501715E+02  1.250000000E+02  0.00000E+00  9.000E+00
      25     1     1     2     0     0 -9.994454181E+01  2.831761979E+01  1.002841938E+02  1.909783196E+02  1.250000000E+02  0.00000E+00  9.000E+00
      21     1     1     2   501   511 -2.663016297E+01  1.984765644E+01  7.864646872E+01  8.537190456E+01  0.000000000E+00  0.00000E+00  9.000E+00
#rwgt            1           1   2.6725632317188910E-002           5      276314           0
</event>
<event>
      5   9999  3.19816E-02  2.18122E+02 -1.00000E+00  1.10294E-01
       1    -1     0     0   502     0  0.000000000E+00  0.000000000E+00  9.390618905E+02  9.390618905E+02  0.000000000E+00  0.00000E+00  9.000E+00
      21    -1     0     0   501   502  0.000000000E+00  0.000000000E+00 -4.790072876E+02  4.790072876E+02  0.000000000E+00  0.00000E+00  9.000E+00
      25     1     1     2     0     0 -9.140713575E+01 -2.078496043E+02  1.956897048E+01  2.599320432E+02  1.250000000E+02  0.00000E+00  9.000E+00
      25     1     1     2     0     0  2.823122005E+02  1.023390538E+02 -2.650945092E+02  4.196112002E+02  1.250000000E+02  0.00000E+00  9.000E+00
       1     1     1     2   501     0 -1.909050648E+02  1.055105504E+02  7.055801416E+02  7.385259347E+02  1.705984480E-05  0.00000E+00  9.000E+00
#rwgt            1           1   2.8564703058906980E-002           5      276506           0
</event>
<event>
      5   9999  3.19816E-02  5.11948E+00 -1.00000E+00  2.36738E-01
      21    -1     0     0   502   501  0.000000000E+00  0.000000000E+00  3.602330345E+02  3.602330345E+02  0.000000000E+00  0.00000E+00  9.000E+00
      21    -1     0     0   511   502  0.000000000E+00  0.000000000E+00 -5.839418516E+02  5.839418516E+02  0.000000000E+00  0.00000E+00  9.000E+00
      25     1     1     2     0     0  2.215165425E+02 -3.744288249E+02 -1.201958159E+02  4.683359453E+02  1.250000000E+02  0.00000E+00  9.000E+00
      25     1     1     2     0     0 -2.248473176E+02  3.783166294E+02 -9.719817494E+01  4.677096039E+02  1.250000000E+02  0.00000E+00  9.000E+00
      21     1     1     2   511   501  3.330775058E+00 -3.887804563E+00 -6.314826320E+00  8.129336889E+00  8.429369702E-08  0.00000E+00  9.000E+00
#rwgt            1           1   2.5759725931419463E-002           5      276570           0
</event>
<event>
      5   9999  3.19816E-02  6.36332E+01 -1.00000E+00  1.33353E-01
      21    -1     0     0   502   501  0.000000000E+00  0.000000000E+00  3.488101240E+02  3.488101240E+02  0.000000000E+00  0.00000E+00  9.000E+00
      21    -1     0     0   501   512  0.000000000E+00  0.000000000E+00 -1.662989808E+03  1.662989808E+03  0.000000000E+00  0.00000E+00  9.000E+00
      25     1     1     2     0     0  3.729840277E+02  4.418623177E+02 -4.164049616E+02  7.234483290E+02  1.250000000E+02  0.00000E+00  9.000E+00
      25     1     1     2     0     0 -3.843169548E+02 -5.044781921E+02 -3.464807636E+02  7.333973599E+02  1.250000000E+02  0.00000E+00  9.000E+00
      21     1     1     2   502   512  1.133292706E+01  6.261587440E+01 -5.512939592E+02  5.549542436E+02  7.629394531E-06  0.00000E+00  9.000E+00
#rwgt            1           1   2.9228662021501168E-002           5      277046           0
</event>
<event>
      5   9999  3.19816E-02  1.15291E+02 -1.00000E+00  1.21111E-01
      21    -1     0     0   502   511  0.000000000E+00  0.000000000E+00  6.024676779E+02  6.024676779E+02  0.000000000E+00  0.00000E+00  9.000E+00
      21    -1     0     0   501   502  0.000000000E+00  0.000000000E+00 -1.084006989E+02  1.084006989E+02  0.000000000E+00  0.00000E+00  9.000E+00
      25     1     1     2     0     0  7.017549735E+00  7.192680182E+01  1.805642213E+02  2.311950450E+02  1.250000000E+02  0.00000E+00  9.000E+00
      25     1     1     2     0     0 -5.833350927E+01  3.131430905E+01 -4.390643736E+00  1.415191224E+02  1.250000000E+02  0.00000E+00  9.000E+00
      21     1     1     2   501   511  5.131595953E+01 -1.032411109E+02  3.178934015E+02  3.381542094E+02  3.814697266E-06  0.00000E+00  9.000E+00
#rwgt            1           1   6.2005713666631275E-002           5      277174           0
</event>
<event>
      5   9999  3.19816E-02  1.21193E+02 -1.00000E+00  1.20186E-01
      21    -1     0     0   502   512  0.000000000E+00  0.000000000E+00  8.983586116E+02  8.983586116E+02  0.000000000E+00  0.00000E+00  9.000E+00
      21    -1     0     0   501   502  0.000000000E+00  0.000000000E+00 -2.135408204E+03  2.135408204E+03  0.000000000E+00  0.00000E+00  9.000E+00
      25     1     1     2     0     0  2.877532777E+02  5.952694887E+02 -1.832835683E+03  1.952449578E+03  1.250000000E+02  0.00000E+00  9.000E+00
      25     1     1     2     0     0 -2.636242132E+02 -7.140364297E+02  5.654015369E+02  9.563731733E+02  1.250000000E+02  0.00000E+00  9.000E+00
      21     1     1     2   501   512 -2.412906454E+01  1.187669410E+02  3.038455395E+01  1.249440641E+02  2.050954167E-06  0.00000E+00  9.000E+00
#rwgt            1           1   3.6220095852127591E-002           5      277218           0
</event>
<event>
      5   9999  3.19816E-02  5.41561E+01 -1.00000E+00  1.37125E-01
      21    -1     0     0   502   501  0.000000000E+00  0.000000000E+00  8.160986331E+01  8.160986331E+01  0.000000000E+00  0.00000E+00  9.000E+00
      21    -1     0     0   501   511  0.000000000E+00  0.000000000E+00 -7.701054769E+02  7.701054769E+02  0.000000000E+00  0.00000E+00  9.000E+00
      25     1     1     2     0     0  1.633918426E+02  8.675189833E+01 -3.538124706E+02  4.183671240E+02  1.250000000E+02  0.00000E+00  9.000E+00
      25     1     1     2     0     0 -1.257518998E+02 -4.781449581E+01 -1.390202930E+02  2.303289130E+02  1.250000000E+02  0.00000E+00  9.000E+00
      21     1     1     2   502   511 -3.763994274E+01 -3.893740252E+01 -1.956628500E+02  2.030193032E+02  3.814697266E-06  0.00000E+00  9.000E+00
#rwgt            1           1   2.7556398580523854E-002           5      277329           0
</event>
<event>
      5   9999  3.19816E-02  2.92823E+01 -1.00000E+00  1.53774E-01
      -1    -1     0     0     0   501  0.000000000E+00  0.000000000E+00  3.905330175E+02  3.905330175E+02  0.000000000E+00  0.00000E+00  9.000E+00
      21    -1     0     0   501   502  0.000000000E+00  0.000000000E+00 -1.184794683E+02  1.184794683E+02  0.000000000E+00  0.00000E+00  9.000E+00
      25     1     1     2     0     0  1.437887348E+01 -3.064994819E+01 -3.456927584E+01  1.340380773E+02  1.250000000E+02  0.00000E+00  9.000E+00
      25     1     1     2     0     0  1.243853078E+01  1.889064548E+01  3.188644511E+02  3.432362331E+02  1.250000000E+02  0.00000E+00  9.000E+00
      -1     1     1     2     0   502 -2.681740426E+01  1.175930271E+01 -1.224162599E+01  3.173817541E+01  4.768371582E-07  0.00000E+00  9.000E+00
#rwgt            1           1   2.8582111123263605E-002           5      277418           0
</event>
<event>
      5   9999  3.19816E-02  1.58925E+02 -1.00000E+00  1.15407E-01
      21    -1     0     0   502   501  0.000000000E+00  0.000000000E+00  1.368419178E+03  1.368419178E+03  0.000000000E+00  0.00000E+00  9.000E+00
      21    -1     0     0   511   502  0.000000000E+00  0.000000000E+00 -7.873716035E+02  7.873716035E+02  0.000000000E+00  0.00000E+00  9.000E+00
      25     1     1     2     0     0 -7.208016049E+02  5.113629124E+02  7.811249559E+02  1.186097879E+03  1.250000000E+02  0.00000E+00  9.000E+00
      25     1     1     2     0     0  6.882161515E+02 -3.558144488E+02 -2.035051915E+02  8.107310011E+02  1.250000000E+02  0.00000E+00  9.000E+00
      21     1     1     2   511   501  3.258545337E+01 -1.555484636E+02  3.427810290E+00  1.589619017E+02  2.482374242E-06  0.00000E+00  9.000E+00
#rwgt            1           1   3.7534948801400396E-002           5      277513           0
</event>
<event>
      5   9999  3.19816E-02  3.40154E+01 -1.00000E+00  1.49345E-01
      21    -1     0     0   502   512  0.000000000E+00  0.000000000E+00  8.343838298E+02  8.343838298E+02  0.000000000E+00  0.00000E+00  9.000E+00
      21    -1     0     0   501   502  0.000000000E+00  0.000000000E+00 -3.645451171E+02  3.645451171E+02  0.000000000E+00  0.00000E+00  9.000E+00
      25     1     1     2     0     0 -4.689465652E+02  2.426683567E+02  1.894785127E+02  5.747398709E+02  1.250000000E+02  0.00000E+00  9.000E+00
      25     1     1     2     0     0  4.443560575E+02 -2.191661891E+02  2.230628607E+02  5.575555256E+02  1.250000000E+02  0.00000E+00  9.000E+00
      21     1     1     2   501   512  2.459050771E+01 -2.350216763E+01  5.729733928E+01  6.663355042E+01  0.000000000E+00  0.00000E+00  9.000E+00
#rwgt            1           1   2.7447767178478417E-002           5      277582           0
</event>
<event>
      5   9999  3.19816E-02  2.35744E+02 -1.00000E+00  1.09109E-01
      21    -1     0     0   502   501  0.000000000E+00  0.000000000E+00  1.507804237E+02  1.507804237E+02  0.000000000E+00  0.00000E+00  9.000E+00
      21    -1     0     0   511   502  0.000000000E+00  0.000000000E+00 -1.339142834E+03  1.339142834E+03  0.000000000E+00  0.00000E+00  9.000E+00
      25     1     1     2     0     0 -4.478826467E+00  2.030052966E+02 -9.105057780E+01  2.552379635E+02  1.250000000E+02  0.00000E+00  9.000E+00
      25     1     1     2     0     0  2.307915402E+02 -1.369916533E+02 -3.935026754E+02  4.924437061E+02  1.250000000E+02  0.00000E+00  9.000E+00
      21     1     1     2   511   501 -2.263127137E+02 -6.601364325E+01 -7.038091574E+02  7.422415883E+02  0.000000000E+00  0.00000E+00  9.000E+00
#rwgt            1           1   2.9173192342070803E-002           5      277733           0
</event>
<event>
      5   9999  3.19816E-02  6.28747E+01 -1.00000E+00  1.33626E-01
      21    -1     0     0   502   512  0.000000000E+00  0.000000000E+00  9.735914451E+02  9.735914451E+02  0.000000000E+00  0.00000E+00  9.000E+00
      21    -1     0     0   501   502  0.000000000E+00  0.000000000E+00 -1.905602076E+03  1.905602076E+03  0.000000000E+00  0.00000E+00  9.000E+00
      25     1     1     2     0     0 -3.461045015E+02  7.944488814E+02  5.374922704E+02  1.027355971E+03  1.250000000E+02  0.00000E+00  9.000E+00
      25     1     1     2     0     0  3.132355619E+02 -7.408497539E+02 -1.549373736E+03  1.750188232E+03  1.250000000E+02  0.00000E+00  9.000E+00
      21     1     1     2   501   512  3.286893964E+01 -5.359912754E+01  7.987083416E+01  1.016493178E+02  1.907348633E-06  0.00000E+00  9.000E+00
#rwgt            1           1   6.5082917635479617E-002           5      277775           0
</event>
<event>
      5   9999  3.19816E-02  7.86389E+01 -1.00000E+00  1.28711E-01
      21    -1     0     0   502   501  0.000000000E+00  0.000000000E+00  5.904912188E+01  5.904912188E+01  0.000000000E+00  0.00000E+00  9.000E+00
      21    -1     0     0   501   511  0.000000000E+00  0.000000000E+00 -1.064145956E+03  1.064145956E+03  0.000000000E+00  0.00000E+00  9.000E+00
      25     1     1     2     0     0  9.372925054E+01  1.108503789E+02 -1.710970636E+02  2.568505092E+02  1.250000000E+02  0.00000E+00  9.000E+00
      25     1     1     2     0     0 -7.693427246E+01 -3.402591508E+01 -4.558657427E+02  4.801200064E+02  1.250000000E+02  0.00000E+00  9.000E+00
      21     1     1     2   502   511 -1.679497808E+01 -7.682446377E+01 -3.781340281E+02  3.862245626E+02  7.629394531E-06  0.00000E+00  9.000E+00
#rwgt            1           1   2.6291489200420279E-002           5      277995           0
</event>
<event>
      5   9999  3.19816E-02  2.08859E+01 -1.00000E+00  1.64831E-01
      21    -1     0     0   502   512  0.000000000E+00  0.000000000E+00  3.940969873E+02  3.940969873E+02  0.000000000E+00  0.00000E+00  9.000E+00
      21    -1     0     0   501   502  0.000000000E+00  0.000000000E+00 -5.040328079E+02  5.040328079E+02  0.000000000E+00  0.00000E+00  9.000E+00
      25     1     1     2     0     0  1.384909292E+02  2.748263865E+01 -4.300662154E+01  1.934156208E+02  1.250000000E+02  0.00000E+00  9.000E+00
      25     1     1     2     0     0 -1.582167832E+02 -3.434628916E+01 -3.583124445E+02  4.125833564E+02  1.250000000E+02  0.00000E+00  9.000E+00
      21     1     1     2   501   512  1.972585403E+01  6.863650510E+00  2.913832455E+02  2.921308180E+02  3.814697266E-06  0.00000E+00  9.000E+00
#rwgt            1           1   2.7876702684607742E-002           5      278079           0
</event>
<event>
      5   9999  3.19816E-02  1.86580E+02 -1.00000E+00  1.12757E-01
      21    -1     0     0   502   501  0.000000000E+00  0.000000000E+00  7.489209473E+02  7.489209473E+02  0.000000000E+00  0.00000E+00  9.000E+00
      21    -1     0     0   511   502  0.000000000E+00  0.000000000E+00 -5.269098695E+02  5.269098695E+02  0.000000000E+00  0.00000E+00  9.000E+00
      25     1     1     2     0     0  4.549072608E+02 -1.203461533E+02  3.490224173E+02  5.990538042E+02  1.250000000E+02  0.00000E+00  9.000E+00
      25     1     1     2     0     0 -3.271311024E+02 -1.561429691E+01  1.170446149E+02  3.695713819E+02  1.250000000E+02  0.00000E+00  9.000E+00
      21     1     1     2   511   501 -1.277761584E+02  1.359604502E+02 -2.440559545E+02  3.072056308E+02  4.672030912E-06  0.00000E+00  9.000E+00
#rwgt            1           1   2.9323324403279314E-002           5      278204           0
</event>
<event>
      5   9999  3.19816E-02  2.08649E+02 -1.00000E+00  1.10983E-01
      21    -1     0     0   502   501  0.000000000E+00  0.000000000E+00  6.829403890E+02  6.829403890E+02  0.000000000E+00  0.00000E+00  9.000E+00
      21    -1     0     0   512   502  0.000000000E+00  0.000000000E+00 -2.313846233E+03  2.313846233E+03  0.000000000E+00  0.00000E+00  9.000E+00
      25     1     1     2     0     0  4.130169841E+02 -2.388975507E+02 -1.184635008E+03  1.283214780E+03  1.250000000E+02  0.00000E+00  9.000E+00
      25     1     1     2     0     0 -3.260282351E+02  4.924702892E+01  5.731934240E+02  6.729750228E+02  1.250000000E+02  0.00000E+00  9.000E+00
      21     1     1     2   512   501 -8.698874897E+01  1.896505218E+02 -1.019464260E+03  1.040596820E+03  1.078959322E-05  0.00000E+00  9.000E+00
#rwgt            1           1   2.3159807330169063E-002           5      278234           0
</event>
<event>
      5   9999  3.19816E-02  3.63043E+01 -1.00000E+00  1.47500E-01
      21    -1     0     0   502   501  0.000000000E+00  0.000000000E+00  5.851680710E+02  5.851680710E+02  0.000000000E+00  0.00000E+00  9.000E+00
       2    -1     0     0   501     0  0.000000000E+00  0.000000000E+00 -1.897594333E+03  1.897594333E+03  0.000000000E+00  0.00000E+00  9.000E+00
      25     1     1     2     0     0  5.135173704E+02 -3.290496382E+02 -2.123938752E+02  6.578068959E+02  1.250000000E+02  0.00000E+00  9.000E+00
      25     1     1     2     0     0 -4.825255533E+02  3.479576490E+02  1.071210228E+02  6.172563071E+02  1.250000000E+02  0.00000E+00  9.000E+00
       2     1     1     2   502     0 -3.099181707E+01 -1.890801078E+01 -1.207153410E+03  1.207699201E+03  2.157918644E-05  0.00000E+00  9.000E+00
#rwgt            1           1   3.2419934452924827E-002           5      278320           0
</event>
<event>
      5   9999  3.19816E-02  1.80145E+01 -1.00000E+00  1.70205E-01
       2    -1     0     0   502     0  0.000000000E+00  0.000000000E+00  1.857030856E+03  1.857030856E+03  0.000000000E+00  0.00000E+00  9.000E+00
      21    -1     0     0   501   502  0.000000000E+00  0.000000000E+00 -1.427328166E+03  1.427328166E+03  0.000000000E+00  0.00000E+00  9.000E+00
      25     1     1     2     0     0  3.124595680E+02 -5.435226476E+01 -6.352397796E+02  7.209297663E+02  1.250000000E+02  0.00000E+00  9.000E+00
      25     1     1     2     0     0 -3.203069985E+02  3.813688887E+01 -7.092629466E+02  7.891323862E+02  1.250000000E+02  0.00000E+00  9.000E+00
       2     1     1     2   501     0  7.847430536E+00  1.621537589E+01  1.774205416E+03  1.774296869E+03  2.157918644E-05  0.00000E+00  9.000E+00
#rwgt            1           1   2.8743266196225203E-002           5      278511           0
</event>
<event>
      5   9999  3.19816E-02  5.70669E+01 -1.00000E+00  1.35877E-01
      21    -1     0     0   502   501  0.000000000E+00  0.000000000E+00  1.181485493E+03  1.181485493E+03  0.000000000E+00  0.00000E+00  9.000E+00
       2    -1     0     0   501     0  0.000000000E+00  0.000000000E+00 -6.377551655E+02  6.377551655E+02  0.000000000E+00  0.00000E+00  9.000E+00
      25     1     1     2     0     0 -1.574255340E+02 -4.765545082E+02  3.903431218E+02  6.479812889E+02  1.250000000E+02  0.00000E+00  9.000E+00
      25     1     1     2     0     0  1.458038758E+02  4.206835141E+02  5.794656344E+02  7.413762949E+02  1.250000000E+02  0.00000E+00  9.000E+00
       2     1     1     2   502     0  1.162165820E+01  5.587099401E+01 -4.260784284E+02  4.298830749E+02  9.344061824E-06  0.00000E+00  9.000E+00
#rwgt            1           1   2.9773465306952827E-002           5      278722           0
</event>
<event>
      5   9999  3.19816E-02  7.04769E+01 -1.00000E+00  1.31072E-01
      21    -1     0     0   511   501  0.000000000E+00  0.000000000E+00  1.725816467E+03  1.725816467E+03  0.000000000E+00  0.00000E+00  9.000E+00
      21    -1     0     0   501   502  0.000000000E+00  0.000000000E+00 -1.920447966E+02  1.920447966E+02  0.000000000E+00  0.00000E+00  9.000E+00
      25     1     1     2     0     0  6.611256979E+01  5.166841369E+02  5.167541232E+02  7.443071900E+02  1.250000000E+02  0.00000E+00  9.000E+00
      25     1     1     2     0     0 -1.279512951E+02 -4.828763822E+02  8.854199161E+02  1.024272699E+03  1.250000000E+02  0.00000E+00  9.000E+00
      21     1     1     2   511   502  6.183872532E+01 -3.380775468E+01  1.315976309E+02  1.492813742E+02  2.697398305E-06  0.00000E+00  9.000E+00
#rwgt            1           1   2.4820779956130322E-002           5      278797           0
</event>
<event>
      5   9999  3.19816E-02  4.46129E+01 -1.00000E+00  1.41960E-01
      21    -1     0     0   512   501  0.000000000E+00  0.000000000E+00  9.855551467E+02  9.855551467E+02  0.000000000E+00  0.00000E+00  9.000E+00
      21    -1     0     0   501   502  0.000000000E+00  0.000000000E+00 -8.029006987E+01  8.029006987E+01  0.000000000E+00  0.00000E+00  9.000E+00
      25     1     1     2     0     0 -2.159863602E+02  9.553618043E+01  4.358497435E+02  5.112409104E+02  1.250000000E+02  0.00000E+00  9.000E+00
      25     1     1     2     0     0  1.796044535E+02 -1.213561069E+02  3.859631468E+02  4.599756679E+02  1.250000000E+02  0.00000E+00  9.000E+00
      21     1     1     2   512   502  3.638190672E+01  2.581992646E+01  8.345218653E+01  9.462863824E+01  9.536743164E-07  0.00000E+00  9.000E+00
#rwgt            1           1   2.7791812711037929E-002           5      278943           0
</event>
<event>
      5   9999  3.19816E-02  6.88890E+01 -1.00000E+00  1.31574E-01
      21    -1     0     0   502   501  0.000000000E+00  0.000000000E+00  8.800885608E+02  8.800885608E+02  0.000000000E+00  0.00000E+00  9.000E+00
      21    -1     0     0   511   502  0.000000000E+00  0.000000000E+00 -1.190916222E+02  1.190916222E+02  0.000000000E+00  0.00000E+00  9.000E+00
      25     1     1     2     0     0 -6.003278209E+01 -8.530647486E+01  7.105160861E+02  7.289302012E+02  1.250000000E+02  0.00000E+00  9.000E+00
      25     1     1     2     0     0  1.285642685E+02  7.829699730E+01  2.726360109E+01  1.975537772E+02  1.250000000E+02  0.00000E+00  9.000E+00
      21     1     1     2   511   501 -6.853148645E+01  7.009477557E+00  2.321725141E+01  7.269620467E+01  1.261592536E-06  0.00000E+00  9.000E+00
#rwgt            1           1   2.6337993245643006E-002           5      279025           0
</event>
<event>
      5   9999  3.19816E-02  1.07172E+02 -1.00000E+00  1.22490E-01
      21    -1     0     0   502   512  0.000000000E+00  0.000000000E+00  9.661541673E+02  9.661541673E+02  0.000000000E+00  0.00000E+00  9.000E+00
      21    -1     0     0   501   502  0.000000000E+00  0.000000000E+00 -2.250030294E+03  2.250030294E+03  0.000000000E+00  0.00000E+00  9.000E+00
      25     1     1     2     0     0  1.202149895E+03  1.515250472E+02 -7.361971496E+02  1.423283336E+03  1.250000000E+02  0.00000E+00  9.000E+00
      25     1     1     2     0     0 -1.295780181E+03 -9.937962048E+01 -7.913591851E+02  1.526694778E+03  1.250000000E+02  0.00000E+00  9.000E+00
      21     1     1     2   501   512  9.363028547E+01 -5.214542675E+01  2.436802077E+02  2.662063477E+02  3.814697266E-06  0.00000E+00  9.000E+00
#rwgt            1           1   5.4834635456882788E-002           5      279085           0
</event>
<event>
      5   9999  3.19816E-02  2.63799E+02 -1.00000E+00  1.07439E-01
       1    -1     0     0   502     0  0.000000000E+00  0.000000000E+00  8.670337442E+02  8.670337442E+02  0.000000000E+00  0.00000E+00  9.000E+00
      21    -1     0     0   501   502  0.000000000E+00  0.000000000E+00 -3.002890208E+02  3.002890208E+02  0.000000000E+00  0.00000E+00  9.000E+00
      25     1     1     2     0     0 -3.202708341E+02 -1.921460033E+02  3.868624227E+02  5.520697672E+02  1.250000000E+02  0.00000E+00  9.000E+00
      25     1     1     2     0     0  6.776451025E+01  2.685037618E+02  1.506952804E+01  3.042012321E+02  1.250000000E+02  0.00000E+00  9.000E+00
       1     1     1     2   501     0  2.525063239E+02 -7.635775853E+01  1.648127726E+02  3.110517656E+02  3.814697266E-06  0.00000E+00  9.000E+00
#rwgt            1           1   2.8588610248130131E-002           5      279170           0
</event>
<event>
      5   9999  3.19816E-02  9.81806E+00 -1.00000E+00  1.96683E-01
      21    -1     0     0   511   501  0.000000000E+00  0.000000000E+00  2.725678642E+02  2.725678642E+02  0.000000000E+00  0.00000E+00  9.000E+00
      21    -1     0     0   501   502  0.000000000E+00  0.000000000E+00 -1.011902062E+03  1.011902062E+03  0.000000000E+00  0.00000E+00  9.000E+00
      25     1     1     2     0     0 -4.880268112E+02 -9.082054602E+01 -5.042242323E+02  7.185301778E+02  1.250000000E+02  0.00000E+00  9.000E+00
      25     1     1     2     0     0  4.787454131E+02  8.761899684E+01 -2.375634103E+02  5.558197847E+02  1.250000000E+02  0.00000E+00  9.000E+00
      21     1     1     2   511   502  9.281398111E+00  3.201549177E+00  2.453444981E+00  1.011996345E+01  8.940696716E-08  0.00000E+00  9.000E+00
#rwgt            1           1   2.8805326027329377E-002           5      279222           0
</event>
<event>
      5   9999  3.19816E-02  7.73095E+00 -1.00000E+00  2.09632E-01
      21    -1     0     0   502   501  0.000000000E+00  0.000000000E+00  3.493246286E+02  3.493246286E+02  0.000000000E+00  0.00000E+00  9.000E+00
      21    -1     0     0   512   502  0.000000000E+00  0.000000000E+00 -2.691722020E+02  2.691722020E+02  0.000000000E+00  0.00000E+00  9.000E+00
      25     1     1     2     0     0  2.117598759E+02  1.202034634E+01  1.419977531E+02  2.842095981E+02  1.250000000E+02  0.00000E+00  9.000E+00
      25     1     1     2     0     0 -2.194877112E+02 -1.223983491E+01  1.851152111E+01  2.535593527E+02  1.250000000E+02  0.00000E+00  9.000E+00
      21     1     1     2   512   501  7.727835377E+00  2.194885698E-01 -8.035684762E+01  8.072787978E+01  0.000000000E+00  0.00000E+00  9.000E+00
#rwgt            1           1   2.7725773183731581E-002           5      279461           0
</event>
<event>
      5   9999  3.19816E-02  7.40838E+00 -1.00000E+00  2.12131E-01
      21    -1     0     0   502   501  0.000000000E+00  0.000000000E+00  1.331023296E+02  1.331023296E+02  0.000000000E+00  0.00000E+00  9.000E+00
      21    -1     0     0   511   502  0.000000000E+00  0.000000000E+00 -3.575783639E+02  3.575783639E+02  0.000000000E+00  0.00000E+00  9.000E+00
      25     1     1     2     0     0 -1.322827067E+02  6.004976326E+01 -1.993076601E+02  2.765017757E+02  1.250000000E+02  0.00000E+00  9.000E+00
      25     1     1     2     0     0  1.361610857E+02 -6.636183142E+01 -9.233607760E+00  1.966061887E+02  1.250000000E+02  0.00000E+00  9.000E+00
      21     1     1     2   511   501 -3.878379025E+00  6.312068156E+00 -1.593476641E+01  1.757272912E+01  2.920019320E-07  0.00000E+00  9.000E+00
#rwgt            1           1   2.7078987701052579E-002           5      279707           0
</event>
<event>
      5   9999  3.19816E-02  7.04073E+01 -1.00000E+00  1.31093E-01
      21    -1     0     0   512   501  0.000000000E+00  0.000000000E+00  6.493148539E+01  6.493148539E+01  0.000000000E+00  0.00000E+00  9.000E+00
      21    -1     0     0   501   502  0.000000000E+00  0.000000000E+00 -2.869619285E+03  2.869619285E+03  0.000000000E+00  0.00000E+00  9.000E+00
      25     1     1     2     0     0 -1.128013302E+02  7.931759664E+01 -1.418379973E+02  2.340052109E+02  1.250000000E+02  0.00000E+00  9.000E+00
      25     1     1     2     0     0  1.202455148E+02 -9.304966600E+00 -2.601108768E+03  2.606901876E+03  1.250000000E+02  0.00000E+00  9.000E+00
      21     1     1     2   512   502 -7.444184673E+00 -7.001263004E+01 -6.174103478E+01  9.364368439E+01  1.907348633E-06  0.00000E+00  9.000E+00
#rwgt            1           1   4.0288377956548306E-002           5      279861           0
</event>
<event>
      5   9999  3.19816E-02  6.52215E+01 -1.00000E+00  1.32795E-01
      21    -1     0     0   511   501  0.000000000E+00  0.000000000E+00  3.997355840E+02  3.997355840E+02  0.000000000E+00  0.00000E+00  9.000E+00
      21    -1     0     0   501   502  0.000000000E+00  0.000000000E+00 -8.285080107E+02  8.285080107E+02  0.000000000E+00  0.00000E+00  9.000E+00
      25     1     1     2     0     0  5.234831135E+02 -4.354026524E+01 -4.052648357E+01  5.414773501E+02  1.250000000E+02  0.00000E+00  9.000E+00
      25     1     1     2     0     0 -4.637369076E+02  6.969805686E+01 -3.883080488E+02  6.215447525E+02  1.250000000E+02  0.00000E+00  9.000E+00
      21     1     1     2   511   502 -5.974620587E+01 -2.615779162E+01  6.210561545E-02  6.522149213E+01  1.297007881E-06  0.00000E+00  9.000E+00
#rwgt            1           1   2.7077948312412895E-002           5      279954           0
</event>
<event>
      5   9999  3.19816E-02  9.05816E+01 -1.00000E+00  1.25791E-01
       1    -1     0     0   502     0  0.000000000E+00  0.000000000E+00  7.331465292E+02  7.331465292E+02  0.000000000E+00  0.00000E+00  9.000E+00
      21    -1     0     0   501   502  0.000000000E+00  0.000000000E+00 -1.430265746E+03  1.430265746E+03  0.000000000E+00  0.00000E+00  9.000E+00
      25     1     1     2     0     0 -4.162115420E+02  2.988987907E+02 -9.564236052E+02  1.092219597E+03  1.250000000E+02  0.00000E+00  9.000E+00
      25     1     1     2     0     0  3.505743604E+02 -2.364745625E+02 -2.813038732E+02  5.230482482E+02  1.250000000E+02  0.00000E+00  9.000E+00
       1     1     1     2   501     0  6.563718155E+01 -6.242422816E+01  5.406082616E+02  5.481444302E+02  1.078959322E-05  0.00000E+00  9.000E+00
#rwgt            1           1   2.7574954107597496E-002           5      280076           0
</event>
<event>
      5   9999  3.19816E-02  1.10108E+02 -1.00000E+00  1.21976E-01
      21    -1     0     0   502   501  0.000000000E+00  0.000000000E+00  8.483481365E+02  8.483481365E+02  0.000000000E+00  0.00000E+00  9.000E+00
      21    -1     0     0   511   502  0.000000000E+00  0.000000000E+00 -3.935389714E+02  3.935389714E+02  0.000000000E+00  0.00000E+00  9.000E+00
      25     1     1     2     0     0 -1.051183816E+02 -2.688429792E+02  5.385012878E+02  6.236465814E+02  1.250000000E+02  0.00000E+00  9.000E+00
      25     1     1     2     0     0  3.119253916E+01  1.872416077E+02  2.069843443E+02  3.074083813E+02  1.250000000E+02  0.00000E+00  9.000E+00
      21     1     1     2   511   501  7.392584245E+01  8.160137153E+01 -2.906764669E+02  3.108321451E+02  5.394796609E-06  0.00000E+00  9.000E+00
#rwgt            1           1   2.8253352137780668E-002           5      280191           0
</event>
<event>
      5   9999  3.19816E-02  5.48180E+01 -1.00000E+00  1.36834E-01
      21    -1     0     0   512   501  0.000000000E+00  0.000000000E+00  1.030798235E+03  1.030798235E+03  0.000000000E+00  0.00000E+00  9.000E+00
      21    -1     0     0   501   502  0.000000000E+00  0.000000000E+00 -6.310846485E+02  6.310846485E+02  0.000000000E+00  0.00000E+00  9.000E+00
      25     1     1     2     0     0  1.010980424E+02 -1.892469987E+02 -5.707399296E+02  6.224181134E+02  1.250000000E+02  0.00000E+00  9.000E+00
      25     1     1     2     0     0 -1.381517151E+02  2.296455085E+02  9.145419246E+02  9.611632992E+02  1.250000000E+02  0.00000E+00  9.000E+00
      21     1     1     2   512   502  3.705367266E+01 -4.039850972E+01  5.591159104E+01  7.830147034E+01  6.743495762E-07  0.00000E+00  9.000E+00
#rwgt            1           1   2.5569322035343570E-002           5      280274           0
</event>
<event>
      5   9999  3.19816E-02  1.59483E+02 -1.00000E+00  1.15348E-01
      21    -1     0     0   502   511  0.000000000E+00  0.000000000E+00  3.742592897E+02  3.742592897E+02  0.000000000E+00  0.00000E+00  9.000E+00
      21    -1     0     0   501   502  0.000000000E+00  0.000000000E+00 -7.332398531E+02  7.332398531E+02  0.000000000E+00  0.00000E+00  9.000E+00
      25     1     1     2     0     0  2.948004577E+02  3.262694129E+02 -5.966856616E+01  4.610253544E+02  1.250000000E+02  0.00000E+00  9.000E+00
      25     1     1     2     0     0 -2.787245584E+02 -1.675983089E+02 -3.346669675E+02  4.831185691E+02  1.250000000E+02  0.00000E+00  9.000E+00
      21     1     1     2   501   511 -1.607589928E+01 -1.586711039E+02  3.535497028E+01  1.633552194E+02  1.430511475E-06  0.00000E+00  9.000E+00
#rwgt            1           1   2.4690040992778092E-002           5      280418           0
</event>
<event>
      5   9999  3.19816E-02  1.94761E+02 -1.00000E+00  1.12069E-01
      21    -1     0     0   502   512  0.000000000E+00  0.000000000E+00  1.996384665E+02  1.996384665E+02  0.000000000E+00  0.00000E+00  9.000E+00
      21    -1     0     0   501   502  0.000000000E+00  0.000000000E+00 -5.460789043E+02  5.460789043E+02  0.000000000E+00  0.00000E+00  9.000E+00
      25     1     1     2     0     0  1.329000674E+02  5.978158662E+00 -3.021533276E+02  3.530152967E+02  1.250000000E+02  0.00000E+00  9.000E+00
      25     1     1     2     0     0  4.284762395E+01 -8.990913540E+01 -1.019627854E+02  1.895810674E+02  1.250000000E+02  0.00000E+00  9.000E+00
      21     1     1     2   501   512 -1.757476914E+02  8.393097674E+01  5.767567519E+01  2.031210068E+02  2.939421655E-06  0.00000E+00  9.000E+00
#rwgt            2          11   6.4645090070870699E-003           5      280548           0
</event>
<event>
      5   9999  3.19816E-02  1.14460E+01 -1.00000E+00  1.89212E-01
      21    -1     0     0   502   501  0.000000000E+00  0.000000000E+00  1.111347310E+03  1.111347310E+03  0.000000000E+00  0.00000E+00  9.000E+00
      21    -1     0     0   501   511  0.000000000E+00  0.000000000E+00 -3.134602930E+01  3.134602930E+01  0.000000000E+00  0.00000E+00  9.000E+00
      25     1     1     2     0     0 -2.721164887E+01  7.158515788E+01  2.224479004E+02  2.664075394E+02  1.250000000E+02  0.00000E+00  9.000E+00
      25     1     1     2     0     0  3.683297254E+01 -6.538506941E+01  8.503574904E+02  8.627657484E+02  1.250000000E+02  0.00000E+00  9.000E+00
      21     1     1     2   502   511 -9.621323665E+00 -6.200088463E+00  7.195890357E+00  1.352005193E+01  5.127385418E-07  0.00000E+00  9.000E+00
#rwgt            1           1   2.3796074316058593E-002           5      280598           0
</event>
<event>
      5   9999  3.19816E-02  2.66985E+01 -1.00000E+00  1.56642E-01
      21    -1     0     0   502   501  0.000000000E+00  0.000000000E+00  3.240619733E+01  3.240619733E+01  0.000000000E+00  0.00000E+00  9.000E+00
      21    -1     0     0   501   512  0.000000000E+00  0.000000000E+00 -3.186445650E+03  3.186445650E+03  0.000000000E+00  0.00000E+00  9.000E+00
      25     1     1     2     0     0 -2.357886417E+01 -1.534118629E+02 -3.270312222E+02  3.829694280E+02  1.250000000E+02  0.00000E+00  9.000E+00
      25     1     1     2     0     0  4.802249807E+01  1.426731134E+02 -2.588353938E+03  2.595739371E+03  1.250000000E+02  0.00000E+00  9.000E+00
      21     1     1     2   502   512 -2.444363390E+01  1.073874950E+01 -2.386542930E+02  2.401430481E+02  2.697398305E-06  0.00000E+00  9.000E+00
#rwgt            1           1   3.0207056681329440E-002           5      280788           0
</event>
<event>
      5   9999  3.19816E-02  4.81492E+01 -1.00000E+00  1.40017E-01
      21    -1     0     0   502   501  0.000000000E+00  0.000000000E+00  4.015973033E+02  4.015973033E+02  0.000000000E+00  0.00000E+00  9.000E+00
      21    -1     0     0   511   502  0.000000000E+00  0.000000000E+00 -2.489594941E+02  2.489594941E+02  0.000000000E+00  0.00000E+00  9.000E+00
      25     1     1     2     0     0  1.688105471E+02 -2.422498385E+01  2.612819927E+02  3.361207080E+02  1.250000000E+02  0.00000E+00  9.000E+00
      25     1     1     2     0     0 -2.127862198E+02  4.616633703E+00 -9.379980416E+01  2.640505480E+02  1.250000000E+02  0.00000E+00  9.000E+00
      21     1     1     2   511   501  4.397567272E+01  1.960835015E+01 -1.484437936E+01  5.038554143E+01  3.371747881E-07  0.00000E+00  9.000E+00
#rwgt            1           1   2.8616378068361030E-002           5      280941           0
</event>
<event>
      5   9999  3.19816E-02  1.03160E+02 -1.00000E+00  1.23223E-01
      21    -1     0     0   502   512  0.000000000E+00  0.000000000E+00  1.020758042E+03  1.020758042E+03  0.000000000E+00  0.00000E+00  9.000E+00
      21    -1     0     0   501   502  0.000000000E+00  0.000000000E+00 -1.916984615E+02  1.916984615E+02  0.000000000E+00  0.00000E+00  9.000E+00
      25     1     1     2     0     0  1.988237020E+02 -1.979199632E+02  4.246935591E+02  5.241114342E+02  1.250000000E+02  0.00000E+00  9.000E+00
      25     1     1     2     0     0 -1.231595697E+02  2.680414197E+02  5.626166272E+01  3.252765854E+02  1.250000000E+02  0.00000E+00  9.000E+00
      21     1     1     2   501   512 -7.566413227E+01 -7.012145655E+01  3.481043591E+02  3.630684845E+02  3.814697266E-06  0.00000E+00  9.000E+00
#rwgt            1           1   2.8756873844381799E-002           5      281116           0
</event>
<event>
      5   9999  3.19816E-02  2.96774E+01 -1.00000E+00  1.53367E-01
      21    -1     0     0   502   501  0.000000000E+00  0.000000000E+00  2.388602373E+02  2.388602373E+02  0.000000000E+00  0.00000E+00  9.000E+00
      21    -1     0     0   511   502  0.000000000E+00  0.000000000E+00 -5.621277671E+02  5.621277671E+02  0.000000000E+00  0.00000E+00  9.000E+00
      25     1     1     2     0     0  1.418772016E+02  1.861827875E+02  1.061325322E+02  2.858011286E+02  1.250000000E+02  0.00000E+00  9.000E+00
      25     1     1     2     0     0 -1.523757693E+02 -1.584243739E+02 -4.012538951E+02  4.742850890E+02  1.250000000E+02  0.00000E+00  9.000E+00
      21     1     1     2   511   501  1.049856775E+01 -2.775841362E+01 -2.814616694E+01  4.090178682E+01  3.371747881E-07  0.00000E+00  9.000E+00
#rwgt            2          11   1.1499265910573776E-002           5      281226           0
</event>
<event>
      5   9999  3.19816E-02  1.42737E+02 -1.00000E+00  1.17254E-01
      21    -1     0     0   502   512  0.000000000E+00  0.000000000E+00  1.252275596E+03  1.252275596E+03  0.000000000E+00  0.00000E+00  9.000E+00
      21    -1     0     0   501   502  0.000000000E+00  0.000000000E+00 -8.130337965E+01  8.130337965E+01  0.000000000E+00  0.00000E+00  9.000E+00
      25     1     1     2     0     0  2.360125302E+01 -3.453905485E+01  3.618789536E+02  3.851380824E+02  1.250000000E+02  0.00000E+00  9.000E+00
      25     1     1     2     0     0 -3.250550113E+01 -1.079203160E+02  4.933679216E+01  1.753924778E+02  1.250000000E+02  0.00000E+00  9.000E+00
      21     1     1     2   501   512  8.904248115E+00  1.424593709E+02  7.597564705E+02  7.730484153E+02  0.000000000E+00  0.00000E+00  9.000E+00
#rwgt            1           1   3.3983543873763226E-002           5      281246           0
</event>
<event>
      5   9999  3.19816E-02  6.84623E+02 -1.00000E+00  9.51234E-02
       1    -1     0     0   502     0  0.000000000E+00  0.000000000E+00  8.813785394E+02  8.813785394E+02  0.000000000E+00  0.00000E+00  9.000E+00
      21    -1     0     0   501   502  0.000000000E+00  0.000000000E+00 -1.669612708E+03  1.669612708E+03  0.000000000E+00  0.00000E+00  9.000E+00
      25     1     1     2     0     0  4.589472676E+02 -5.621885270E+02 -2.643999415E+02  7.824454380E+02  1.250000000E+02  0.00000E+00  9.000E+00
      25     1     1     2     0     0 -3.265260590E+02 -1.095060421E+02  4.486516368E+02  5.792444489E+02  1.250000000E+02  0.00000E+00  9.000E+00
       1     1     1     2   501     0 -1.324212086E+02  6.716945691E+02 -9.724858634E+02  1.189301360E+03  1.525878906E-05  0.00000E+00  9.000E+00
#rwgt            2          17   3.1251118483075018E-005           5      281346           0
</event>
<event>
      5   9999  3.19816E-02  5.15835E+01 -1.00000E+00  1.38307E-01
      21    -1     0     0   502   501  0.000000000E+00  0.000000000E+00  1.422249395E+03  1.422249395E+03  0.000000000E+00  0.00000E+00  9.000E+00
      21    -1     0     0   511   502  0.000000000E+00  0.000000000E+00 -1.371823129E+02  1.371823129E+02  0.000000000E+00  0.00000E+00  9.000E+00
      25     1     1     2     0     0 -3.347397170E+02 -6.636409814E+01  8.815431592E+02  9.535188583E+02  1.250000000E+02  0.00000E+00  9.000E+00
      25     1     1     2     0     0  3.707065021E+02  2.938779643E+01  3.886387735E+02  5.522246369E+02  1.250000000E+02  0.00000E+00  9.000E+00
      21     1     1     2   511   501 -3.596678509E+01  3.697630171E+01  1.488514947E+01  5.368821279E+01  7.152557373E-07  0.00000E+00  9.000E+00
#rwgt            1           1   2.7751274322268149E-002           5      281380           0
</event>
<event>
      5   9999  3.19816E-02  5.05593E+01 -1.00000E+00  1.38800E-01
      21    -1     0     0   502   501  0.000000000E+00  0.000000000E+00  5.121737388E+02  5.121737388E+02  0.000000000E+00  0.00000E+00  9.000E+00
      21    -1     0     0   512   502  0.000000000E+00  0.000000000E+00 -6.358394786E+02  6.358394786E+02  0.000000000E+00  0.00000E+00  9.000E+00
      25     1     1     2     0     0  2.983617653E+02 -2.414473143E+02  1.336856653E+02  4.252215960E+02  1.250000000E+02  0.00000E+00  9.000E+00
      25     1     1     2     0     0 -2.690429419E+02  2.826376887E+02  4.866427697E+01  4.126274101E+02  1.250000000E+02  0.00000E+00  9.000E+00
      21     1     1     2   512   501 -2.931882340E+01 -4.119037444E+01 -3.060156821E+02  3.101642114E+02  7.629394531E-06  0.00000E+00  9.000E+00
#rwgt            1           1   2.9778535177327977E-002           5      281516           0
</event>
<event>
      5   9999  3.19816E-02  2.34742E+01 -1.00000E+00  1.60827E-01
      21    -1     0     0   502   501  0.000000000E+00  0.000000000E+00  1.734118865E+02  1.734118865E+02  0.000000000E+00  0.00000E+00  9.000E+00
      21    -1     0     0   501   511  0.000000000E+00  0.000000000E+00 -2.724077729E+02  2.724077729E+02  0.000000000E+00  0.00000E+00  9.000E+00
      25     1     1     2     0     0 -6.608665736E+01  1.922660108E+01 -7.893036745E+01  1.630708784E+02  1.250000000E+02  0.00000E+00  9.000E+00
      25     1     1     2     0     0  5.691681246E+01 -4.083572573E+01  9.066010895E+01  1.695621874E+02  1.250000000E+02  0.00000E+00  9.000E+00
      21     1     1     2   502   511  9.169844907E+00  2.160912465E+01 -1.107256279E+02  1.131865937E+02  1.348699152E-06  0.00000E+00  9.000E+00
#rwgt            1           1   2.5141806139954946E-002           5      281626           0
</event>
<event>
      5   9999  3.19816E-02  1.55208E+01 -1.00000E+00  1.75998E-01
      21    -1     0     0   512   501  0.000000000E+00  0.000000000E+00  7.219440022E+01  7.219440022E+01  0.000000000E+00  0.00000E+00  9.000E+00
      21    -1     0     0   501   502  0.000000000E+00  0.000000000E+00 -2.649367877E+03  2.649367877E+03  0.000000000E+00  0.00000E+00  9.000E+00
      25     1     1     2     0     0  3.622680576E+02 -5.695239247E+01 -1.708300989E+03  1.751684615E+03  1.250000000E+02  0.00000E+00  9.000E+00
      25     1     1     2     0     0 -3.728200845E+02  6.833442140E+01 -8.667339284E+02  9.542102028E+02  1.250000000E+02  0.00000E+00  9.000E+00
      21     1     1     2   512   502  1.055202696E+01 -1.138202893E+01 -2.138559417E+00  1.566745965E+01  6.336060651E-07  0.00000E+00  9.000E+00
#rwgt            1           1   6.9700102030032240E-002           5      281782           0
</event>
<event>
      5   9999  3.19816E-02  3.31475E+01 -1.00000E+00  1.50090E-01
      21    -1     0     0   502   501  0.000000000E+00  0.000000000E+00  1.139553874E+02  1.139553874E+02  0.000000000E+00  0.00000E+00  9.000E+00
      21    -1     0     0   501   511  0.000000000E+00  0.000000000E+00 -5.890292469E+02  5.890292469E+02  0.000000000E+00  0.00000E+00  9.000E+00
      25     1     1     2     0     0  1.671904806E+02 -9.805217569E+01 -1.347665844E+02  2.671215421E+02  1.250000000E+02  0.00000E+00  9.000E+00
      25     1     1     2     0     0 -1.791467204E+02  6.713608185E+01 -2.453875870E+02  3.353220374E+02  1.250000000E+02  0.00000E+00  9.000E+00
      21     1     1     2   502   511  1.195623975E+01  3.091609384E+01 -9.491968808E+01  1.005410549E+02  1.907348633E-06  0.00000E+00  9.000E+00
#rwgt            1           1   2.6970214307344993E-002           5      281980           0
</event>
<event>
      5   9999  3.19816E-02  1.06990E+02 -1.00000E+00  1.22522E-01
       2    -1     0     0   502     0  0.000000000E+00  0.000000000E+00  3.391402129E+03  3.391402129E+03  0.000000000E+00  0.00000E+00  9.000E+00
      21    -1     0     0   501   502  0.000000000E+00  0.000000000E+00 -5.199592118E+01  5.199592118E+01  0.000000000E+00  0.00000E+00  9.000E+00
      25     1     1     2     0     0  9.474823448E+00 -1.088698935E+02  2.240238591E+02  2.788442494E+02  1.250000000E+02  0.00000E+00  9.000E+00
      25     1     1     2     0     0 -4.093820981E+01  2.111286554E+02  6.367444389E+02  6.836078749E+02  1.250000000E+02  0.00000E+00  9.000E+00
       2     1     1     2   501     0  3.146338636E+01 -1.022587618E+02  2.478637910E+03  2.480945926E+03  3.051757812E-05  0.00000E+00  9.000E+00
#rwgt            1           1   2.9724300976635334E-002           5      282106           0
</event>
<event>
      5   9999  3.19816E-02  1.44320E+01 -1.00000E+00  1.78978E-01
      21    -1     0     0   511   501  0.000000000E+00  0.000000000E+00  1.674079959E+02  1.674079959E+02  0.000000000E+00  0.00000E+00  9.000E+00
      21    -1     0     0   501   502  0.000000000E+00  0.000000000E+00 -3.078549560E+02  3.078549560E+02  0.000000000E+00  0.00000E+00  9.000E+00
      25     1     1     2     0     0  1.567882235E+02  9.299558934E+01 -6.585193732E+01  2.306343520E+02  1.250000000E+02  0.00000E+00  9.000E+00
      25     1     1     2     0     0 -1.438765439E+02 -9.944315458E+01 -7.976804524E+01  2.292974965E+02  1.250000000E+02  0.00000E+00  9.000E+00
      21     1     1     2   511   502 -1.291167969E+01  6.447565244E+00  5.173022440E+00  1.533110339E+01  1.884864366E-07  0.00000E+00  9.000E+00
#rwgt            1           1   2.6697534280957055E-002           5      282144           0
</event>
<event>
      5   9999  3.19816E-02  5.26404E+01 -1.00000E+00  1.37812E-01
      21    -1     0     0   512   501  0.000000000E+00  0.000000000E+00  3.477458589E+02  3.477458589E+02  0.000000000E+00  0.00000E+00  9.000E+00
      21    -1     0     0   501   502  0.000000000E+00  0.000000000E+00 -7.716697806E+02  7.716697806E+02  0.000000000E+00  0.00000E+00  9.000E+00
      25     1     1     2     0     0  1.527748795E+02 -2.140299535E+02  8.822858057E+01  3.042339022E+02  1.250000000E+02  0.00000E+00  9.000E+00
      25     1     1     2     0     0 -1.860956562E+02  1.732778542E+02 -6.274374789E+02  6.884472369E+02  1.250000000E+02  0.00000E+00  9.000E+00
      21     1     1     2   512   502  3.332077676E+01  4.075209926E+01  1.152849767E+02  1.267345004E+02  2.336015456E-06  0.00000E+00  9.000E+00
#rwgt            1           1   2.8199311035523422E-002           5      282326           0
</event>
<event>
      5   9999  3.19816E-02  1.47067E+02 -1.00000E+00  1.16735E-01
      21    -1     0     0   502   511  0.000000000E+00  0.000000000E+00  9.443016811E+02  9.443016811E+02  0.000000000E+00  0.00000E+00  9.000E+00
      21    -1     0     0   501   502  0.000000000E+00  0.000000000E+00 -2.001303260E+02  2.001303260E+02  0.000000000E+00  0.00000E+00  9.000E+00
      25     1     1     2     0     0  2.019707952E+02 -1.205707539E+02  3.142960123E+01  2.682206715E+02  1.250000000E+02  0.00000E+00  9.000E+00
      25     1     1     2     0     0 -3.307151295E+02  4.948225906E+01  5.605153820E+02  6.645475787E+02  1.250000000E+02  0.00000E+00  9.000E+00
      21     1     1     2   501   511  1.287443343E+02  7.108849483E+01  1.522263718E+02  2.116637569E+02  3.814697266E-06  0.00000E+00  9.000E+00
#rwgt            1           1   2.7460136817267274E-002           5      282436           0
</event>
<event>
      5   9999  3.19816E-02  8.99728E+02 -1.00000E+00  9.21064E-02
      21    -1     0     0   502   501  0.000000000E+00  0.000000000E+00  6.592405539E+02  6.592405539E+02  0.000000000E+00  0.00000E+00  9.000E+00
      21    -1     0     0   512   502  0.000000000E+00  0.000000000E+00 -1.600717308E+03  1.600717308E+03  0.000000000E+00  0.00000E+00  9.000E+00
      25     1     1     2     0     0  7.746336764E+02  3.290407055E+01 -1.347814379E+02  7.968256061E+02  1.250000000E+02  0.00000E+00  9.000E+00
      25     1     1     2     0     0  9.096665886E+01 -2.783550410E+02 -2.529901825E+02  4.066761541E+02  1.250000000E+02  0.00000E+00  9.000E+00
      21     1     1     2   512   501 -8.656003353E+02  2.454509704E+02 -5.537051335E+02  1.056456101E+03  2.018548058E-05  0.00000E+00  9.000E+00
#rwgt            2          11   1.3058676874659475E-003           5      282490           0
</event>
<event>
      5   9999  3.19816E-02  1.92006E+02 -1.00000E+00  1.12297E-01
      21    -1     0     0   502   501  0.000000000E+00  0.000000000E+00  2.373907944E+02  2.373907944E+02  0.000000000E+00  0.00000E+00  9.000E+00
      21    -1     0     0   501   511  0.000000000E+00  0.000000000E+00 -1.285842126E+03  1.285842126E+03  0.000000000E+00  0.00000E+00  9.000E+00
      25     1     1     2     0     0  1.512673012E+01 -1.614886796E+02 -9.318808243E+02  9.541143969E+02  1.250000000E+02  0.00000E+00  9.000E+00
      25     1     1     2     0     0 -1.291748358E+02  7.024299484E+00  1.543674443E+02  2.370438500E+02  1.250000000E+02  0.00000E+00  9.000E+00
      21     1     1     2   502   511  1.140481057E+02  1.544643801E+02 -2.709379513E+02  3.320746732E+02  0.000000000E+00  0.00000E+00  9.000E+00
#rwgt            1           1   2.9610418553822574E-002           5      282510           0
</event>
<event>
      5   9999  3.19816E-02  9.85887E+01 -1.00000E+00  1.24106E-01
      21    -1     0     0   512   501  0.000000000E+00  0.000000000E+00  1.368175444E+02  1.368175444E+02  0.000000000E+00  0.00000E+00  9.000E+00
      21    -1     0     0   501   502  0.000000000E+00  0.000000000E+00 -1.038875933E+03  1.038875933E+03  0.000000000E+00  0.00000E+00  9.000E+00
      25     1     1     2     0     0  4.164329389E+01  8.962658764E+01 -7.674092052E+02  7.837786533E+02  1.250000000E+02  0.00000E+00  9.000E+00
      25     1     1     2     0     0 -1.159704448E+02 -1.543969574E+02 -1.712264551E+02  2.867595918E+02  1.250000000E+02  0.00000E+00  9.000E+00
      21     1     1     2   512   502  7.432715089E+01  6.477036979E+01  3.657727151E+01  1.051552326E+02  2.821006671E-06  0.00000E+00  9.000E+00
#rwgt            1           1   3.4243466958483459E-002           5      282550           0
</event>
<event>
      5   9999  3.19816E-02  1.79511E+02 -1.00000E+00  1.13384E-01
      21    -1     0     0   502   501  0.000000000E+00  0.000000000E+00  6.945418199E+01  6.945418199E+01  0.000000000E+00  0.00000E+00  9.000E+00
      21    -1     0     0   511   502  0.000000000E+00  0.000000000E+00 -2.009710576E+03  2.009710576E+03  0.000000000E+00  0.00000E+00  9.000E+00
      25     1     1     2     0     0 -2.031960558E+02 -1.740180720E+02 -7.664049390E+02  8.213236006E+02  1.250000000E+02  0.00000E+00  9.000E+00
      25     1     1     2     0     0  5.120662282E+01  7.850234539E+01 -1.440438884E+02  2.125050075E+02  1.250000000E+02  0.00000E+00  9.000E+00
      21     1     1     2   511   501  1.519894330E+02  9.551572659E+01 -1.029807566E+03  1.045336149E+03  1.525878906E-05  0.00000E+00  9.000E+00
#rwgt            1           1   2.9735374498373768E-002           5      282608           0
</event>
<event>
      5   9999  3.19816E-02  5.08731E+01 -1.00000E+00  1.38648E-01
      21    -1     0     0   512   501  0.000000000E+00  0.000000000E+00  9.841341767E+02  9.841341767E+02  0.000000000E+00  0.00000E+00  9.000E+00
      21    -1     0     0   501   502  0.000000000E+00  0.000000000E+00 -4.978781043E+02  4.978781043E+02  0.000000000E+00  0.00000E+00  9.000E+00
      25     1     1     2     0     0 -4.473134281E+02 -5.150259910E+02  2.877082751E+02  7.508276273E+02  1.250000000E+02  0.00000E+00  9.000E+00
      25     1     1     2     0     0  4.083807064E+02  4.822797813E+02  1.512416930E+02  6.617156779E+02  1.250000000E+02  0.00000E+00  9.000E+00
      21     1     1     2   512   502  3.893272179E+01  3.274620975E+01  4.730610438E+01  6.946897574E+01  0.000000000E+00  0.00000E+00  9.000E+00
#rwgt            1           1   3.1141915859338832E-002           5      282682           0
</event>
<event>
      5   9999  3.19816E-02  1.02948E+02 -1.00000E+00  1.23263E-01
      21    -1     0     0   502   501  0.000000000E+00  0.000000000E+00  2.471364150E+02  2.471364150E+02  0.000000000E+00  0.00000E+00  9.000E+00
       1    -1     0     0   501     0  0.000000000E+00  0.000000000E+00 -1.497640908E+03  1.497640908E+03  0.000000000E+00  0.00000E+00  9.000E+00
      25     1     1     2     0     0 -2.520088894E+02  6.876020459E+01 -7.528885755E+02  8.066614242E+02  1.250000000E+02  0.00000E+00  9.000E+00
      25     1     1     2     0     0  2.128757211E+02  2.646019788E+01  1.448583030E+02  2.874458951E+02  1.250000000E+02  0.00000E+00  9.000E+00
       1     1     1     2   502     0  3.913316832E+01 -9.522040246E+01 -6.424742209E+02  6.506700042E+02  0.000000000E+00  0.00000E+00  9.000E+00
#rwgt            1           1   2.7074006866316030E-002           5      282811           0
</event>
<event>
      5   9999  3.19816E-02  1.73934E+02 -1.00000E+00  1.13901E-01
      21    -1     0     0   502   511  0.000000000E+00  0.000000000E+00  4.291983510E+02  4.291983510E+02  0.000000000E+00  0.00000E+00  9.000E+00
      21    -1     0     0   501   502  0.000000000E+00  0.000000000E+00 -7.629128281E+02  7.629128281E+02  0.000000000E+00  0.00000E+00  9.000E+00
      25     1     1     2     0     0 -2.012855815E+02  2.989748568E+02 -3.512148442E+02  5.185351648E+02  1.250000000E+02  0.00000E+00  9.000E+00
      25     1     1     2     0     0  2.666155461E+02 -1.377764248E+02 -2.101305591E+02  3.870995279E+02  1.250000000E+02  0.00000E+00  9.000E+00
      21     1     1     2   501   511 -6.532996460E+01 -1.611984320E+02  2.276309261E+02  2.864764864E+02  6.031565972E-06  0.00000E+00  9.000E+00
#rwgt            1           1   2.7544402582460353E-002           5      282907           0
</event>
<event>
      5   9999  3.19816E-02  4.41252E+01 -1.00000E+00  1.42245E-01
      21    -1     0     0   502   501  0.000000000E+00  0.000000000E+00  4.923413845E+02  4.923413845E+02  0.000000000E+00  0.00000E+00  9.000E+00
      21    -1     0     0   512   502  0.000000000E+00  0.000000000E+00 -2.075722614E+03  2.075722614E+03  0.000000000E+00  0.00000E+00  9.000E+00
      25     1     1     2     0     0 -5.819262165E+02 -4.576530103E+02 -1.336554012E+03  1.532999030E+03  1.250000000E+02  0.00000E+00  9.000E+00
      25     1     1     2     0     0  5.518462890E+02  4.899366109E+02  3.550552378E+01  7.493049123E+02  1.250000000E+02  0.00000E+00  9.000E+00
      21     1     1     2   512   501  3.007992746E+01 -3.228360061E+01 -2.823327413E+02  2.857600562E+02  3.814697266E-06  0.00000E+00  9.000E+00
#rwgt            1           1   2.9118780849348991E-002           5      282960           0
</event>
<event>
      5   9999  3.19816E-02  3.52585E+01 -1.00000E+00  1.48323E-01
      21    -1     0     0   511   501  0.000000000E+00  0.000000000E+00  2.742531209E+03  2.742531209E+03  0.000000000E+00  0.00000E+00  9.000E+00
      21    -1     0     0   501   502  0.000000000E+00  0.000000000E+00 -4.462324036E+01  4.462324036E+01  0.000000000E+00  0.00000E+00  9.000E+00
      25     1     1     2     0     0  2.230226205E+02 -1.836270163E+02  1.225784323E+03  1.265555284E+03  1.250000000E+02  0.00000E+00  9.000E+00
      25     1     1     2     0     0 -2.566196862E+02  1.729313082E+02  1.146964737E+03  1.194534222E+03  1.250000000E+02  0.00000E+00  9.000E+00
      21     1     1     2   511   502  3.359706573E+01  1.069570815E+01  3.251589088E+02  3.270649430E+02  3.814697266E-06  0.00000E+00  9.000E+00
#rwgt            1           1   8.0360654882857152E-002           5      283089           0
</event>
<event>
      5   9999  3.19816E-02  1.01276E+02 -1.00000E+00  1.23581E-01
      21    -1     0     0   502   501  0.000000000E+00  0.000000000E+00  1.092975235E+03  1.092975235E+03  0.000000000E+00  0.00000E+00  9.000E+00
      21    -1     0     0   501   512  0.000000000E+00  0.000000000E+00 -2.176668950E+02  2.176668950E+02  0.000000000E+00  0.00000E+00  9.000E+00
      25     1     1     2     0     0  3.080910250E+02 -2.066676939E+02  1.891956484E+02  4.348006540E+02  1.250000000E+02  0.00000E+00  9.000E+00
      25     1     1     2     0     0 -2.151549682E+02  1.664230873E+02  7.110890583E+02  7.715315633E+02  1.250000000E+02  0.00000E+00  9.000E+00
      21     1     1     2   502   512 -9.293605679E+01  4.024460667E+01 -2.497636653E+01  1.043099128E+02  9.536743164E-07  0.00000E+00  9.000E+00
#rwgt            1           1   2.8140660457745638E-002           5      283269           0
</event>
<event>
      5   9999  3.19816E-02  2.06966E+02 -1.00000E+00  1.11109E-01
      21    -1     0     0   502   511  0.000000000E+00  0.000000000E+00  8.821646910E+01  8.821646910E+01  0.000000000E+00  0.00000E+00  9.000E+00
      21    -1     0     0   501   502  0.000000000E+00  0.000000000E+00 -2.204570665E+03  2.204570665E+03  0.000000000E+00  0.00000E+00  9.000E+00
      25     1     1     2     0     0 -1.752040742E+01  2.906164559E+02 -5.968894184E+02  6.757713126E+02  1.250000000E+02  0.00000E+00  9.000E+00
      25     1     1     2     0     0  2.164892725E+02 -2.336399340E+02 -1.038280724E+03  1.093209534E+03  1.250000000E+02  0.00000E+00  9.000E+00
      21     1     1     2   501   511 -1.989688651E+02 -5.697652183E+01 -4.811840537E+02  5.238062875E+02  1.078959322E-05  0.00000E+00  9.000E+00
#rwgt            1           1   2.5847489974208590E-002           5      283332           0
</event>
<event>
      5   9999  3.19816E-02  7.12571E+01 -1.00000E+00  1.30830E-01
      21    -1     0     0   502   512  0.000000000E+00  0.000000000E+00  1.988325046E+02  1.988325046E+02  0.000000000E+00  0.00000E+00  9.000E+00
      21    -1     0     0   501   502  0.000000000E+00  0.000000000E+00 -9.212784991E+02  9.212784991E+02  0.000000000E+00  0.00000E+00  9.000E+00
      25     1     1     2     0     0 -1.304763253E+02 -7.774271303E+01 -7.759494104E+02  8.004939028E+02  1.250000000E+02  0.00000E+00  9.000E+00
      25     1     1     2     0     0  1.359544916E+02  1.487889503E+02  1.269871365E+01  2.375037533E+02  1.250000000E+02  0.00000E+00  9.000E+00
      21     1     1     2   501   512 -5.478166228E+00 -7.104623726E+01  4.080470226E+01  8.211334764E+01  6.743495762E-07  0.00000E+00  9.000E+00
#rwgt            2          11   2.7123564973325458E-003           5      283392           0
</event>
<event>
      5   9999  3.19816E-02  1.07110E+02 -1.00000E+00  1.22501E-01
       1    -1     0     0   502     0  0.000000000E+00  0.000000000E+00  1.103534978E+03  1.103534978E+03  0.000000000E+00  0.00000E+00  9.000E+00
      21    -1     0     0   501   502  0.000000000E+00  0.000000000E+00 -1.539096404E+02  1.539096404E+02  0.000000000E+00  0.00000E+00  9.000E+00
      25     1     1     2     0     0  3.167491796E+00 -2.679972296E+02  2.408510227E+02  3.814010530E+02  1.250000000E+02  0.00000E+00  9.000E+00
      25     1     1     2     0     0 -1.102759263E+02  2.686609425E+02  2.447947955E+02  3.998611932E+02  1.250000000E+02  0.00000E+00  9.000E+00
       1     1     1     2   501     0  1.071084345E+02 -6.637128814E-01  4.639795192E+02  4.761823721E+02  5.394796609E-06  0.00000E+00  9.000E+00
#rwgt            1           1   2.7349650616251612E-002           5      283427           0
</event>
<event>
      5   9999  3.19816E-02  3.35016E+01 -1.00000E+00  1.49783E-01
      21    -1     0     0   502   501  0.000000000E+00  0.000000000E+00  7.012087414E+02  7.012087414E+02  0.000000000E+00  0.00000E+00  9.000E+00
      -1    -1     0     0     0   502  0.000000000E+00  0.000000000E+00 -4.765581442E+02  4.765581442E+02  0.000000000E+00  0.00000E+00  9.000E+00
      25     1     1     2     0     0 -1.814208005E+02  1.668238383E+02 -3.988416973E+02  4.852251018E+02  1.250000000E+02  0.00000E+00  9.000E+00
      25     1     1     2     0     0  1.516155268E+02 -1.821209095E+02  5.511295116E+02  6.128001568E+02  1.250000000E+02  0.00000E+00  9.000E+00
      -1     1     1     2     0   501  2.980527372E+01  1.529707122E+01  7.236278292E+01  7.974162704E+01  9.536743164E-07  0.00000E+00  9.000E+00
#rwgt            1           1   3.0328559427117929E-002           5      283488           0
</event>
<event>
      5   9999  3.19816E-02  2.92204E+01 -1.00000E+00  1.53838E-01
      21    -1     0     0   511   501  0.000000000E+00  0.000000000E+00  1.393406592E+03  1.393406592E+03  0.000000000E+00  0.00000E+00  9.000E+00
      21    -1     0     0   501   502  0.000000000E+00  0.000000000E+00 -1.786048502E+02  1.786048502E+02  0.000000000E+00  0.00000E+00  9.000E+00
      25     1     1     2     0     0  2.793160992E+02  1.830964477E+02  9.472260445E+02  1.012128436E+03  1.250000000E+02  0.00000E+00  9.000E+00
      25     1     1     2     0     0 -2.991468185E+02 -2.045575032E+02  1.088704586E+02  3.985101854E+02  1.250000000E+02  0.00000E+00  9.000E+00
      21     1     1     2   511   502  1.983071932E+01  2.146105555E+01  1.587052384E+02  1.613728200E+02  0.000000000E+00  0.00000E+00  9.000E+00
#rwgt            1           1   2.7571915953062499E-002           5      283607           0
</event>
<event>
      5   9999  3.19816E-02  8.38587E+01 -1.00000E+00  1.27367E-01
      21    -1     0     0   502   501  0.000000000E+00  0.000000000E+00  1.545902922E+02  1.545902922E+02  0.000000000E+00  0.00000E+00  9.000E+00
      21    -1     0     0   501   512  0.000000000E+00  0.000000000E+00 -5.061457154E+02  5.061457154E+02  0.000000000E+00  0.00000E+00  9.000E+00
      25     1     1     2     0     0 -2.123323435E+02  7.174646401E+01 -8.813214403E+01  2.713390020E+02  1.250000000E+02  0.00000E+00  9.000E+00
      25     1     1     2     0     0  1.596479374E+02 -6.503565104E+00 -1.895679236E+02  2.776522248E+02  1.250000000E+02  0.00000E+00  9.000E+00
      21     1     1     2   502   512  5.268440614E+01 -6.524289891E+01 -7.385535546E+01  1.117447808E+02  1.651812370E-06  0.00000E+00  9.000E+00
#rwgt            1           1   2.9953300051596680E-002           5      283753           0
</event>
<event>
      5   9999  3.19816E-02  2.94673E+01 -1.00000E+00  1.53582E-01
      21    -1     0     0   511   501  0.000000000E+00  0.000000000E+00  1.124190790E+03  1.124190790E+03  0.000000000E+00  0.00000E+00  9.000E+00
      21    -1     0     0   501   502  0.000000000E+00  0.000000000E+00 -9.084837179E+01  9.084837179E+01  0.000000000E+00  0.00000E+00  9.000E+00
      25     1     1     2     0     0 -2.356912026E+01 -1.146665519E+02  1.629453485E+01  1.720303271E+02  1.250000000E+02  0.00000E+00  9.000E+00
      25     1     1     2     0     0  4.285453559E+01  1.369464941E+02  7.279902233E+02  7.524530675E+02  1.250000000E+02  0.00000E+00  9.000E+00
      21     1     1     2   511   502 -1.928541533E+01 -2.227994220E+01  2.890576600E+02  2.905557673E+02  5.394796609E-06  0.00000E+00  9.000E+00
#rwgt            1           1   3.0959001916233766E-002           5      283807           0
</event>
<event>
      5   9999  3.19816E-02  5.40410E+01 -1.00000E+00  1.37177E-01
      21    -1     0     0   502   501  0.000000000E+00  0.000000000E+00  2.102122287E+02  2.102122287E+02  0.000000000E+00  0.00000E+00  9.000E+00
      21    -1     0     0   501   512  0.000000000E+00  0.000000000E+00 -1.117339966E+03  1.117339966E+03  0.000000000E+00  0.00000E+00  9.000E+00
      25     1     1     2     0     0  8.837353926E+01 -3.258333387E+02 -2.788379628E+01  3.610813664E+02  1.250000000E+02  0.00000E+00  9.000E+00
      25     1     1     2     0     0 -4.396976230E+01  2.950317266E+02 -5.958183978E+02  6.779392472E+02  1.250000000E+02  0.00000E+00  9.000E+00
      21     1     1     2   502   512 -4.440377696E+01  3.080161213E+01 -2.834255429E+02  2.885315807E+02  0.000000000E+00  0.00000E+00  9.000E+00
#rwgt            1           1   2.6215359244400063E-002           5      283903           0
</event>
<event>
      5   9999  3.19816E-02  6.80653E+01 -1.00000E+00  1.31840E-01
      21    -1     0     0   511   501  0.000000000E+00  0.000000000E+00  3.372253350E+02  3.372253350E+02  0.000000000E+00  0.00000E+00  9.000E+00
      21    -1     0     0   501   502  0.000000000E+00  0.000000000E+00 -1.302455539E+02  1.302455539E+02  0.000000000E+00  0.00000E+00  9.000E+00
      25     1     1     2     0     0  9.492074066E+00  5.955996910E+01 -2.896096284E+01  1.417787952E+02  1.250000000E+02  0.00000E+00  9.000E+00
      25     1     1     2     0     0  5.683345771E+01 -7.485062868E+01  1.678569382E+02  2.294201609E+02  1.250000000E+02  0.00000E+00  9.000E+00
      21     1     1     2   511   502 -6.632553178E+01  1.529065957E+01  6.808380576E+01  9.627193278E+01  1.907348633E-06  0.00000E+00  9.000E+00
#rwgt            1           1   3.0363026966817887E-002           5      283986           0
</event>
<event>
      5   9999  3.19816E-02  4.37005E+01 -1.00000E+00  1.42497E-01
      21    -1     0     0   512   501  0.000000000E+00  0.000000000E+00  5.280242263E+01  5.280242263E+01  0.000000000E+00  0.00000E+00  9.000E+00
      21    -1     0     0   501   502  0.000000000E+00  0.000000000E+00 -7.660742299E+02  7.660742299E+02  0.000000000E+00  0.00000E+00  9.000E+00
      25     1     1     2     0     0 -3.609727278E+00 -3.251490760E+01 -9.150829694E+01  1.583319859E+02  1.250000000E+02  0.00000E+00  9.000E+00
      25     1     1     2     0     0  8.857217472E+00  7.589920406E+01 -5.861155914E+02  6.041486787E+02  1.250000000E+02  0.00000E+00  9.000E+00
      21     1     1     2   512   502 -5.247490194E+00 -4.338429647E+01 -3.564791896E+01  5.639598798E+01  1.348699152E-06  0.00000E+00  9.000E+00
#rwgt            1           1   3.2846670745419970E-002           5      284074           0
</event>
<event>
      5   9999  3.19816E-02  4.28103E+01 -1.00000E+00  1.43035E-01
      21    -1     0     0   502   511  0.000000000E+00  0.000000000E+00  2.155240683E+02  2.155240683E+02  0.000000000E+00  0.00000E+00  9.000E+00
      21    -1     0     0   501   502  0.000000000E+00  0.000000000E+00 -6.434181496E+02  6.434181496E+02  0.000000000E+00  0.00000E+00  9.000E+00
      25     1     1     2     0     0  5.313269914E+00 -4.038563374E+00 -5.920028213E+02  6.050924568E+02  1.250000000E+02  0.00000E+00  9.000E+00
      25     1     1     2     0     0 -4.681495296E+01 -6.465222788E+00  1.633285884E+02  2.110323831E+02  1.250000000E+02  0.00000E+00  9.000E+00
      21     1     1     2   501   511  4.150168305E+01  1.050378616E+01  7.801516589E-01  4.281737797E+01  8.413549789E-07  0.00000E+00  9.000E+00
#rwgt            1           1   2.7252916550603825E-002           5      284159           0
</event>
<event>
      5   9999  3.19816E-02  8.75432E+01 -1.00000E+00  1.26484E-01
      21    -1     0     0   502   501  0.000000000E+00  0.000000000E+00  5.313480466E+02  5.313480466E+02  0.000000000E+00  0.00000E+00  9.000E+00
      21    -1     0     0   512   502  0.000000000E+00  0.000000000E+00 -2.780556026E+02  2.780556026E+02  0.000000000E+00  0.00000E+00  9.000E+00
      25     1     1     2     0     0 -7.550954765E+01 -1.948711972E+02  2.724028765E+02  3.653830899E+02  1.250000000E+02  0.00000E+00  9.000E+00
      25     1     1     2     0     0  1.299437256E+02  2.634331411E+02  6.140476164E+01  3.250814304E+02  1.250000000E+02  0.00000E+00  9.000E+00
      21     1     1     2   512   501 -5.443417796E+01 -6.856194389E+01 -8.051519410E+01  1.189391288E+02  1.651812370E-06  0.00000E+00  9.000E+00
#rwgt            1           1   2.7140191980827569E-002           5      284286           0
</event>
<event>
      5   9999  3.19816E-02  3.25338E+02 -1.00000E+00  1.04460E-01
      21    -1     0     0   502   511  0.000000000E+00  0.000000000E+00  2.440158385E+02  2.440158385E+02  0.000000000E+00  0.00000E+00  9.000E+00
      21    -1     0     0   501   502  0.000000000E+00  0.000000000E+00 -2.366530775E+03  2.366530775E+03  0.000000000E+00  0.00000E+00  9.000E+00
      25     1     1     2     0     0 -1.296637466E+02  3.300407174E+02 -1.364589652E+03  1.415439677E+03  1.250000000E+02  0.00000E+00  9.000E+00
      25     1     1     2     0     0 -7.859953376E+01 -5.799836101E+02 -4.789030706E+02  7.665063768E+02  1.250000000E+02  0.00000E+00  9.000E+00
      21     1     1     2   501   511  2.082632804E+02  2.499428926E+02 -2.790222143E+02  4.286005595E+02  0.000000000E+00  0.00000E+00  9.000E+00
#rwgt            1           1   2.9920568070010072E-002           5      284364           0
</event>
<event>
      5   9999  3.19816E-02  1.07573E+02 -1.00000E+00  1.22419E-01
      21    -1     0     0   502   501  0.000000000E+00  0.000000000E+00  1.189234860E+03  1.189234860E+03  0.000000000E+00  0.00000E+00  9.000E+00
      21    -1     0     0   501   512  0.000000000E+00  0.000000000E+00 -1.543530524E+03  1.543530524E+03  0.000000000E+00  0.00000E+00  9.000E+00
      25     1     1     2     0     0 -3.443178768E+02  8.936328037E+02 -8.949087747E+02  1.316670461E+03  1.250000000E+02  0.00000E+00  9.000E+00
      25     1     1     2     0     0  2.885136889E+02 -8.016657362E+02  7.748006916E+02  1.158382153E+03  1.250000000E+02  0.00000E+00  9.000E+00
      21     1     1     2   502   512  5.580418789E+01 -9.196706749E+01 -2.341875803E+02  2.577127697E+02  2.697398305E-06  0.00000E+00  9.000E+00
#rwgt            1           1   6.8749177369576198E-002           5      284408           0
</event>
<event>
      5   9999  3.19816E-02  1.28790E+02 -1.00000E+00  1.19079E-01
      21    -1     0     0   502   511  0.000000000E+00  0.000000000E+00  1.809872867E+03  1.809872867E+03  0.000000000E+00  0.00000E+00  9.000E+00
      21    -1     0     0   501   502  0.000000000E+00  0.000000000E+00 -9.835729632E+02  9.835729632E+02  0.000000000E+00  0.00000E+00  9.000E+00
      25     1     1     2     0     0 -1.217969954E+02 -1.074481144E+03 -4.540318881E+01  1.089509378E+03  1.250000000E+02  0.00000E+00  9.000E+00
      25     1     1     2     0     0  8.123279342E+01  1.196716096E+03  4.910868967E+02  1.302121162E+03  1.250000000E+02  0.00000E+00  9.000E+00
      21     1     1     2   501   511  4.056420194E+01 -1.222349526E+02  3.806161964E+02  4.018152897E+02  5.394796609E-06  0.00000E+00  9.000E+00
#rwgt            1           1   4.1268547128102434E-002           5      284572           0
</event>
<event>
      5   9999  3.19816E-02  2.26001E+01 -1.00000E+00  1.62105E-01
      21    -1     0     0   502   512  0.000000000E+00  0.000000000E+00  2.543488715E+02  2.543488715E+02  0.000000000E+00  0.00000E+00  9.000E+00
      21    -1     0     0   501   502  0.000000000E+00  0.000000000E+00 -5.209068776E+02  5.209068776E+02  0.000000000E+00  0.00000E+00  9.000E+00
      25     1     1     2     0     0  1.551330271E+02  1.829787422E+02  3.207335823E+01  2.723989290E+02  1.250000000E+02  0.00000E+00  9.000E+00
      25     1     1     2     0     0 -1.429375151E+02 -2.020059172E+02 -3.501389272E+02  4.466092163E+02  1.250000000E+02  0.00000E+00  9.000E+00
      21     1     1     2   501   512 -1.219551196E+01  1.902717496E+01  5.150756288E+01  5.624760380E+01  6.743495762E-07  0.00000E+00  9.000E+00
#rwgt            1           1   2.8762165141967892E-002           5      284681           0
</event>
<event>
      5   9999  3.19816E-02  1.88100E+01 -1.00000E+00  1.68598E-01
      21    -1     0     0   511   501  0.000000000E+00  0.000000000E+00  3.877320988E+02  3.877320988E+02  0.000000000E+00  0.00000E+00  9.000E+00
      21    -1     0     0   501   502  0.000000000E+00  0.000000000E+00 -1.383221424E+02  1.383221424E+02  0.000000000E+00  0.00000E+00  9.000E+00
      25     1     1     2     0     0 -6.207532605E+01 -3.765520892E+01  3.012425496E+02  3.341307148E+02  1.250000000E+02  0.00000E+00  9.000E+00
      25     1     1     2     0     0  5.306912130E+01  5.416897955E+01 -7.315944260E+01  1.634867396E+02  1.250000000E+02  0.00000E+00  9.000E+00
      21     1     1     2   511   502  9.006204755E+00 -1.651377063E+01  2.132684934E+01  2.843678686E+01  0.000000000E+00  0.00000E+00  9.000E+00
#rwgt            1           1   2.7868915111690141E-002           5      284836           0
</event>
<event>
      5   9999  3.19816E-02  3.03544E+01 -1.00000E+00  1.52686E-01
       1    -1     0     0   502     0  0.000000000E+00  0.000000000E+00  2.197098094E+03  2.197098094E+03  0.000000000E+00  0.00000E+00  9.000E+00
      21    -1     0     0   501   502  0.000000000E+00  0.000000000E+00 -4.333841596E+02  4.333841596E+02  0.000000000E+00  0.00000E+00  9.000E+00
      25     1     1     2     0     0  5.097992148E+01  2.791943025E+02 -3.274908675E+02  4.510251426E+02  1.250000000E+02  0.00000E+00  9.000E+00
      25     1     1     2     0     0 -7.412523078E+01 -2.988331463E+02  5.837976348E+02  6.717443543E+02  1.250000000E+02  0.00000E+00  9.000E+00
       1     1     1     2   501     0  2.314530930E+01  1.963884384E+01  1.507407167E+03  1.507712756E+03  3.737624730E-05  0.00000E+00  9.000E+00
#rwgt            1           1   2.7026526731884208E-002           5      285050           0
</event>
<event>
      5   9999  3.19816E-02  2.97056E+02 -1.00000E+00  1.05731E-01
      21    -1     0     0   511   501  0.000000000E+00  0.000000000E+00  4.150239018E+02  4.150239018E+02  0.000000000E+00  0.00000E+00  9.000E+00
      21    -1     0     0   501   502  0.000000000E+00  0.000000000E+00 -4.408126902E+02  4.408126902E+02  0.000000000E+00  0.00000E+00  9.000E+00
      25     1     1     2     0     0  7.294754383E+01 -2.386436032E+02 -2.164098053E+02  3.531717957E+02  1.250000000E+02  0.00000E+00  9.000E+00
      25     1     1     2     0     0  4.782267124E+01 -3.275479648E+01 -1.900675054E+01  1.390904064E+02  1.250000000E+02  0.00000E+00  9.000E+00
      21     1     1     2   511   502 -1.207702151E+02  2.713983996E+02  2.096277674E+02  3.635743900E+02  5.394796609E-06  0.00000E+00  9.000E+00
#rwgt            1           1   7.3964091407264454E-002           5      285174           0
</event>
<event>
      5   9999  3.19816E-02  2.79549E+01 -1.00000E+00  1.55201E-01
      21    -1     0     0   502   501  0.000000000E+00  0.000000000E+00  2.267747046E+02  2.267747046E+02  0.000000000E+00  0.00000E+00  9.000E+00
      21    -1     0     0   512   502  0.000000000E+00  0.000000000E+00 -1.289667258E+03  1.289667258E+03  0.000000000E+00  0.00000E+00  9.000E+00
      25     1     1     2     0     0  2.736936028E+02  3.915823617E+02 -3.088582688E+02  5.824631872E+02  1.250000000E+02  0.00000E+00  9.000E+00
      25     1     1     2     0     0 -2.874824397E+02 -3.672647665E+02 -5.664604463E+02  7.443332581E+02  1.250000000E+02  0.00000E+00  9.000E+00
      21     1     1     2   512   501  1.378883690E+01 -2.431759522E+01 -1.875738382E+02  1.896455173E+02  2.697398305E-06  0.00000E+00  9.000E+00
#rwgt            1           1   3.0079927554023556E-002           5      285206           0
</event>
<event>
      5   9999  3.19816E-02  3.83721E+01 -1.00000E+00  1.45968E-01
      21    -1     0     0   502   511  0.000000000E+00  0.000000000E+00  1.379390931E+02  1.379390931E+02  0.000000000E+00  0.00000E+00  9.000E+00
      21    -1     0     0   501   502  0.000000000E+00  0.000000000E+00 -9.927900791E+02  9.927900791E+02  0.000000000E+00  0.00000E+00  9.000E+00
      25     1     1     2     0     0 -1.865859348E+02  1.851153468E+02 -2.928988281E+02  4.129124922E+02  1.250000000E+02  0.00000E+00  9.000E+00
      25     1     1     2     0     0  1.644243110E+02 -2.164407719E+02 -5.957694922E+02  6.666695205E+02  1.250000000E+02  0.00000E+00  9.000E+00
      21     1     1     2   501   511  2.216162381E+01  3.132542506E+01  3.381733427E+01  5.114715948E+01  1.066240300E-06  0.00000E+00  9.000E+00
#rwgt            1           1   2.8576234438177122E-002           5      285330           0
</event>
<event>
      5   9999  3.19816E-02  2.92926E+02 -1.00000E+00  1.05930E-01
      21    -1     0     0   512   501  0.000000000E+00  0.000000000E+00  1.156239106E+03  1.156239106E+03  0.000000000E+00  0.00000E+00  9.000E+00
      21    -1     0     0   501   502  0.000000000E+00  0.000000000E+00 -7.504295981E+02  7.504295981E+02  0.000000000E+00  0.00000E+00  9.000E+00
      25     1     1     2     0     0  3.308036309E+01 -3.069299110E+02 -5.900856408E+02  6.775886245E+02  1.250000000E+02  0.00000E+00  9.000E+00
      25     1     1     2     0     0  2.258650494E+02  1.699881619E+02  8.446185326E+02  8.993978326E+02  1.250000000E+02  0.00000E+00  9.000E+00
      21     1     1     2   512   502 -2.589454125E+02  1.369417491E+02  1.512766158E+02  3.296822467E+02  3.814697266E-06  0.00000E+00  9.000E+00
#rwgt            1           1   3.5469494457067437E-002           5      285464           0
</event>
<event>
      5   9999  3.19816E-02  4.96877E+01 -1.00000E+00  1.39231E-01
      21    -1     0     0   502   501  0.000000000E+00  0.000000000E+00  2.740599404E+01  2.740599404E+01  0.000000000E+00  0.00000E+00  9.000E+00
       2    -1     0     0   501     0  0.000000000E+00  0.000000000E+00 -3.337742257E+03  3.337742257E+03  0.000000000E+00  0.00000E+00  9.000E+00
      25     1     1     2     0     0  1.393192289E+02  1.086604214E+02 -1.889504274E+03  1.901859179E+03  1.250000000E+02  0.00000E+00  9.000E+00
      25     1     1     2     0     0 -1.849520706E+02 -1.283201959E+02 -7.987476292E+02  8.392235198E+02  1.250000000E+02  0.00000E+00  9.000E+00
       2     1     1     2   502     0  4.563284168E+01  1.965977450E+01 -6.220843599E+02  6.240655525E+02  7.629394531E-06  0.00000E+00  9.000E+00
#rwgt            1           1   4.3719842195291347E-002           5      285514           0
</event>
<event>
      5   9999  3.19816E-02  2.42443E+02 -1.00000E+00  1.08688E-01
      21    -1     0     0   502   501  0.000000000E+00  0.000000000E+00  2.816189072E+02  2.816189072E+02  0.000000000E+00  0.00000E+00  9.000E+00
      -1    -1     0     0     0   502  0.000000000E+00  0.000000000E+00 -6.195875206E+02  6.195875206E+02  0.000000000E+00  0.00000E+00  9.000E+00
      25     1     1     2     0     0 -3.235471001E+01  1.708299730E+02 -1.766627578E+02  2.776048215E+02  1.250000000E+02  0.00000E+00  9.000E+00
      25     1     1     2     0     0 -1.932994982E+02 -2.594807163E+02 -3.072726040E+01  3.482299565E+02  1.250000000E+02  0.00000E+00  9.000E+00
      -1     1     1     2     0   501  2.256542082E+02  8.865074324E+01 -1.305785952E+02  2.753716497E+02  1.907348633E-06  0.00000E+00  9.000E+00
#rwgt            1           1   2.5324425505473081E-002           5      285598           0
</event>
<event>
      5   9999  3.19816E-02  9.59748E+01 -1.00000E+00  1.24636E-01
      21    -1     0     0   502   511  0.000000000E+00  0.000000000E+00  2.961124332E+02  2.961124332E+02  0.000000000E+00  0.00000E+00  9.000E+00
      21    -1     0     0   501   502  0.000000000E+00  0.000000000E+00 -3.031868546E+02  3.031868546E+02  0.000000000E+00  0.00000E+00  9.000E+00
      25     1     1     2     0     0  1.139275284E+02  2.119534032E+02  1.933343201E+01  2.718501581E+02  1.250000000E+02  0.00000E+00  9.000E+00
      25     1     1     2     0     0 -1.450053616E+02 -1.211495516E+02 -4.140094147E+01  2.303102401E+02  1.250000000E+02  0.00000E+00  9.000E+00
      21     1     1     2   501   511  3.107783323E+01 -9.080385158E+01  1.499308812E+01  9.713888959E+01  1.369610464E-06  0.00000E+00  9.000E+00
#rwgt            1           1   2.9445178804115828E-002           5      285627           0
</event>
<event>
      5   9999  3.19816E-02  9.39220E+01 -1.00000E+00  1.25065E-01
      21    -1     0     0   512   501  0.000000000E+00  0.000000000E+00  9.209414783E+02  9.209414783E+02  0.000000000E+00  0.00000E+00  9.000E+00
      21    -1     0     0   501   502  0.000000000E+00  0.000000000E+00 -1.452542108E+03  1.452542108E+03  0.000000000E+00  0.00000E+00  9.000E+00
      25     1     1     2     0     0  8.249044856E+01  2.921063104E+02 -1.309075596E+03  1.349605382E+03  1.250000000E+02  0.00000E+00  9.000E+00
      25     1     1     2     0     0  1.028994848E+01 -2.775071114E+02  7.298884740E+01  3.131588283E+02  1.250000000E+02  0.00000E+00  9.000E+00
      21     1     1     2   512   502 -9.278039704E+01 -1.459919905E+01  7.044861194E+02  7.107193758E+02  0.000000000E+00  0.00000E+00  9.000E+00
#rwgt            1           1   2.8589137510062666E-002           5      285702           0
</event>
<event>
      5   9999  3.19816E-02  1.79662E+02 -1.00000E+00  1.13370E-01
      21    -1     0     0   502   511  0.000000000E+00  0.000000000E+00  6.217975507E+02  6.217975507E+02  0.000000000E+00  0.00000E+00  9.000E+00
      21    -1     0     0   501   502  0.000000000E+00  0.000000000E+00 -6.098459681E+02  6.098459681E+02  0.000000000E+00  0.00000E+00  9.000E+00
      25     1     1     2     0     0 -4.110919665E+02  2.842185183E+01 -2.929896170E+02  5.208380960E+02  1.250000000E+02  0.00000E+00  9.000E+00
      25     1     1     2     0     0  3.806057259E+02 -2.054786365E+02  1.530255123E+02  4.755249689E+02  1.250000000E+02  0.00000E+00  9.000E+00
      21     1     1     2   501   511  3.048624058E+01  1.770567847E+02  1.519156873E+02  2.352804538E+02  3.814697266E-06  0.00000E+00  9.000E+00
#rwgt            1           1   3.0114446574621187E-002           5      285812           0
</event>
<event>
      5   9999  3.19816E-02  5.96147E+00 -1.00000E+00  2.25907E-01
      21    -1     0     0   502   501  0.000000000E+00  0.000000000E+00  7.904251795E+02  7.904251795E+02  0.000000000E+00  0.00000E+00  9.000E+00
      21    -1     0     0   501   512  0.000000000E+00  0.000000000E+00 -1.565081415E+02  1.565081415E+02  0.000000000E+00  0.00000E+00  9.000E+00
      25     1     1     2     0     0 -1.493034098E+02  1.630621922E+02  1.322189277E+00  2.539833358E+02  1.250000000E+02  0.00000E+00  9.000E+00
      25     1     1     2     0     0  1.552588891E+02 -1.633294724E+02  6.359018886E+02  6.861326775E+02  1.250000000E+02  0.00000E+00  9.000E+00
      21     1     1     2   502   512 -5.955479293E+00  2.672801959E-01 -3.307039863E+00  6.817307750E+00  1.632340424E-07  0.00000E+00  9.000E+00
#rwgt            1           1   2.8189267359845501E-002           5      285865           0
</event>
<event>
      5   9999  3.19816E-02  5.88426E+01 -1.00000E+00  1.35157E-01
      21    -1     0     0   502   501  0.000000000E+00  0.000000000E+00  3.682571446E+02  3.682571446E+02  0.000000000E+00  0.00000E+00  9.000E+00
      21    -1     0     0   501   511  0.000000000E+00  0.000000000E+00 -1.282810590E+03  1.282810590E+03  0.000000000E+00  0.00000E+00  9.000E+00
      25     1     1     2     0     0 -5.338213321E+02 -1.882034608E+02 -1.206369216E+02  5.920844738E+02  1.250000000E+02  0.00000E+00  9.000E+00
      25     1     1     2     0     0  5.907226153E+02  2.031933599E+02 -6.868910249E+02  9.368484561E+02  1.250000000E+02  0.00000E+00  9.000E+00
      21     1     1     2   502   511 -5.690128319E+01 -1.498989909E+01 -1.070254992E+02  1.221348050E+02  1.907348633E-06  0.00000E+00  9.000E+00
#rwgt            1           1   2.6805550954904677E-002           5      286207           0
</event>
<event>
      5   9999  3.19816E-02  4.87676E+01 -1.00000E+00  1.39697E-01
      21    -1     0     0   502   501  0.000000000E+00  0.000000000E+00  2.890602624E+02  2.890602624E+02  0.000000000E+00  0.00000E+00  9.000E+00
       2    -1     0     0   501     0  0.000000000E+00  0.000000000E+00 -3.577063261E+03  3.577063261E+03  0.000000000E+00  0.00000E+00  9.000E+00
      25     1     1     2     0     0  1.346823272E+02  2.598596752E+02  1.509262529E+02  3.522358781E+02  1.250000000E+02  0.00000E+00  9.000E+00
      25     1     1     2     0     0 -1.057146905E+02 -2.990917587E+02 -7.428041954E+02  8.173215699E+02  1.250000000E+02  0.00000E+00  9.000E+00
       2     1     1     2   502     0 -2.896763676E+01  3.923208359E+01 -2.696125057E+03  2.696566076E+03  4.315837288E-05  0.00000E+00  9.000E+00
#rwgt            1           1   2.7954737025069492E-002           5      286385           0
</event>
<event>
      5   9999  3.19816E-02  1.29095E+02 -1.00000E+00  1.19037E-01
      21    -1     0     0   511   501  0.000000000E+00  0.000000000E+00  3.870914894E+02  3.870914894E+02  0.000000000E+00  0.00000E+00  9.000E+00
      21    -1     0     0   501   502  0.000000000E+00  0.000000000E+00 -8.801557715E+02  8.801557715E+02  0.000000000E+00  0.00000E+00  9.000E+00
      25     1     1     2     0     0  3.354112366E+02  1.883092184E+02 -1.938690509E+01  4.049221055E+02  1.250000000E+02  0.00000E+00  9.000E+00
      25     1     1     2     0     0 -3.975223989E+02 -7.513835217E+01 -5.636433456E+02  7.049742199E+02  1.250000000E+02  0.00000E+00  9.000E+00
      21     1     1     2   511   502  6.211116227E+01 -1.131708662E+02  8.996596860E+01  1.573509357E+02  1.907348633E-06  0.00000E+00  9.000E+00
#rwgt            1           1   2.9975527138667843E-002           5      286520           0
</event>
<event>
      5   9999  3.19816E-02  3.69771E+01 -1.00000E+00  1.46989E-01
      21    -1     0     0   502   501  0.000000000E+00  0.000000000E+00  1.862486438E+02  1.862486438E+02  0.000000000E+00  0.00000E+00  9.000E+00
      21    -1     0     0   501   512  0.000000000E+00  0.000000000E+00 -3.809297921E+02  3.809297921E+02  0.000000000E+00  0.00000E+00  9.000E+00
      25     1     1     2     0     0  1.375917563E+02  1.049964934E+01  9.721628115E+01  2.100422324E+02  1.250000000E+02  0.00000E+00  9.000E+00
      25     1     1     2     0     0 -1.084139783E+02 -3.321439348E+01 -2.370843370E+02  2.910167855E+02  1.250000000E+02  0.00000E+00  9.000E+00
      21     1     1     2   502   512 -2.917777804E+01  2.271474415E+01 -5.481309251E+01  6.611941805E+01  1.168007728E-06  0.00000E+00  9.000E+00
#rwgt            1           1   2.9561395349047347E-002           5      286586           0
</event>
<event>
      5   9999  3.19816E-02  2.38802E+02 -1.00000E+00  1.08915E-01
      21    -1     0     0   502   501  0.000000000E+00  0.000000000E+00  1.374342967E+03  1.374342967E+03  0.000000000E+00  0.00000E+00  9.000E+00
      21    -1     0     0   511   502  0.000000000E+00  0.000000000E+00 -9.381195569E+02  9.381195569E+02  0.000000000E+00  0.00000E+00  9.000E+00
      25     1     1     2     0     0  5.564596172E+02  9.341101714E+02  4.322021662E+02  1.176704224E+03  1.250000000E+02  0.00000E+00  9.000E+00
      25     1     1     2     0     0 -5.476512308E+02 -6.954704465E+02  3.660410989E+01  8.947434679E+02  1.250000000E+02  0.00000E+00  9.000E+00
      21     1     1     2   511   501 -8.808386367E+00 -2.386397249E+02 -3.258286622E+01  2.410148318E+02  7.088693975E-06  0.00000E+00  9.000E+00
#rwgt            1           1   4.0972657084961346E-002           5      286666           0
</event>
<event>
      5   9999  3.19816E-02  3.33925E+02 -1.00000E+00  1.04102E-01
      21    -1     0     0   502   512  0.000000000E+00  0.000000000E+00  8.632148073E+02  8.632148073E+02  0.000000000E+00  0.00000E+00  9.000E+00
      21    -1     0     0   501   502  0.000000000E+00  0.000000000E+00 -5.225068444E+02  5.225068444E+02  0.000000000E+00  0.00000E+00  9.000E+00
      25     1     1     2     0     0  8.809447087E+01 -2.393557688E+01  4.939617124E+02  5.176453622E+02  1.250000000E+02  0.00000E+00  9.000E+00
      25     1     1     2     0     0 -2.105856962E+02  3.345834279E+02 -2.913141028E+02  5.067359392E+02  1.250000000E+02  0.00000E+00  9.000E+00
      21     1     1     2   501   512  1.224912253E+02 -3.106478510E+02  1.380603533E+02  3.613403503E+02  7.387129490E-06  0.00000E+00  9.000E+00
#rwgt            2          11   3.5070549485992008E-003           5      286781           0
</event>
<event>
      5   9999  3.19816E-02  9.78334E+00 -1.00000E+00  1.96863E-01
      21    -1     0     0   502   501  0.000000000E+00  0.000000000E+00  9.812472971E+01  9.812472971E+01  0.000000000E+00  0.00000E+00  9.000E+00
      21    -1     0     0   511   502  0.000000000E+00  0.000000000E+00 -6.595669338E+02  6.595669338E+02  0.000000000E+00  0.00000E+00  9.000E+00
      25     1     1     2     0     0 -1.494086215E+02  1.521275462E+02 -2.750659039E+02  3.697999161E+02  1.250000000E+02  0.00000E+00  9.000E+00
      25     1     1     2     0     0  1.466249278E+02 -1.615064990E+02 -2.709462467E+02  3.696215461E+02  1.250000000E+02  0.00000E+00  9.000E+00
      21     1     1     2   511   501  2.783693673E+00  9.378952868E+00 -1.543005345E+01  1.827020134E+01  2.384185791E-07  0.00000E+00  9.000E+00
#rwgt            1           1   2.7856498703693215E-002           5      286801           0
</event>
<event>
      5   9999  3.19816E-02  2.86577E+01 -1.00000E+00  1.54434E-01
      21    -1     0     0   502   512  0.000000000E+00  0.000000000E+00  1.076772000E+02  1.076772000E+02  0.000000000E+00  0.00000E+00  9.000E+00
      21    -1     0     0   501   502  0.000000000E+00  0.000000000E+00 -1.670187862E+03  1.670187862E+03  0.000000000E+00  0.00000E+00  9.000E+00
      25     1     1     2     0     0 -8.723018065E+00  7.892483506E+01 -1.577505180E+03  1.584440852E+03  1.250000000E+02  0.00000E+00  9.000E+00
      25     1     1     2     0     0 -1.993037191E+01 -7.842912043E+01  4.129510314E+01  1.545271245E+02  1.250000000E+02  0.00000E+00  9.000E+00
      21     1     1     2   501   512  2.865338998E+01 -4.957146355E-01 -2.630058551E+01  3.889708586E+01  8.259061849E-07  0.00000E+00  9.000E+00
#rwgt            1           1   3.0390989770398009E-002           5      287041           0
</event>
<event>
      5   9999  3.19816E-02  3.78417E+01 -1.00000E+00  1.46350E-01
      21    -1     0     0   502   511  0.000000000E+00  0.000000000E+00  2.366632416E+02  2.366632416E+02  0.000000000E+00  0.00000E+00  9.000E+00
      21    -1     0     0   501   502  0.000000000E+00  0.000000000E+00 -5.192515652E+02  5.192515652E+02  0.000000000E+00  0.00000E+00  9.000E+00
      25     1     1     2     0     0 -2.284656572E+02  5.120799137E+01 -3.819759012E+02  4.651337485E+02  1.250000000E+02  0.00000E+00  9.000E+00
      25     1     1     2     0     0  1.967136967E+02 -3.062139909E+01  9.063908410E+01  2.519412474E+02  1.250000000E+02  0.00000E+00  9.000E+00
      21     1     1     2   501   511  3.175196048E+01 -2.058659228E+01  8.748493518E+00  3.883981095E+01  5.057621821E-07  0.00000E+00  9.000E+00
#rwgt            1           1   2.7838739720366667E-002           5      287161           0
</event>
<event>
      5   9999  3.19816E-02  4.58524E+01 -1.00000E+00  1.41256E-01
      21    -1     0     0   502   501  0.000000000E+00  0.000000000E+00  6.085527354E+01  6.085527354E+01  0.000000000E+00  0.00000E+00  9.000E+00
      21    -1     0     0   512   502  0.000000000E+00  0.000000000E+00 -9.521319063E+02  9.521319063E+02  0.000000000E+00  0.00000E+00  9.000E+00
      25     1     1     2     0     0 -5.524274323E+01 -1.162527948E+02 -1.218670464E+02  2.168940985E+02  1.250000000E+02  0.00000E+00  9.000E+00
      25     1     1     2     0     0  1.963712266E+01  8.736191905E+01 -6.556869408E+02  6.734746364E+02  1.250000000E+02  0.00000E+00  9.000E+00
      21     1     1     2   512   501  3.560562057E+01  2.889087579E+01 -1.137226456E+02  1.226184449E+02  1.348699152E-06  0.00000E+00  9.000E+00
#rwgt            1           1   2.7773545214344695E-002           5      287275           0
</event>
<event>
      5   9999  3.22827E-02  3.28407E+01 -1.00000E+00  1.50360E-01
       2    -1     0     0   502     0  0.000000000E+00  0.000000000E+00  1.864407347E+03  1.864407347E+03  0.000000000E+00  0.00000E+00  9.000E+00
      21    -1     0     0   501   502  0.000000000E+00  0.000000000E+00 -1.102363276E+03  1.102363276E+03  0.000000000E+00  0.00000E+00  9.000E+00
      25     1     1     2     0     0 -3.739332375E+02 -2.209574601E+02  1.215340436E+03  1.296659416E+03  1.250000000E+02  0.00000E+00  9.000E+00
      25     1     1     2     0     0  3.411373245E+02  2.192425913E+02 -1.018807891E+03  1.103646912E+03  1.250000000E+02  0.00000E+00  9.000E+00
       2     1     1     2   501     0  3.279591300E+01  1.714868807E+00  5.655115254E+02  5.664642954E+02  7.629394531E-06  0.00000E+00  9.000E+00
#rwgt            1           1   7.2288147201400060E-002           5      287397           0
</event>
<event>
      5   9999  3.19816E-02  2.11105E+02 -1.00000E+00  1.10800E-01
      21    -1     0     0   511   501  0.000000000E+00  0.000000000E+00  7.286630734E+02  7.286630734E+02  0.000000000E+00  0.00000E+00  9.000E+00
      21    -1     0     0   501   502  0.000000000E+00  0.000000000E+00 -1.523280200E+03  1.523280200E+03  0.000000000E+00  0.00000E+00  9.000E+00
      25     1     1     2     0     0 -2.348276707E+02  5.261665181E+02 -9.494959463E+01  5.971898067E+02  1.250000000E+02  0.00000E+00  9.000E+00
      25     1     1     2     0     0  4.172147009E+02 -4.198636741E+02 -1.069597018E+03  1.228827243E+03  1.250000000E+02  0.00000E+00  9.000E+00
      21     1     1     2   511   502 -1.823870302E+02 -1.063028440E+02  3.699294861E+02  4.259262238E+02  5.394796609E-06  0.00000E+00  9.000E+00
#rwgt            1           1   2.9498738644762629E-002           5      287654           0
</event>
<event>
      5   9999  3.19816E-02  2.26715E+01 -1.00000E+00  1.61998E-01
      21    -1     0     0   502   501  0.000000000E+00  0.000000000E+00  5.393625039E+02  5.393625039E+02  0.000000000E+00  0.00000E+00  9.000E+00
      21    -1     0     0   501   512  0.000000000E+00  0.000000000E+00 -2.209064058E+02  2.209064058E+02  0.000000000E+00  0.00000E+00  9.000E+00
      25     1     1     2     0     0 -1.367714471E+02 -4.598924529E+01  1.931051584E+01  1.918836508E+02  1.250000000E+02  0.00000E+00  9.000E+00
      25     1     1     2     0     0  1.223951254E+02  2.845873943E+01  4.145096884E+02  4.508145387E+02  1.250000000E+02  0.00000E+00  9.000E+00
      21     1     1     2   502   512  1.437632170E+01  1.753050586E+01 -1.153641061E+02  1.175707202E+02  2.336015456E-06  0.00000E+00  9.000E+00
#rwgt            1           1   3.0049899977469673E-002           5      287698           0
</event>
<event>
      5   9999  3.19816E-02  2.54739E+01 -1.00000E+00  1.58142E-01
      21    -1     0     0   502   511  0.000000000E+00  0.000000000E+00  6.920205313E+02  6.920205313E+02  0.000000000E+00  0.00000E+00  9.000E+00
      21    -1     0     0   501   502  0.000000000E+00  0.000000000E+00 -5.689802398E+02  5.689802398E+02  0.000000000E+00  0.00000E+00  9.000E+00
      25     1     1     2     0     0  3.623195462E+02 -3.948734146E+02  3.180757114E+02  6.356080752E+02  1.250000000E+02  0.00000E+00  9.000E+00
      25     1     1     2     0     0 -3.830978373E+02  3.801362995E+02 -2.137473081E+02  5.937848692E+02  1.250000000E+02  0.00000E+00  9.000E+00
      21     1     1     2   501   511  2.077829114E+01  1.473711505E+01  1.871188828E+01  3.160782665E+01  2.384185791E-07  0.00000E+00  9.000E+00
#rwgt            1           1   3.0462476489618556E-002           5      287758           0
</event>
<event>
      5   9999  3.38381E-02  4.22583E+01 -1.00000E+00  1.43376E-01
      21    -1     0     0   512   501  0.000000000E+00  0.000000000E+00  1.699501539E+02  1.699501539E+02  0.000000000E+00  0.00000E+00  9.000E+00
      21    -1     0     0   501   502  0.000000000E+00  0.000000000E+00 -2.821970604E+03  2.821970604E+03  0.000000000E+00  0.00000E+00  9.000E+00
      25     1     1     2     0     0  5.996383060E+02  1.262406987E+02 -1.681938132E+03  1.794448019E+03  1.250000000E+02  0.00000E+00  9.000E+00
      25     1     1     2     0     0 -6.080531475E+02 -8.482868614E+01 -9.705487648E+02  1.155211860E+03  1.250000000E+02  0.00000E+00  9.000E+00
      21     1     1     2   512   502  8.414841541E+00 -4.141201256E+01  4.664468684E-01  4.226087925E+01  7.267085642E-07  0.00000E+00  9.000E+00
#rwgt            1           1  0.10801321544080981                5      287967           0
</event>
<event>
      5   9999  3.19816E-02  2.49379E+02 -1.00000E+00  1.08267E-01
       3    -1     0     0   502     0  0.000000000E+00  0.000000000E+00  1.907600835E+03  1.907600835E+03  0.000000000E+00  0.00000E+00  9.000E+00
      21    -1     0     0   501   502  0.000000000E+00  0.000000000E+00 -1.193837186E+03  1.193837186E+03  0.000000000E+00  0.00000E+00  9.000E+00
      25     1     1     2     0     0 -2.257633222E+02  1.456527521E+03  3.266707580E+02  1.514853221E+03  1.250000000E+02  0.00000E+00  9.000E+00
      25     1     1     2     0     0  1.153194433E+02 -1.232938605E+03  1.704204677E+02  1.256226219E+03  1.250000000E+02  0.00000E+00  9.000E+00
       3     1     1     2   501     0  1.104438789E+02 -2.235889157E+02  2.166724233E+02  3.303585819E+02  3.814697266E-06  0.00000E+00  9.000E+00
#rwgt            1           1   4.8453325033941827E-002           5      288172           0
</event>
<event>
      5   9999  3.19816E-02  1.92107E+01 -1.00000E+00  1.67825E-01
      21    -1     0     0   502   501  0.000000000E+00  0.000000000E+00  4.868731216E+02  4.868731216E+02  0.000000000E+00  0.00000E+00  9.000E+00
       1    -1     0     0   501     0  0.000000000E+00  0.000000000E+00 -8.419810003E+02  8.419810003E+02  0.000000000E+00  0.00000E+00  9.000E+00
      25     1     1     2     0     0  1.331151283E+02  5.160062730E+01  2.198787594E+02  2.904374820E+02  1.250000000E+02  0.00000E+00  9.000E+00
      25     1     1     2     0     0 -1.326483444E+02 -7.080566151E+01  1.903218610E+02  2.728670661E+02  1.250000000E+02  0.00000E+00  9.000E+00
       1     1     1     2   502     0 -4.667838342E-01  1.920503421E+01 -7.653084990E+02  7.655495738E+02  0.000000000E+00  0.00000E+00  9.000E+00
#rwgt            1           1   2.8128161551871724E-002           5      288216           0
</event>
<event>
      5   9999  3.19816E-02  3.22896E+01 -1.00000E+00  1.50854E-01
      21    -1     0     0   502   511  0.000000000E+00  0.000000000E+00  1.586157429E+02  1.586157429E+02  0.000000000E+00  0.00000E+00  9.000E+00
      21    -1     0     0   501   502  0.000000000E+00  0.000000000E+00 -1.765541284E+02  1.765541284E+02  0.000000000E+00  0.00000E+00  9.000E+00
      25     1     1     2     0     0  4.691995058E+01  7.490011571E+01  3.421064817E+00  1.531280927E+02  1.250000000E+02  0.00000E+00  9.000E+00
      25     1     1     2     0     0 -1.632920723E+01 -6.456462242E+01 -3.667298213E+01  1.463049592E+02  1.250000000E+02  0.00000E+00  9.000E+00
      21     1     1     2   501   511 -3.059074335E+01 -1.033549330E+01  1.531353176E+01  3.573681932E+01  2.920019320E-07  0.00000E+00  9.000E+00
#rwgt            1           1   3.8201194664721667E-002           5      288327           0
</event>
<event>
      5   9999  3.19816E-02  1.70310E+02 -1.00000E+00  1.14249E-01
      21    -1     0     0   502   501  0.000000000E+00  0.000000000E+00  4.469982203E+02  4.469982203E+02  0.000000000E+00  0.00000E+00  9.000E+00
       2    -1     0     0   501     0  0.000000000E+00  0.000000000E+00 -4.832565944E+02  4.832565944E+02  0.000000000E+00  0.00000E+00  9.000E+00
      25     1     1     2     0     0 -3.318578778E+02 -1.162352606E+02 -3.991693452E+01  3.753114021E+02  1.250000000E+02  0.00000E+00  9.000E+00
      25     1     1     2     0     0  2.381798462E+02 -2.599671698E+01 -1.638727024E+02  3.160454572E+02  1.250000000E+02  0.00000E+00  9.000E+00
       2     1     1     2   502     0  9.367803163E+01  1.422319776E+02  1.675312628E+02  2.388979554E+02  2.697398305E-06  0.00000E+00  9.000E+00
#rwgt            2          13   4.9175079973507542E-005           5      288397           0
</event>
<event>
      5   9999  3.19816E-02  2.78845E+01 -1.00000E+00  1.55279E-01
      21    -1     0     0   502   501  0.000000000E+00  0.000000000E+00  3.614868871E+02  3.614868871E+02  0.000000000E+00  0.00000E+00  9.000E+00
       1    -1     0     0   501     0  0.000000000E+00  0.000000000E+00 -1.012396367E+03  1.012396367E+03  0.000000000E+00  0.00000E+00  9.000E+00
      25     1     1     2     0     0 -4.621374372E+01  1.721597153E+02  9.459258321E+01  2.373761456E+02  1.250000000E+02  0.00000E+00  9.000E+00
      25     1     1     2     0     0  4.978644059E+01 -1.998144254E+02  1.209874593E+02  2.695690256E+02  1.250000000E+02  0.00000E+00  9.000E+00
       1     1     1     2   502     0 -3.572696871E+00  2.765471006E+01 -8.664895225E+02  8.669380830E+02  1.525878906E-05  0.00000E+00  9.000E+00
#rwgt            1           1   2.6600001087479924E-002           5      288416           0
</event>
<event>
      5   9999  3.19816E-02  5.95016E+01 -1.00000E+00  1.34897E-01
      21    -1     0     0   502   501  0.000000000E+00  0.000000000E+00  3.571455632E+02  3.571455632E+02  0.000000000E+00  0.00000E+00  9.000E+00
      21    -1     0     0   511   502  0.000000000E+00  0.000000000E+00 -1.722487911E+02  1.722487911E+02  0.000000000E+00  0.00000E+00  9.000E+00
      25     1     1     2     0     0  1.409940174E+02 -3.275692984E+01  2.112849729E+02  2.849888931E+02  1.250000000E+02  0.00000E+00  9.000E+00
      25     1     1     2     0     0 -9.953233714E+01 -9.920506067E+00  2.948071252E+01  1.627857948E+02  1.250000000E+02  0.00000E+00  9.000E+00
      21     1     1     2   511   501 -4.146168029E+01  4.267743591E+01 -5.586891329E+01  8.161966638E+01  9.536743164E-07  0.00000E+00  9.000E+00
#rwgt            1           1   3.1265607723130993E-002           5      288571           0
</event>
<event>
      5   9999  3.19816E-02  6.89196E+01 -1.00000E+00  1.31564E-01
       2    -1     0     0   502     0  0.000000000E+00  0.000000000E+00  3.434024227E+02  3.434024227E+02  0.000000000E+00  0.00000E+00  9.000E+00
      21    -1     0     0   501   502  0.000000000E+00  0.000000000E+00 -7.873331332E+02  7.873331332E+02  0.000000000E+00  0.00000E+00  9.000E+00
      25     1     1     2     0     0 -3.983220239E+01  1.178423333E+01 -2.397756779E+02  2.735742097E+02  1.250000000E+02  0.00000E+00  9.000E+00
      25     1     1     2     0     0  3.940299722E+01 -8.070250038E+01 -5.156508709E+02  5.381322425E+02  1.250000000E+02  0.00000E+00  9.000E+00
       2     1     1     2   501     0  4.292051688E-01  6.891826706E+01  3.114958383E+02  3.190291037E+02  5.394796609E-06  0.00000E+00  9.000E+00
#rwgt            1           1   3.8869133550459657E-002           5      288662           0
</event>
<event>
      5   9999  3.19816E-02  6.27612E+01 -1.00000E+00  1.33667E-01
      21    -1     0     0   502   501  0.000000000E+00  0.000000000E+00  9.162326221E+01  9.162326221E+01  0.000000000E+00  0.00000E+00  9.000E+00
      21    -1     0     0   511   502  0.000000000E+00  0.000000000E+00 -6.762287647E+02  6.762287647E+02  0.000000000E+00  0.00000E+00  9.000E+00
      25     1     1     2     0     0  1.616290861E+02  6.328594025E+01 -1.265240737E+02  2.485204477E+02  1.250000000E+02  0.00000E+00  9.000E+00
      25     1     1     2     0     0 -1.017753607E+02 -8.216718675E+01 -3.596239874E+02  4.025718358E+02  1.250000000E+02  0.00000E+00  9.000E+00
      21     1     1     2   511   501 -5.985372543E+01  1.888124650E+01 -9.845744144E+01  1.167597435E+02  2.336015456E-06  0.00000E+00  9.000E+00
#rwgt            1           1   2.8818844484800619E-002           5      288714           0
</event>
<event>
      5   9999  3.19816E-02  7.76902E+01 -1.00000E+00  1.28968E-01
      21    -1     0     0   502   501  0.000000000E+00  0.000000000E+00  2.875301208E+01  2.875301208E+01  0.000000000E+00  0.00000E+00  9.000E+00
       1    -1     0     0   501     0  0.000000000E+00  0.000000000E+00 -3.498764513E+03  3.498764513E+03  0.000000000E+00  0.00000E+00  9.000E+00
      25     1     1     2     0     0  2.848218123E+01  1.643230414E+02 -2.226415529E+03  2.236149460E+03  1.250000000E+02  0.00000E+00  9.000E+00
      25     1     1     2     0     0  4.447617214E+00 -2.346892162E+02 -1.039688532E+03  1.073161709E+03  1.250000000E+02  0.00000E+00  9.000E+00
       1     1     1     2   502     0 -3.292979845E+01  7.036617480E+01 -2.039074391E+02  2.182063563E+02  3.814697266E-06  0.00000E+00  9.000E+00
#rwgt            1           1   1.9116282998833334E-002           5      288799           0
</event>
<event>
      5   9999  3.19816E-02  1.90976E+01 -1.00000E+00  1.68041E-01
      21    -1     0     0   511   501  0.000000000E+00  0.000000000E+00  3.647205882E+02  3.647205882E+02  0.000000000E+00  0.00000E+00  9.000E+00
      21    -1     0     0   501   502  0.000000000E+00  0.000000000E+00 -2.410244287E+02  2.410244287E+02  0.000000000E+00  0.00000E+00  9.000E+00
      25     1     1     2     0     0  9.369797641E+01 -4.916963457E+01  2.317964054E+02  2.838160272E+02  1.250000000E+02  0.00000E+00  9.000E+00
      25     1     1     2     0     0 -1.068881356E+02  3.535888081E+01 -1.806842112E+02  2.468746811E+02  1.250000000E+02  0.00000E+00  9.000E+00
      21     1     1     2   511   502  1.319015921E+01  1.381075376E+01  7.258396528E+01  7.505430857E+01  1.651812370E-06  0.00000E+00  9.000E+00
#rwgt            1           1   2.7044501527689068E-002           5      288881           0
</event>
<event>
      5   9999  3.19816E-02  1.26859E+02 -1.00000E+00  1.19353E-01
      21    -1     0     0   512   501  0.000000000E+00  0.000000000E+00  7.543156133E+02  7.543156133E+02  0.000000000E+00  0.00000E+00  9.000E+00
      21    -1     0     0   501   502  0.000000000E+00  0.000000000E+00 -4.361051624E+02  4.361051624E+02  0.000000000E+00  0.00000E+00  9.000E+00
      25     1     1     2     0     0  2.740020481E+02  1.850762452E+02 -1.566017159E+02  3.866257057E+02  1.250000000E+02  0.00000E+00  9.000E+00
      25     1     1     2     0     0 -2.163900544E+02 -7.205414871E+01 -4.915973941E+01  2.646849749E+02  1.250000000E+02  0.00000E+00  9.000E+00
      21     1     1     2   512   502 -5.761199375E+01 -1.130220965E+02  5.239719062E+02  5.391100951E+02  7.629394531E-06  0.00000E+00  9.000E+00
#rwgt            2          11   3.0439922749946205E-003           5      289195           0
</event>
<event>
      5   9999  3.19816E-02  3.76023E+01 -1.00000E+00  1.46525E-01
      21    -1     0     0   502   511  0.000000000E+00  0.000000000E+00  2.388050071E+02  2.388050071E+02  0.000000000E+00  0.00000E+00  9.000E+00
      21    -1     0     0   501   502  0.000000000E+00  0.000000000E+00 -1.751875082E+03  1.751875082E+03  0.000000000E+00  0.00000E+00  9.000E+00
      25     1     1     2     0     0 -1.894005455E+02 -4.439489416E+02 -3.905290262E+02  6.333254690E+02  1.250000000E+02  0.00000E+00  9.000E+00
      25     1     1     2     0     0  1.664396854E+02  4.141708504E+02 -1.191676674E+03  1.278654745E+03  1.250000000E+02  0.00000E+00  9.000E+00
      21     1     1     2   501   511  2.296086006E+01  2.977809123E+01  6.913562462E+01  7.869987550E+01  2.132480600E-06  0.00000E+00  9.000E+00
#rwgt            1           1   3.5409364794817370E-002           5      289275           0
</event>
<event>
      5   9999  3.19816E-02  3.63883E+01 -1.00000E+00  1.47436E-01
      21    -1     0     0   502   501  0.000000000E+00  0.000000000E+00  1.194168714E+02  1.194168714E+02  0.000000000E+00  0.00000E+00  9.000E+00
      21    -1     0     0   512   502  0.000000000E+00  0.000000000E+00 -9.465726431E+02  9.465726431E+02  0.000000000E+00  0.00000E+00  9.000E+00
      25     1     1     2     0     0 -1.135076678E+02  1.849255908E+01  4.008924908E+01  1.745225294E+02  1.250000000E+02  0.00000E+00  9.000E+00
      25     1     1     2     0     0  9.375656259E+01 -4.905406331E+01 -7.787145000E+02  7.957498769E+02  1.250000000E+02  0.00000E+00  9.000E+00
      21     1     1     2   512   501  1.975110517E+01  3.056150423E+01 -8.853052080E+01  9.571710823E+01  9.536743164E-07  0.00000E+00  9.000E+00
#rwgt            1           1   2.2749818812694514E-002           5      289413           0
</event>
<event>
      5   9999  3.30972E-02  5.80536E+01 -1.00000E+00  1.35473E-01
      21    -1     0     0   502   511  0.000000000E+00  0.000000000E+00  9.872577618E+02  9.872577618E+02  0.000000000E+00  0.00000E+00  9.000E+00
      21    -1     0     0   501   502  0.000000000E+00  0.000000000E+00 -1.758206984E+02  1.758206984E+02  0.000000000E+00  0.00000E+00  9.000E+00
      25     1     1     2     0     0 -1.357810600E+02 -1.497215327E+02 -4.218402248E+01  2.413659573E+02  1.250000000E+02  0.00000E+00  9.000E+00
      25     1     1     2     0     0  1.753700957E+02  1.921824439E+02  7.350834647E+02  7.897223957E+02  1.250000000E+02  0.00000E+00  9.000E+00
      21     1     1     2   501   511 -3.958903575E+01 -4.246091122E+01  1.185376213E+02  1.319901072E+02  0.000000000E+00  0.00000E+00  9.000E+00
#rwgt            1           1   3.2500393900673705E-002           5      289505           0
</event>
<event>
      5   9999  3.19816E-02  5.29039E+01 -1.00000E+00  1.37691E-01
      21    -1     0     0   502   501  0.000000000E+00  0.000000000E+00  1.537888199E+02  1.537888199E+02  0.000000000E+00  0.00000E+00  9.000E+00
       2    -1     0     0   501     0  0.000000000E+00  0.000000000E+00 -1.935025515E+03  1.935025515E+03  0.000000000E+00  0.00000E+00  9.000E+00
      25     1     1     2     0     0  1.446154893E+02 -3.928341322E+01 -2.673179809E+01  1.969680566E+02  1.250000000E+02  0.00000E+00  9.000E+00
      25     1     1     2     0     0 -1.477829803E+02  9.209240898E+01 -1.000570774E+02  2.365528266E+02  1.250000000E+02  0.00000E+00  9.000E+00
       2     1     1     2   502     0  3.167490953E+00 -5.280899576E+01 -1.654447820E+03  1.655293452E+03  2.157918644E-05  0.00000E+00  9.000E+00
#rwgt            1           1   2.6506816423157172E-002           5      289568           0
</event>
<event>
      5   9999  3.19816E-02  9.37316E+01 -1.00000E+00  1.25106E-01
      21    -1     0     0   502   511  0.000000000E+00  0.000000000E+00  3.478953700E+02  3.478953700E+02  0.000000000E+00  0.00000E+00  9.000E+00
      21    -1     0     0   501   502  0.000000000E+00  0.000000000E+00 -2.740374107E+02  2.740374107E+02  0.000000000E+00  0.00000E+00  9.000E+00
      25     1     1     2     0     0  7.815877351E+01 -1.052507423E+02 -1.516144670E+02  2.362169749E+02  1.250000000E+02  0.00000E+00  9.000E+00
      25     1     1     2     0     0  1.325062827E+01  1.259857347E+02  4.691042579E+01  1.840477453E+02  1.250000000E+02  0.00000E+00  9.000E+00
      21     1     1     2   501   511 -9.140940179E+01 -2.073499234E+01  1.785620004E+02  2.016680605E+02  0.000000000E+00  0.00000E+00  9.000E+00
#rwgt            2          11   2.0796375936994369E-003           5      289646           0
</event>
<event>
      5   9999  3.24138E-02  2.77143E+02 -1.00000E+00  1.06722E-01
       1    -1     0     0   502     0  0.000000000E+00  0.000000000E+00  2.002854063E+03  2.002854063E+03  0.000000000E+00  0.00000E+00  9.000E+00
      21    -1     0     0   501   502  0.000000000E+00  0.000000000E+00 -1.192640637E+03  1.192640637E+03  0.000000000E+00  0.00000E+00  9.000E+00
      25     1     1     2     0     0  9.775014652E+02  5.571162558E+02 -6.419887682E+02  1.301407782E+03  1.250000000E+02  0.00000E+00  9.000E+00
      25     1     1     2     0     0 -7.388059966E+02 -4.162867290E+02  7.492589265E+02  1.138482710E+03  1.250000000E+02  0.00000E+00  9.000E+00
       1     1     1     2   501     0 -2.386954686E+02 -1.408295268E+02  7.029432673E+02  7.556042082E+02  0.000000000E+00  0.00000E+00  9.000E+00
#rwgt            1           1   7.6180060900426921E-002           5      289666           0
</event>
<event>
      5   9999  3.19816E-02  4.29963E+01 -1.00000E+00  1.42921E-01
      21    -1     0     0   502   501  0.000000000E+00  0.000000000E+00  1.114034660E+03  1.114034660E+03  0.000000000E+00  0.00000E+00  9.000E+00
      21    -1     0     0   511   502  0.000000000E+00  0.000000000E+00 -2.452365424E+02  2.452365424E+02  0.000000000E+00  0.00000E+00  9.000E+00
      25     1     1     2     0     0 -3.374686088E+02  1.687104392E+02  1.635401572E+02  4.297890846E+02  1.250000000E+02  0.00000E+00  9.000E+00
      25     1     1     2     0     0  3.621566097E+02 -2.039124735E+02  7.505703099E+02  8.670170108E+02  1.250000000E+02  0.00000E+00  9.000E+00
      21     1     1     2   511   501 -2.468800090E+01  3.520203434E+01 -4.531234936E+01  6.246510717E+01  1.784161275E-06  0.00000E+00  9.000E+00
#rwgt            1           1   2.8972061268534993E-002           5      289746           0
</event>
<event>
      5   9999  3.19816E-02  8.91506E+01 -1.00000E+00  1.26114E-01
      21    -1     0     0   502   501  0.000000000E+00  0.000000000E+00  1.769701878E+02  1.769701878E+02  0.000000000E+00  0.00000E+00  9.000E+00
       3    -1     0     0   501     0  0.000000000E+00  0.000000000E+00 -6.584251362E+02  6.584251362E+02  0.000000000E+00  0.00000E+00  9.000E+00
      25     1     1     2     0     0  4.692574435E+01  2.590346478E+02 -2.404085357E+02  3.777859688E+02  1.250000000E+02  0.00000E+00  9.000E+00
      25     1     1     2     0     0  1.734237304E+01 -1.972491777E+02 -3.982987966E+01  2.375277148E+02  1.250000000E+02  0.00000E+00  9.000E+00
       3     1     1     2   502     0 -6.426811740E+01 -6.178547011E+01 -2.012165331E+02  2.200816404E+02  2.697398305E-06  0.00000E+00  9.000E+00
#rwgt            1           1   2.8709270283544201E-002           5      289892           0
</event>
<event>
      5   9999  3.19816E-02  6.76299E+01 -1.00000E+00  1.31983E-01
      21    -1     0     0   502   501  0.000000000E+00  0.000000000E+00  2.628032571E+02  2.628032571E+02  0.000000000E+00  0.00000E+00  9.000E+00
      21    -1     0     0   511   502  0.000000000E+00  0.000000000E+00 -2.168551113E+03  2.168551113E+03  0.000000000E+00  0.00000E+00  9.000E+00
      25     1     1     2     0     0  4.466919402E+01 -6.741802021E+01  2.204362915E+02  2.660031672E+02  1.250000000E+02  0.00000E+00  9.000E+00
      25     1     1     2     0     0 -4.022493167E+01  1.349017526E+02 -4.498597553E+02  4.876631291E+02  1.250000000E+02  0.00000E+00  9.000E+00
      21     1     1     2   511   501 -4.444262354E+00 -6.748373242E+01 -1.676324392E+03  1.677688073E+03  2.157918644E-05  0.00000E+00  9.000E+00
#rwgt            1           1   2.6558251562879980E-002           5      289948           0
</event>
<event>
      5   9999  3.19816E-02  8.84584E+00 -1.00000E+00  2.02123E-01
      21    -1     0     0   502   501  0.000000000E+00  0.000000000E+00  4.459571269E+02  4.459571269E+02  0.000000000E+00  0.00000E+00  9.000E+00
      21    -1     0     0   512   502  0.000000000E+00  0.000000000E+00 -4.399929926E+02  4.399929926E+02  0.000000000E+00  0.00000E+00  9.000E+00
      25     1     1     2     0     0  2.716298697E+02  1.213542965E+02  3.523232345E+01  3.246166478E+02  1.250000000E+02  0.00000E+00  9.000E+00
      25     1     1     2     0     0 -2.641780572E+02 -1.261207763E+02  1.706845576E+02  3.611851524E+02  1.250000000E+02  0.00000E+00  9.000E+00
      21     1     1     2   512   501 -7.451812540E+00  4.766479828E+00 -1.999527467E+02  2.001483194E+02  2.697398305E-06  0.00000E+00  9.000E+00
#rwgt            1           1   2.4129767823904264E-002           5      290073           0
</event>
<event>
      5   9999  3.19816E-02  8.51801E+01 -1.00000E+00  1.27044E-01
      21    -1     0     0   502   501  0.000000000E+00  0.000000000E+00  5.913393836E+02  5.913393836E+02  0.000000000E+00  0.00000E+00  9.000E+00
      21    -1     0     0   501   511  0.000000000E+00  0.000000000E+00 -4.052536794E+02  4.052536794E+02  0.000000000E+00  0.00000E+00  9.000E+00
      25     1     1     2     0     0  1.639636864E+02 -1.507866114E+02  4.888473916E+02  5.515591219E+02  1.250000000E+02  0.00000E+00  9.000E+00
      25     1     1     2     0     0 -1.402698179E+02  6.896817004E+01 -2.989589822E+02  3.597689582E+02  1.250000000E+02  0.00000E+00  9.000E+00
      21     1     1     2   502   511 -2.369386852E+01  8.181844139E+01 -3.802705232E+00  8.526498298E+01  9.518098487E-07  0.00000E+00  9.000E+00
#rwgt            1           1   2.9378464973814675E-002           5      290297           0
</event>
<event>
      5   9999  3.19816E-02  8.79721E+00 -1.00000E+00  2.02419E-01
      21    -1     0     0   502   501  0.000000000E+00  0.000000000E+00  7.717809551E+02  7.717809551E+02  0.000000000E+00  0.00000E+00  9.000E+00
      21    -1     0     0   501   512  0.000000000E+00  0.000000000E+00 -6.836105769E+02  6.836105769E+02  0.000000000E+00  0.00000E+00  9.000E+00
      25     1     1     2     0     0  4.730661261E+02 -4.029481985E+02 -3.048847214E+02  7.033765020E+02  1.250000000E+02  0.00000E+00  9.000E+00
      25     1     1     2     0     0 -4.643573989E+02  4.041927806E+02  3.961717355E+02  7.426820597E+02  1.250000000E+02  0.00000E+00  9.000E+00
      21     1     1     2   502   512 -8.708727220E+00 -1.244582073E+00 -3.116635895E+00  9.332970247E+00  2.107342426E-07  0.00000E+00  9.000E+00
#rwgt            1           1   3.1713403920622482E-002           5      290360           0
</event>
<event>
      5   9999  3.19816E-02  2.08824E+02 -1.00000E+00  1.10970E-01
       2    -1     0     0   502     0  0.000000000E+00  0.000000000E+00  2.688175530E+03  2.688175530E+03  0.000000000E+00  0.00000E+00  9.000E+00
      21    -1     0     0   501   502  0.000000000E+00  0.000000000E+00 -7.587147809E+01  7.587147809E+01  0.000000000E+00  0.00000E+00  9.000E+00
      25     1     1     2     0     0 -7.264321286E+01 -8.216907590E+01  1.350610195E+02  2.142318193E+02  1.250000000E+02  0.00000E+00  9.000E+00
      25     1     1     2     0     0  2.696209885E+02  1.283432531E+01  7.032594308E+02  7.635830173E+02  1.250000000E+02  0.00000E+00  9.000E+00
       2     1     1     2   501     0 -1.969777756E+02  6.933475059E+01  1.773983602E+03  1.786232172E+03  3.737624730E-05  0.00000E+00  9.000E+00
#rwgt            2          18   1.5404125698689117E-003           5      290889           0
</event>
<event>
      5   9999  3.19816E-02  1.81354E+02 -1.00000E+00  1.13218E-01
      21    -1     0     0   502   501  0.000000000E+00  0.000000000E+00  7.079690541E+02  7.079690541E+02  0.000000000E+00  0.00000E+00  9.000E+00
      21    -1     0     0   501   511  0.000000000E+00  0.000000000E+00 -5.116661197E+02  5.116661197E+02  0.000000000E+00  0.00000E+00  9.000E+00
      25     1     1     2     0     0 -1.982177590E+02 -2.495315393E+02 -1.401025582E+02  3.698783528E+02  1.250000000E+02  0.00000E+00  9.000E+00
      25     1     1     2     0     0  2.937871778E+02  4.036606857E+02  4.059817034E+02  6.555143007E+02  1.250000000E+02  0.00000E+00  9.000E+00
      21     1     1     2   502   511 -9.556941874E+01 -1.541291464E+02 -6.957621085E+01  1.942425203E+02  3.932099939E-06  0.00000E+00  9.000E+00
#rwgt            1           1   2.6948011932368794E-002           5      290908           0
</event>
<event>
      5   9999  3.19816E-02  7.89382E+01 -1.00000E+00  1.28631E-01
      21    -1     0     0   502   501  0.000000000E+00  0.000000000E+00  1.545158959E+02  1.545158959E+02  0.000000000E+00  0.00000E+00  9.000E+00
      21    -1     0     0   512   502  0.000000000E+00  0.000000000E+00 -6.284550135E+02  6.284550135E+02  0.000000000E+00  0.00000E+00  9.000E+00
      25     1     1     2     0     0  1.868462295E+02  7.529636353E+01 -4.606368422E+01  2.415117364E+02  1.250000000E+02  0.00000E+00  9.000E+00
      25     1     1     2     0     0 -2.196443350E+02 -3.494437377E+00 -3.323977775E+02  4.175752955E+02  1.250000000E+02  0.00000E+00  9.000E+00
      21     1     1     2   512   501  3.279810552E+01 -7.180192616E+01 -9.547765584E+01  1.238838774E+02  0.000000000E+00  0.00000E+00  9.000E+00
#rwgt            2          11   3.0010330842210968E-003           5      291051           0
</event>
<event>
      5   9999  3.19816E-02  9.76797E+01 -1.00000E+00  1.24288E-01
       2    -1     0     0   502     0  0.000000000E+00  0.000000000E+00  2.022791095E+03  2.022791095E+03  0.000000000E+00  0.00000E+00  9.000E+00
      21    -1     0     0   501   502  0.000000000E+00  0.000000000E+00 -2.143952577E+02  2.143952577E+02  0.000000000E+00  0.00000E+00  9.000E+00
      25     1     1     2     0     0 -2.511484382E+02  1.567286620E+02  1.351753875E+03  1.389425403E+03  1.250000000E+02  0.00000E+00  9.000E+00
      25     1     1     2     0     0  2.038228001E+02 -7.127921554E+01 -1.100651300E+02  2.726972557E+02  1.250000000E+02  0.00000E+00  9.000E+00
       2     1     1     2   501     0  4.732563809E+01 -8.544944644E+01  5.667070926E+02  5.750636945E+02  7.629394531E-06  0.00000E+00  9.000E+00
#rwgt            1           1   2.9509101176533641E-002           5      291071           0
</event>
<event>
      5   9999  3.19816E-02  8.40660E+01 -1.00000E+00  1.27316E-01
      21    -1     0     0   502   501  0.000000000E+00  0.000000000E+00  2.186223590E+03  2.186223590E+03  0.000000000E+00  0.00000E+00  9.000E+00
      21    -1     0     0   501   511  0.000000000E+00  0.000000000E+00 -1.870171503E+02  1.870171503E+02  0.000000000E+00  0.00000E+00  9.000E+00
      25     1     1     2     0     0 -3.411883549E+02  8.201255136E+01  1.245114345E+03  1.299642368E+03  1.250000000E+02  0.00000E+00  9.000E+00
      25     1     1     2     0     0  3.561342173E+02  7.142043880E-01  8.595304745E+02  9.387490225E+02  1.250000000E+02  0.00000E+00  9.000E+00
      21     1     1     2   502   511 -1.494586236E+01 -8.272675575E+01 -1.054383804E+02  1.348493492E+02  2.336015456E-06  0.00000E+00  9.000E+00
#rwgt            1           1   2.7367688467290905E-002           5      291184           0
</event>
<event>
      5   9999  3.19816E-02  1.07887E+02 -1.00000E+00  1.22363E-01
      21    -1     0     0   502   501  0.000000000E+00  0.000000000E+00  1.939507917E+02  1.939507917E+02  0.000000000E+00  0.00000E+00  9.000E+00
      21    -1     0     0   501   512  0.000000000E+00  0.000000000E+00 -3.123718798E+02  3.123718798E+02  0.000000000E+00  0.00000E+00  9.000E+00
      25     1     1     2     0     0 -1.460031153E+02 -7.509875453E+01  4.993727449E+00  2.064138317E+02  1.250000000E+02  0.00000E+00  9.000E+00
      25     1     1     2     0     0  4.052501376E+01  9.776744105E+01 -9.043444754E+01  1.870939298E+02  1.250000000E+02  0.00000E+00  9.000E+00
      21     1     1     2   502   512  1.054781015E+02 -2.266868652E+01 -3.298036793E+01  1.128149100E+02  1.348699152E-06  0.00000E+00  9.000E+00
#rwgt            2          11   2.3589948625352820E-003           5      291276           0
</event>
<event>
      5   9999  3.19816E-02  2.41064E+01 -1.00000E+00  1.59944E-01
      21    -1     0     0   502   501  0.000000000E+00  0.000000000E+00  5.646298809E+02  5.646298809E+02  0.000000000E+00  0.00000E+00  9.000E+00
      21    -1     0     0   511   502  0.000000000E+00  0.000000000E+00 -1.586190533E+02  1.586190533E+02  0.000000000E+00  0.00000E+00  9.000E+00
      25     1     1     2     0     0 -1.858306252E+02 -1.513866396E+02  3.212092130E+02  4.198229322E+02  1.250000000E+02  0.00000E+00  9.000E+00
      25     1     1     2     0     0  1.784436784E+02  1.284399007E+02  1.031438617E+02  2.731347848E+02  1.250000000E+02  0.00000E+00  9.000E+00
      21     1     1     2   511   501  7.386946739E+00  2.294673890E+01 -1.834224716E+01  3.029121720E+01  4.768371582E-07  0.00000E+00  9.000E+00
#rwgt            1           1   2.8490948152204140E-002           5      291311           0
</event>
<event>
      5   9999  3.19816E-02  3.10860E+01 -1.00000E+00  1.51975E-01
      21    -1     0     0   502   501  0.000000000E+00  0.000000000E+00  1.090582251E+03  1.090582251E+03  0.000000000E+00  0.00000E+00  9.000E+00
      21    -1     0     0   512   502  0.000000000E+00  0.000000000E+00 -2.238898924E+02  2.238898924E+02  0.000000000E+00  0.00000E+00  9.000E+00
      25     1     1     2     0     0 -1.274334858E+02  3.899134751E+02  2.374235062E+02  4.901701059E+02  1.250000000E+02  0.00000E+00  9.000E+00
      25     1     1     2     0     0  1.459488402E+02 -4.148838582E+02  6.440787823E+02  7.898684432E+02  1.250000000E+02  0.00000E+00  9.000E+00
      21     1     1     2   512   501 -1.851535438E+01  2.497038303E+01 -1.480993005E+01  3.443359412E+01  5.591411304E-07  0.00000E+00  9.000E+00
#rwgt            1           1   2.8548353443306605E-002           5      291451           0
</event>
<event>
      5   9999  3.19816E-02  6.64674E+01 -1.00000E+00  1.32370E-01
      21    -1     0     0   511   501  0.000000000E+00  0.000000000E+00  7.689295615E+02  7.689295615E+02  0.000000000E+00  0.00000E+00  9.000E+00
      21    -1     0     0   501   502  0.000000000E+00  0.000000000E+00 -1.184481369E+03  1.184481369E+03  0.000000000E+00  0.00000E+00  9.000E+00
      25     1     1     2     0     0  9.420698685E+01  2.327186985E+02 -4.722255402E+02  5.492311988E+02  1.250000000E+02  0.00000E+00  9.000E+00
      25     1     1     2     0     0 -6.610646727E+01 -1.724835672E+02 -6.537005910E+02  6.907026195E+02  1.250000000E+02  0.00000E+00  9.000E+00
      21     1     1     2   511   502 -2.810051958E+01 -6.023513130E+01  7.103743235E+02  7.134771123E+02  0.000000000E+00  0.00000E+00  9.000E+00
#rwgt            1           1   2.7278280315977812E-002           5      291643           0
</event>
<event>
      5   9999  3.19816E-02  9.98562E+01 -1.00000E+00  1.23856E-01
      21    -1     0     0   502   512  0.000000000E+00  0.000000000E+00  9.109242287E+01  9.109242287E+01  0.000000000E+00  0.00000E+00  9.000E+00
      21    -1     0     0   501   502  0.000000000E+00  0.000000000E+00 -9.557284947E+02  9.557284947E+02  0.000000000E+00  0.00000E+00  9.000E+00
      25     1     1     2     0     0 -3.687912814E+01  2.108135930E+02 -4.402958665E+02  5.052602212E+02  1.250000000E+02  0.00000E+00  9.000E+00
      25     1     1     2     0     0 -3.164068647E+01 -1.381754423E+02 -3.943484445E+02  4.372977036E+02  1.250000000E+02  0.00000E+00  9.000E+00
      21     1     1     2   501   512  6.851981461E+01 -7.263815074E+01 -2.999176084E+01  1.042629927E+02  1.617033478E-06  0.00000E+00  9.000E+00
#rwgt            1           1   2.7350936587909852E-002           5      291708           0
</event>
<event>
      5   9999  3.19816E-02  6.53607E+01 -1.00000E+00  1.32747E-01
      21    -1     0     0   511   501  0.000000000E+00  0.000000000E+00  1.102414868E+02  1.102414868E+02  0.000000000E+00  0.00000E+00  9.000E+00
      21    -1     0     0   501   502  0.000000000E+00  0.000000000E+00 -7.267684660E+02  7.267684660E+02  0.000000000E+00  0.00000E+00  9.000E+00
      25     1     1     2     0     0  1.853371416E+02  1.253140557E+02 -2.234892509E+02  3.400381065E+02  1.250000000E+02  0.00000E+00  9.000E+00
      25     1     1     2     0     0 -1.727162334E+02 -6.118346536E+01 -3.621538663E+02  4.246819240E+02  1.250000000E+02  0.00000E+00  9.000E+00
      21     1     1     2   511   502 -1.262090818E+01 -6.413059037E+01 -3.088386200E+01  7.228992237E+01  1.430511475E-06  0.00000E+00  9.000E+00
#rwgt            1           1   2.6749767264972260E-002           5      291758           0
</event>
<event>
      5   9999  3.19816E-02  3.49201E+01 -1.00000E+00  1.48596E-01
      21    -1     0     0   502   501  0.000000000E+00  0.000000000E+00  5.405107536E+01  5.405107536E+01  0.000000000E+00  0.00000E+00  9.000E+00
      21    -1     0     0   501   512  0.000000000E+00  0.000000000E+00 -1.054307458E+03  1.054307458E+03  0.000000000E+00  0.00000E+00  9.000E+00
      25     1     1     2     0     0  8.080176539E+01  8.860865109E+01 -5.311398441E+02  5.586724911E+02  1.250000000E+02  0.00000E+00  9.000E+00
      25     1     1     2     0     0 -9.753383790E+01 -5.795813559E+01 -1.416624047E+02  2.203752071E+02  1.250000000E+02  0.00000E+00  9.000E+00
      21     1     1     2   502   512  1.673207251E+01 -3.065051550E+01 -3.274541342E+02  3.293108355E+02  6.607249480E-06  0.00000E+00  9.000E+00
#rwgt            1           1   3.1863707702672377E-002           5      291889           0
</event>
<event>
      5   9999  3.19816E-02  1.00455E+01 -1.00000E+00  1.95529E-01
      21    -1     0     0   502   501  0.000000000E+00  0.000000000E+00  4.122569410E+02  4.122569410E+02  0.000000000E+00  0.00000E+00  9.000E+00
      21    -1     0     0   511   502  0.000000000E+00  0.000000000E+00 -8.568076464E+01  8.568076464E+01  0.000000000E+00  0.00000E+00  9.000E+00
      25     1     1     2     0     0  1.262979867E+01 -1.005422467E+02  4.337225520E+01  1.666565561E+02  1.250000000E+02  0.00000E+00  9.000E+00
      25     1     1     2     0     0 -8.742001263E+00  9.127954859E+01  2.811040754E+02  3.210185038E+02  1.250000000E+02  0.00000E+00  9.000E+00
      21     1     1     2   511   501 -3.887797410E+00  9.262698088E+00  2.099845743E+00  1.026264570E+01  1.332800375E-07  0.00000E+00  9.000E+00
#rwgt            1           1   2.4084627886370492E-002           5      292029           0
</event>
<event>
      5   9999  3.19816E-02  4.01991E+01 -1.00000E+00  1.44707E-01
      21    -1     0     0   512   501  0.000000000E+00  0.000000000E+00  8.500023933E+01  8.500023933E+01  0.000000000E+00  0.00000E+00  9.000E+00
      21    -1     0     0   501   502  0.000000000E+00  0.000000000E+00 -1.015295934E+03  1.015295934E+03  0.000000000E+00  0.00000E+00  9.000E+00
      25     1     1     2     0     0 -3.000517946E+01 -2.809508599E+01 -1.850784858E+02  2.270874073E+02  1.250000000E+02  0.00000E+00  9.000E+00
      25     1     1     2     0     0  5.037605923E+00  5.960046256E+01 -7.962650340E+02  8.082330091E+02  1.250000000E+02  0.00000E+00  9.000E+00
      21     1     1     2   512   502  2.496757354E+01 -3.150537656E+01  5.104782539E+01  6.497575669E+01  3.015782986E-06  0.00000E+00  9.000E+00
#rwgt            1           1   1.9416962959038258E-002           5      292218           0
</event>
<event>
      5   9999  3.19816E-02  1.63308E+01 -1.00000E+00  1.73975E-01
      21    -1     0     0   502   511  0.000000000E+00  0.000000000E+00  3.805438969E+02  3.805438969E+02  0.000000000E+00  0.00000E+00  9.000E+00
      21    -1     0     0   501   502  0.000000000E+00  0.000000000E+00 -5.818378978E+02  5.818378978E+02  0.000000000E+00  0.00000E+00  9.000E+00
      25     1     1     2     0     0 -2.540222795E+02 -1.346738640E+02 -3.783255933E+02  4.913447086E+02  1.250000000E+02  0.00000E+00  9.000E+00
      25     1     1     2     0     0  2.580732445E+02  1.504942518E+02  3.237192940E+01  3.254585398E+02  1.250000000E+02  0.00000E+00  9.000E+00
      21     1     1     2   501   511 -4.050964984E+00 -1.582038786E+01  1.446596631E+02  1.455785462E+02  2.697398305E-06  0.00000E+00  9.000E+00
#rwgt            1           1   2.6887138581420181E-002           5      292316           0
</event>
<event>
      5   9999  3.19816E-02  1.17548E+01 -1.00000E+00  1.87976E-01
      21    -1     0     0   502   501  0.000000000E+00  0.000000000E+00  4.331823148E+02  4.331823148E+02  0.000000000E+00  0.00000E+00  9.000E+00
      21    -1     0     0   512   502  0.000000000E+00  0.000000000E+00 -8.873471357E+02  8.873471357E+02  0.000000000E+00  0.00000E+00  9.000E+00
      25     1     1     2     0     0 -1.820641100E+02 -2.276892206E+02 -2.352886004E+02  3.949372695E+02  1.250000000E+02  0.00000E+00  9.000E+00
      25     1     1     2     0     0  1.705951483E+02  2.302657384E+02  2.841179489E+02  4.224606773E+02  1.250000000E+02  0.00000E+00  9.000E+00
      21     1     1     2   512   501  1.146896165E+01 -2.576517794E+00 -5.029941695E+02  5.031315037E+02  0.000000000E+00  0.00000E+00  9.000E+00
#rwgt            1           1   2.6797999068090501E-002           5      292496           0
</event>
<event>
      5   9999  3.19816E-02  8.11668E+01 -1.00000E+00  1.28046E-01
      21    -1     0     0   502   501  0.000000000E+00  0.000000000E+00  1.996137633E+02  1.996137633E+02  0.000000000E+00  0.00000E+00  9.000E+00
       2    -1     0     0   501     0  0.000000000E+00  0.000000000E+00 -2.946571670E+03  2.946571670E+03  0.000000000E+00  0.00000E+00  9.000E+00
      25     1     1     2     0     0  3.794639828E+01 -4.248070912E+02 -1.953019451E+02  4.854573551E+02  1.250000000E+02  0.00000E+00  9.000E+00
      25     1     1     2     0     0  1.753066387E+01  3.655588633E+02 -6.429713930E+02  7.503184783E+02  1.250000000E+02  0.00000E+00  9.000E+00
       2     1     1     2   502     0 -5.547706215E+01  5.924822790E+01 -1.908684568E+03  1.910409600E+03  4.315837288E-05  0.00000E+00  9.000E+00
#rwgt            1           1   2.8215848774396406E-002           5      292698           0
</event>
<event>
      5   9999  3.19816E-02  6.11623E+01 -1.00000E+00  1.34260E-01
      21    -1     0     0   502   501  0.000000000E+00  0.000000000E+00  1.028755508E+03  1.028755508E+03  0.000000000E+00  0.00000E+00  9.000E+00
       2    -1     0     0   501     0  0.000000000E+00  0.000000000E+00 -5.326006788E+02  5.326006788E+02  0.000000000E+00  0.00000E+00  9.000E+00
      25     1     1     2     0     0 -9.704320359E+01  3.411877337E+02 -3.126537505E+02  4.890846764E+02  1.250000000E+02  0.00000E+00  9.000E+00
      25     1     1     2     0     0  1.392351865E+02 -2.969083844E+02  8.979895516E+02  9.641323875E+02  1.250000000E+02  0.00000E+00  9.000E+00
       2     1     1     2   502     0 -4.219198295E+01 -4.427934935E+01 -8.918097173E+01  1.081391230E+02  1.348699152E-06  0.00000E+00  9.000E+00
#rwgt            1           1   2.8666216929940563E-002           5      292808           0
</event>
<event>
      5   9999  3.19816E-02  1.26945E+01 -1.00000E+00  1.84495E-01
      21    -1     0     0   511   501  0.000000000E+00  0.000000000E+00  6.107778630E+02  6.107778630E+02  0.000000000E+00  0.00000E+00  9.000E+00
      21    -1     0     0   501   502  0.000000000E+00  0.000000000E+00 -2.559870284E+02  2.559870284E+02  0.000000000E+00  0.00000E+00  9.000E+00
      25     1     1     2     0     0 -2.267188011E+01  1.767202286E+02 -1.640123625E+02  2.725235924E+02  1.250000000E+02  0.00000E+00  9.000E+00
      25     1     1     2     0     0  3.206250693E+01 -1.852622969E+02  3.019984932E+02  3.770652635E+02  1.250000000E+02  0.00000E+00  9.000E+00
      21     1     1     2   511   502 -9.390626812E+00  8.542068226E+00  2.168047038E+02  2.171760355E+02  0.000000000E+00  0.00000E+00  9.000E+00
#rwgt            1           1   2.5920804520501706E-002           5      292894           0
</event>
<event>
      5   9999  3.19816E-02  6.44993E+01 -1.00000E+00  1.33046E-01
      21    -1     0     0   502   501  0.000000000E+00  0.000000000E+00  1.835976112E+03  1.835976112E+03  0.000000000E+00  0.00000E+00  9.000E+00
      21    -1     0     0   512   502  0.000000000E+00  0.000000000E+00 -5.507337704E+01  5.507337704E+01  0.000000000E+00  0.00000E+00  9.000E+00
      25     1     1     2     0     0 -6.368127939E+01  2.257477745E+02  1.183879625E+03  1.213347984E+03  1.250000000E+02  0.00000E+00  9.000E+00
      25     1     1     2     0     0 -7.538578152E-01 -2.228713071E+02  4.934017249E+02  5.556459754E+02  1.250000000E+02  0.00000E+00  9.000E+00
      21     1     1     2   512   501  6.443513721E+01 -2.876467349E+00  1.036213856E+02  1.220555305E+02  1.907348633E-06  0.00000E+00  9.000E+00
#rwgt            1           1   3.5443667885447540E-002           5      293077           0
</event>
<event>
      5   9999  3.19816E-02  1.19975E+02 -1.00000E+00  1.20372E-01
      21    -1     0     0   511   501  0.000000000E+00  0.000000000E+00  1.402029392E+02  1.402029392E+02  0.000000000E+00  0.00000E+00  9.000E+00
      21    -1     0     0   501   502  0.000000000E+00  0.000000000E+00 -1.047668046E+03  1.047668046E+03  0.000000000E+00  0.00000E+00  9.000E+00
      25     1     1     2     0     0  2.013975233E+02 -6.452696787E+01 -3.139844818E+02  3.986677148E+02  1.250000000E+02  0.00000E+00  9.000E+00
      25     1     1     2     0     0 -1.063457385E+02 -8.679212483E+00 -6.398200131E+02  6.605901861E+02  1.250000000E+02  0.00000E+00  9.000E+00
      21     1     1     2   511   502 -9.505178473E+01  7.320618036E+01  4.633938800E+01  1.286130845E+02  3.504023184E-06  0.00000E+00  9.000E+00
#rwgt            1           1   2.6609508953499551E-002           5      293137           0
</event>
<event>
      5   9999  3.19816E-02  1.60711E+02 -1.00000E+00  1.15219E-01
      21    -1     0     0   502   512  0.000000000E+00  0.000000000E+00  1.229094466E+03  1.229094466E+03  0.000000000E+00  0.00000E+00  9.000E+00
      21    -1     0     0   501   502  0.000000000E+00  0.000000000E+00 -7.795718014E+02  7.795718014E+02  0.000000000E+00  0.00000E+00  9.000E+00
      25     1     1     2     0     0 -1.829910130E+01  1.087043217E+02 -7.491997080E+01  1.827279089E+02  1.250000000E+02  0.00000E+00  9.000E+00
      25     1     1     2     0     0  1.732666845E+02 -6.612589633E+01 -6.257789684E+02  6.645436746E+02  1.250000000E+02  0.00000E+00  9.000E+00
      21     1     1     2   501   512 -1.549675832E+02 -4.257842542E+01  1.150221603E+03  1.161394684E+03  1.525878906E-05  0.00000E+00  9.000E+00
#rwgt            1           1   3.0773961489335661E-002           5      293197           0
</event>
<event>
      5   9999  3.19816E-02  2.36732E+01 -1.00000E+00  1.60545E-01
      21    -1     0     0   511   501  0.000000000E+00  0.000000000E+00  2.147967496E+02  2.147967496E+02  0.000000000E+00  0.00000E+00  9.000E+00
      21    -1     0     0   501   502  0.000000000E+00  0.000000000E+00 -3.586876948E+03  3.586876948E+03  0.000000000E+00  0.00000E+00  9.000E+00
      25     1     1     2     0     0 -2.856224926E+02  2.952826675E+02 -2.954784956E+03  2.985825045E+03  1.250000000E+02  0.00000E+00  9.000E+00
      25     1     1     2     0     0  2.696311887E+02 -2.778270788E+02 -5.482847475E+02  6.827371588E+02  1.250000000E+02  0.00000E+00  9.000E+00
      21     1     1     2   511   502  1.599130385E+01 -1.745558869E+01  1.309895051E+02  1.331114940E+02  4.672030912E-06  0.00000E+00  9.000E+00
#rwgt            1           1   2.4681169652435213E-002           5      293258           0
</event>
<event>
      5   9999  3.19816E-02  1.20400E+01 -1.00000E+00  1.86876E-01
      21    -1     0     0   502   512  0.000000000E+00  0.000000000E+00  3.797725924E+02  3.797725924E+02  0.000000000E+00  0.00000E+00  9.000E+00
      21    -1     0     0   501   502  0.000000000E+00  0.000000000E+00 -1.919684161E+02  1.919684161E+02  0.000000000E+00  0.00000E+00  9.000E+00
      25     1     1     2     0     0  8.871887568E+01 -2.443786806E+01 -1.342587189E+02  2.052282921E+02  1.250000000E+02  0.00000E+00  9.000E+00
      25     1     1     2     0     0 -9.112808425E+01  1.264138946E+01  2.561005419E+02  2.994605484E+02  1.250000000E+02  0.00000E+00  9.000E+00
      21     1     1     2   501   512  2.409208572E+00  1.179647860E+01  6.596235323E+01  6.705216802E+01  0.000000000E+00  0.00000E+00  9.000E+00
#rwgt            1           1   2.9760520710133111E-002           5      293482           0
</event>
<event>
      5   9999  3.19816E-02  1.01691E+01 -1.00000E+00  1.94919E-01
      21    -1     0     0   502   501  0.000000000E+00  0.000000000E+00  1.235302346E+03  1.235302346E+03  0.000000000E+00  0.00000E+00  9.000E+00
      -1    -1     0     0     0   502  0.000000000E+00  0.000000000E+00 -8.669994578E+02  8.669994578E+02  0.000000000E+00  0.00000E+00  9.000E+00
      25     1     1     2     0     0 -2.172670370E+02  7.695851300E+02 -2.478981734E+02  8.464896586E+02  1.250000000E+02  0.00000E+00  9.000E+00
      25     1     1     2     0     0  2.269958393E+02 -7.725451899E+02  7.584473405E+02  1.113202834E+03  1.250000000E+02  0.00000E+00  9.000E+00
      -1     1     1     2     0   501 -9.728802255E+00  2.960059921E+00 -1.422462793E+02  1.426093108E+02  3.303624740E-06  0.00000E+00  9.000E+00
#rwgt            1           1   2.9729767689627384E-002           5      293630           0
</event>
<event>
      5   9999  3.19816E-02  2.51300E+01 -1.00000E+00  1.58582E-01
      21    -1     0     0   502   511  0.000000000E+00  0.000000000E+00  9.343234984E+01  9.343234984E+01  0.000000000E+00  0.00000E+00  9.000E+00
      21    -1     0     0   501   502  0.000000000E+00  0.000000000E+00 -4.554726506E+02  4.554726506E+02  0.000000000E+00  0.00000E+00  9.000E+00
      25     1     1     2     0     0  3.866719410E+01 -8.326823274E+01 -1.590200965E+02  2.221286600E+02  1.250000000E+02  0.00000E+00  9.000E+00
      25     1     1     2     0     0 -1.756420964E+01  9.691302126E+01 -2.364121065E+02  2.849847702E+02  1.250000000E+02  0.00000E+00  9.000E+00
      21     1     1     2   501   511 -2.110298446E+01 -1.364478852E+01  3.339190228E+01  4.179157025E+01  8.259061849E-07  0.00000E+00  9.000E+00
#rwgt            1           1   7.3310572583977052E-002           5      293910           0
</event>
<event>
      5   9999  3.19816E-02  1.72967E+02 -1.00000E+00  1.13993E-01
      21    -1     0     0   502   512  0.000000000E+00  0.000000000E+00  4.597738473E+02  4.597738473E+02  0.000000000E+00  0.00000E+00  9.000E+00
      21    -1     0     0   501   502  0.000000000E+00  0.000000000E+00 -6.551340366E+02  6.551340366E+02  0.000000000E+00  0.00000E+00  9.000E+00
      25     1     1     2     0     0 -1.912527964E+02  3.368515010E+02 -3.700951035E+02  5.501290316E+02  1.250000000E+02  0.00000E+00  9.000E+00
      25     1     1     2     0     0  2.298161042E+01 -2.968215243E+02  5.709645002E+00  3.229377212E+02  1.250000000E+02  0.00000E+00  9.000E+00
      21     1     1     2   501   512  1.682711860E+02 -4.002997671E+01  1.690252691E+02  2.418411311E+02  4.264961200E-06  0.00000E+00  9.000E+00
#rwgt            1           1   3.2338705046014590E-002           5      294018           0
</event>
<event>
      5   9999  3.19816E-02  3.35398E+02 -1.00000E+00  1.04042E-01
      21    -1     0     0   502   501  0.000000000E+00  0.000000000E+00  2.945266501E+02  2.945266501E+02  0.000000000E+00  0.00000E+00  9.000E+00
      21    -1     0     0   511   502  0.000000000E+00  0.000000000E+00 -2.216782673E+03  2.216782673E+03  0.000000000E+00  0.00000E+00  9.000E+00
      25     1     1     2     0     0  4.388525766E+02  9.108769160E+01  2.163412611E+01  4.658128240E+02  1.250000000E+02  0.00000E+00  9.000E+00
      25     1     1     2     0     0 -1.294388554E+02 -2.205294303E+02 -6.648824948E+02  7.232436511E+02  1.250000000E+02  0.00000E+00  9.000E+00
      21     1     1     2   511   501 -3.094137213E+02  1.294417387E+02 -1.279007654E+03  1.322252848E+03  1.525878906E-05  0.00000E+00  9.000E+00
#rwgt            2          11   1.1254510080744404E-003           5      294205           0
</event>
<event>
      5   9999  3.19816E-02  1.76543E+02 -1.00000E+00  1.13657E-01
       2    -1     0     0   502     0  0.000000000E+00  0.000000000E+00  1.158836404E+03  1.158836404E+03  0.000000000E+00  0.00000E+00  9.000E+00
      21    -1     0     0   501   502  0.000000000E+00  0.000000000E+00 -2.265988988E+03  2.265988988E+03  0.000000000E+00  0.00000E+00  9.000E+00
      25     1     1     2     0     0  5.470911236E+02 -7.272040934E+02  3.350098401E+02  9.777479655E+02  1.250000000E+02  0.00000E+00  9.000E+00
      25     1     1     2     0     0 -4.830799142E+02  5.626748539E+02 -1.853061537E+03  1.999857809E+03  1.250000000E+02  0.00000E+00  9.000E+00
       2     1     1     2   501     0 -6.401120946E+01  1.645292395E+02  4.108991127E+02  4.472196176E+02  5.394796609E-06  0.00000E+00  9.000E+00
#rwgt            1           1   5.7522935058434359E-002           5      294255           0
</event>
<event>
      5   9999  3.19816E-02  1.30860E+02 -1.00000E+00  1.18793E-01
      21    -1     0     0   502   511  0.000000000E+00  0.000000000E+00  1.118958417E+03  1.118958417E+03  0.000000000E+00  0.00000E+00  9.000E+00
      21    -1     0     0   501   502  0.000000000E+00  0.000000000E+00 -3.368288783E+02  3.368288783E+02  0.000000000E+00  0.00000E+00  9.000E+00
      25     1     1     2     0     0  4.090066111E+02  3.151967649E+01  2.678730809E+02  5.056291975E+02  1.250000000E+02  0.00000E+00  9.000E+00
      25     1     1     2     0     0 -4.462260738E+02 -1.569753509E+02  7.893755066E+01  4.955957088E+02  1.250000000E+02  0.00000E+00  9.000E+00
      21     1     1     2   501   511  3.721946267E+01  1.254556744E+02  4.353189074E+02  4.545623893E+02  0.000000000E+00  0.00000E+00  9.000E+00
#rwgt            2          11   2.2212468919163230E-003           5      294599           0
</event>
<event>
      5   9999  3.19816E-02  3.21224E+01 -1.00000E+00  1.51006E-01
      21    -1     0     0   502   501  0.000000000E+00  0.000000000E+00  2.689386914E+03  2.689386914E+03  0.000000000E+00  0.00000E+00  9.000E+00
      21    -1     0     0   501   512  0.000000000E+00  0.000000000E+00 -2.637808249E+02  2.637808249E+02  0.000000000E+00  0.00000E+00  9.000E+00
      25     1     1     2     0     0 -7.054883312E+02  2.594757939E+02  1.727295333E+03  1.887913038E+03  1.250000000E+02  0.00000E+00  9.000E+00
      25     1     1     2     0     0  7.155877144E+02 -2.289823258E+02  6.980229111E+02  1.033131002E+03  1.250000000E+02  0.00000E+00  9.000E+00
      21     1     1     2   502   512 -1.009938313E+01 -3.049346817E+01  2.878446476E-01  3.212369834E+01  5.251470264E-07  0.00000E+00  9.000E+00
#rwgt            1           1   2.5927217870797888E-002           5      294634           0
</event>
<event>
      5   9999  3.19816E-02  8.66228E+01 -1.00000E+00  1.26700E-01
      21    -1     0     0   502   501  0.000000000E+00  0.000000000E+00  3.551482648E+02  3.551482648E+02  0.000000000E+00  0.00000E+00  9.000E+00
      21    -1     0     0   511   502  0.000000000E+00  0.000000000E+00 -2.353814687E+02  2.353814687E+02  0.000000000E+00  0.00000E+00  9.000E+00
      25     1     1     2     0     0 -4.244611095E+01 -1.596215959E+01 -1.377001426E+02  1.914230711E+02  1.250000000E+02  0.00000E+00  9.000E+00
      25     1     1     2     0     0  9.740079940E+00  9.617324767E+01  2.687397712E+02  3.117534720E+02  1.250000000E+02  0.00000E+00  9.000E+00
      21     1     1     2   511   501  3.270603101E+01 -8.021108809E+01 -1.127283250E+01  8.735319038E+01  1.668930054E-06  0.00000E+00  9.000E+00
#rwgt            1           1   2.9137031726715168E-002           5      294821           0
</event>
<event>
      5   9999  3.19816E-02  1.23291E+02 -1.00000E+00  1.19872E-01
      -1    -1     0     0     0   501  0.000000000E+00  0.000000000E+00  1.139043635E+03  1.139043635E+03  0.000000000E+00  0.00000E+00  9.000E+00
      21    -1     0     0   501   502  0.000000000E+00  0.000000000E+00 -1.643303565E+02  1.643303565E+02  0.000000000E+00  0.00000E+00  9.000E+00
      25     1     1     2     0     0  2.398344038E+02 -1.393016220E+02  1.906443008E+02  3.590205183E+02  1.250000000E+02  0.00000E+00  9.000E+00
      25     1     1     2     0     0 -2.763080444E+02  2.570737121E+02  6.522420051E+02  7.638570954E+02  1.250000000E+02  0.00000E+00  9.000E+00
      -1     1     1     2     0   502  3.647364068E+01 -1.177720901E+02  1.318269725E+02  1.804963777E+02  4.264961200E-06  0.00000E+00  9.000E+00
#rwgt            1           1   2.8427219366379004E-002           5      294914           0
</event>
<event>
      5   9999  3.19816E-02  3.35756E+01 -1.00000E+00  1.49719E-01
      21    -1     0     0   502   501  0.000000000E+00  0.000000000E+00  2.553900723E+02  2.553900723E+02  0.000000000E+00  0.00000E+00  9.000E+00
       4    -1     0     0   501     0  0.000000000E+00  0.000000000E+00 -1.254564201E+02  1.254564201E+02  0.000000000E+00  0.00000E+00  9.000E+00
      25     1     1     2     0     0  5.434721823E+01  9.830502299E+01  5.020280714E+01  1.753933280E+02  1.250000000E+02  0.00000E+00  9.000E+00
      25     1     1     2     0     0 -5.774764912E+01 -6.490203276E+01  7.981096635E+01  1.718774423E+02  1.250000000E+02  0.00000E+00  9.000E+00
       4     1     1     2   502     0  3.400430898E+00 -3.340299023E+01 -8.012125325E-02  3.357572197E+01  3.305827837E-07  0.00000E+00  9.000E+00
#rwgt            1           1   2.6181882851784653E-002           5      294960           0
</event>
<event>
      5   9999  3.19816E-02  2.81978E+02 -1.00000E+00  1.06474E-01
       2    -1     0     0   502     0  0.000000000E+00  0.000000000E+00  1.861020116E+03  1.861020116E+03  0.000000000E+00  0.00000E+00  9.000E+00
      21    -1     0     0   501   502  0.000000000E+00  0.000000000E+00 -2.923351624E+02  2.923351624E+02  0.000000000E+00  0.00000E+00  9.000E+00
      25     1     1     2     0     0  3.438772954E+02  6.128799635E+01 -6.221780188E+01  3.761699984E+02  1.250000000E+02  0.00000E+00  9.000E+00
      25     1     1     2     0     0 -2.422508702E+02 -3.243156122E+02  9.484455333E+02  1.038768516E+03  1.250000000E+02  0.00000E+00  9.000E+00
       2     1     1     2   501     0 -1.016264253E+02  2.630276158E+02  6.824572221E+02  7.384167637E+02  7.629394531E-06  0.00000E+00  9.000E+00
#rwgt            2          18   1.3661125351876612E-003           5      295191           0
</event>
<event>
      5   9999  3.19816E-02  3.89687E+01 -1.00000E+00  1.45547E-01
      21    -1     0     0   502   501  0.000000000E+00  0.000000000E+00  2.741752834E+02  2.741752834E+02  0.000000000E+00  0.00000E+00  9.000E+00
      21    -1     0     0   511   502  0.000000000E+00  0.000000000E+00 -8.521424384E+02  8.521424384E+02  0.000000000E+00  0.00000E+00  9.000E+00
      25     1     1     2     0     0  2.005133332E+02 -1.557712171E+02 -5.461329279E+01  2.882323380E+02  1.250000000E+02  0.00000E+00  9.000E+00
      25     1     1     2     0     0 -1.775371172E+02  1.872458263E+02  2.550299208E+01  2.878468865E+02  1.250000000E+02  0.00000E+00  9.000E+00
      21     1     1     2   511   501 -2.297621602E+01 -3.147460916E+01 -5.488568542E+02  5.502384973E+02  7.629394531E-06  0.00000E+00  9.000E+00
#rwgt            1           1   2.9144847082363430E-002           5      295210           0
</event>
<event>
      5   9999  3.19816E-02  1.14160E+01 -1.00000E+00  1.89335E-01
      21    -1     0     0   502   512  0.000000000E+00  0.000000000E+00  1.018508833E+02  1.018508833E+02  0.000000000E+00  0.00000E+00  9.000E+00
      21    -1     0     0   501   502  0.000000000E+00  0.000000000E+00 -9.031884281E+02  9.031884281E+02  0.000000000E+00  0.00000E+00  9.000E+00
      25     1     1     2     0     0 -2.249391415E+02 -9.631552636E+01 -5.130685711E+02  5.820125915E+02  1.250000000E+02  0.00000E+00  9.000E+00
      25     1     1     2     0     0  2.137430719E+02  9.854553025E+01 -3.035599737E+02  4.039442783E+02  1.250000000E+02  0.00000E+00  9.000E+00
      21     1     1     2   501   512  1.119606956E+01 -2.230003892E+00  1.529100014E+01  1.908244157E+01  5.331201500E-07  0.00000E+00  9.000E+00
#rwgt            1           1   2.6804959058063339E-002           5      295252           0
</event>
<event>
      5   9999  3.19816E-02  2.16601E+02 -1.00000E+00  1.10402E-01
      21    -1     0     0   511   501  0.000000000E+00  0.000000000E+00  1.077589914E+03  1.077589914E+03  0.000000000E+00  0.00000E+00  9.000E+00
      21    -1     0     0   501   502  0.000000000E+00  0.000000000E+00 -2.013511631E+02  2.013511631E+02  0.000000000E+00  0.00000E+00  9.000E+00
      25     1     1     2     0     0  2.616724753E+02  1.601144595E+02  1.657818166E+02  3.704291230E+02  1.250000000E+02  0.00000E+00  9.000E+00
      25     1     1     2     0     0 -2.226160731E+02  5.293665443E+01  1.349479410E+02  2.935918121E+02  1.250000000E+02  0.00000E+00  9.000E+00
      21     1     1     2   511   502 -3.905640217E+01 -2.130511139E+02  5.755089934E+02  6.149201421E+02  1.078959322E-05  0.00000E+00  9.000E+00
#rwgt            1           1   2.6412773678717832E-002           5      295483           0
</event>
<event>
      5   9999  3.19816E-02  1.94755E+02 -1.00000E+00  1.12070E-01
      21    -1     0     0   502   501  0.000000000E+00  0.000000000E+00  7.485649333E+02  7.485649333E+02  0.000000000E+00  0.00000E+00  9.000E+00
      21    -1     0     0   501   512  0.000000000E+00  0.000000000E+00 -6.883952276E+02  6.883952276E+02  0.000000000E+00  0.00000E+00  9.000E+00
      25     1     1     2     0     0  3.461398985E+01  3.136196876E+01 -4.203028547E+02  4.409775403E+02  1.250000000E+02  0.00000E+00  9.000E+00
      25     1     1     2     0     0  4.692707022E+01 -2.082252888E+02  6.761072047E+02  7.199346311E+02  1.250000000E+02  0.00000E+00  9.000E+00
      21     1     1     2   502   512 -8.154106006E+01  1.768633200E+02 -1.956346443E+02  2.760479895E+02  0.000000000E+00  0.00000E+00  9.000E+00
#rwgt            1           1   3.0714361503613920E-002           5      295555           0
</event>
<event>
      5   9999  3.19816E-02  8.76000E+00 -1.00000E+00  2.02647E-01
      21    -1     0     0   502   501  0.000000000E+00  0.000000000E+00  1.484177845E+03  1.484177845E+03  0.000000000E+00  0.00000E+00  9.000E+00
       2    -1     0     0   501     0  0.000000000E+00  0.000000000E+00 -2.373208821E+03  2.373208821E+03  0.000000000E+00  0.00000E+00  9.000E+00
      25     1     1     2     0     0  1.635944028E+02  5.616054611E+02  1.224864895E+03  1.363115121E+03  1.250000000E+02  0.00000E+00  9.000E+00
      25     1     1     2     0     0 -1.719708288E+02 -5.590416563E+02 -2.800764302E+02  6.604311820E+02  1.250000000E+02  0.00000E+00  9.000E+00
       2     1     1     2   502     0  8.376425964E+00 -2.563804779E+00 -1.833819440E+03  1.833840363E+03  2.157918644E-05  0.00000E+00  9.000E+00
#rwgt            1           1   2.7079988428503593E-002           5      295627           0
</event>
<event>
      5   9999  3.19816E-02  1.35727E+02 -1.00000E+00  1.18141E-01
      21    -1     0     0   502   501  0.000000000E+00  0.000000000E+00  2.127590475E+02  2.127590475E+02  0.000000000E+00  0.00000E+00  9.000E+00
       1    -1     0     0   501     0  0.000000000E+00  0.000000000E+00 -3.091612463E+03  3.091612463E+03  0.000000000E+00  0.00000E+00  9.000E+00
      25     1     1     2     0     0 -3.180198874E+02  4.030626333E+02 -1.715758624E+03  1.795285156E+03  1.250000000E+02  0.00000E+00  9.000E+00
      25     1     1     2     0     0  2.905676743E+02 -5.359845396E+02 -4.132744298E+02  7.470808219E+02  1.250000000E+02  0.00000E+00  9.000E+00
       1     1     1     2   502     0  2.745221309E+01  1.329219064E+02 -7.498203617E+02  7.620055328E+02  1.078959322E-05  0.00000E+00  9.000E+00
#rwgt            1           1   2.4317820163696373E-002           5      295964           0
</event>
<event>
      5   9999  3.19816E-02  6.15575E+01 -1.00000E+00  1.34111E-01
      21    -1     0     0   502   511  0.000000000E+00  0.000000000E+00  2.958161445E+02  2.958161445E+02  0.000000000E+00  0.00000E+00  9.000E+00
      21    -1     0     0   501   502  0.000000000E+00  0.000000000E+00 -1.373067429E+03  1.373067429E+03  0.000000000E+00  0.00000E+00  9.000E+00
      25     1     1     2     0     0  5.882085329E+02 -7.448931658E+01 -3.259634013E+02  6.880516517E+02  1.250000000E+02  0.00000E+00  9.000E+00
      25     1     1     2     0     0 -5.375054229E+02  3.958201773E+01 -7.294118888E+02  9.155028778E+02  1.250000000E+02  0.00000E+00  9.000E+00
      21     1     1     2   501   511 -5.070310993E+01  3.490729885E+01 -2.187599459E+01  6.532904414E+01  2.384185791E-07  0.00000E+00  9.000E+00
#rwgt            1           1   3.0880579841670308E-002           5      296064           0
</event>
<event>
      5   9999  3.19816E-02  8.74851E+00 -1.00000E+00  2.02718E-01
      21    -1     0     0   502   512  0.000000000E+00  0.000000000E+00  2.291628157E+02  2.291628157E+02  0.000000000E+00  0.00000E+00  9.000E+00
      21    -1     0     0   501   502  0.000000000E+00  0.000000000E+00 -5.326300959E+02  5.326300959E+02  0.000000000E+00  0.00000E+00  9.000E+00
      25     1     1     2     0     0 -2.479771282E+02  1.711038509E+02 -3.564478902E+01  3.281230484E+02  1.250000000E+02  0.00000E+00  9.000E+00
      25     1     1     2     0     0  2.410940668E+02 -1.657038648E+02 -2.763886106E+02  4.214258937E+02  1.250000000E+02  0.00000E+00  9.000E+00
      21     1     1     2   501   512  6.883061467E+00 -5.399986152E+00  8.566119470E+00  1.224396947E+01  0.000000000E+00  0.00000E+00  9.000E+00
#rwgt            1           1   3.2710615564898661E-002           5      296196           0
</event>
<event>
      5   9999  3.19816E-02  1.22489E+02 -1.00000E+00  1.19991E-01
      21    -1     0     0   502   501  0.000000000E+00  0.000000000E+00  1.030292622E+03  1.030292622E+03  0.000000000E+00  0.00000E+00  9.000E+00
      21    -1     0     0   511   502  0.000000000E+00  0.000000000E+00 -2.554162002E+02  2.554162002E+02  0.000000000E+00  0.00000E+00  9.000E+00
      25     1     1     2     0     0 -3.098450281E+02 -2.587501543E+02  1.349820599E+02  4.436222946E+02  1.250000000E+02  0.00000E+00  9.000E+00
      25     1     1     2     0     0  3.127467390E+02  1.362951377E+02  6.191041812E+02  7.178452999E+02  1.250000000E+02  0.00000E+00  9.000E+00
      21     1     1     2   511   501 -2.901710875E+00  1.224550167E+02  2.079018055E+01  1.242412276E+02  4.768371582E-07  0.00000E+00  9.000E+00
#rwgt            1           1   2.5971985886937058E-002           5      296396           0
</event>
<event>
      5   9999  3.19816E-02  4.43902E+01 -1.00000E+00  1.42090E-01
      21    -1     0     0   502   501  0.000000000E+00  0.000000000E+00  9.417814405E+02  9.417814405E+02  0.000000000E+00  0.00000E+00  9.000E+00
       2    -1     0     0   501     0  0.000000000E+00  0.000000000E+00 -7.982946669E+02  7.982946669E+02  0.000000000E+00  0.00000E+00  9.000E+00
      25     1     1     2     0     0 -3.627256449E+01  4.664283073E+02  3.480602025E+02  5.963572497E+02  1.250000000E+02  0.00000E+00  9.000E+00
      25     1     1     2     0     0 -6.335781153E+00 -4.539775249E+02  3.503980519E+02  5.869748972E+02  1.250000000E+02  0.00000E+00  9.000E+00
       2     1     1     2   502     0  4.260834564E+01 -1.245078240E+01 -5.549714807E+02  5.567439605E+02  0.000000000E+00  0.00000E+00  9.000E+00
#rwgt            1           1   2.9316216922862248E-002           5      296470           0
</event>
<event>
      5   9999  3.19816E-02  1.20079E+02 -1.00000E+00  1.20356E-01
       2    -1     0     0   502     0  0.000000000E+00  0.000000000E+00  5.662897369E+02  5.662897369E+02  0.000000000E+00  0.00000E+00  9.000E+00
      21    -1     0     0   501   502  0.000000000E+00  0.000000000E+00 -2.851160781E+02  2.851160781E+02  0.000000000E+00  0.00000E+00  9.000E+00
      25     1     1     2     0     0 -1.625746329E+02  1.359193877E+02  5.035782846E+00  2.460791546E+02  1.250000000E+02  0.00000E+00  9.000E+00
      25     1     1     2     0     0  1.313157553E+02 -1.998028924E+01 -1.017239295E+02  2.088439546E+02  1.250000000E+02  0.00000E+00  9.000E+00
       2     1     1     2   501     0  3.125887760E+01 -1.159390985E+02  3.778618055E+02  3.964827058E+02  0.000000000E+00  0.00000E+00  9.000E+00
#rwgt            1           1   2.9145965830214539E-002           5      296611           0
</event>
<event>
      5   9999  3.19816E-02  1.98712E+01 -1.00000E+00  1.66601E-01
      21    -1     0     0   511   501  0.000000000E+00  0.000000000E+00  4.246779699E+02  4.246779699E+02  0.000000000E+00  0.00000E+00  9.000E+00
      21    -1     0     0   501   502  0.000000000E+00  0.000000000E+00 -8.237643921E+01  8.237643921E+01  0.000000000E+00  0.00000E+00  9.000E+00
      25     1     1     2     0     0  7.846366483E+01 -3.814252473E+01  4.484335156E+01  1.588940687E+02  1.250000000E+02  0.00000E+00  9.000E+00
      25     1     1     2     0     0 -8.925660673E+01  2.145783314E+01  2.267568337E+02  2.747195699E+02  1.250000000E+02  0.00000E+00  9.000E+00
      21     1     1     2   511   502  1.079294190E+01  1.668469159E+01  7.070134546E+01  7.344077054E+01  1.348699152E-06  0.00000E+00  9.000E+00
#rwgt            1           1   2.8718311331597544E-002           5      296680           0
</event>
<event>
      5   9999  3.19816E-02  3.67371E+01 -1.00000E+00  1.47170E-01
      21    -1     0     0   502   501  0.000000000E+00  0.000000000E+00  3.226984045E+02  3.226984045E+02  0.000000000E+00  0.00000E+00  9.000E+00
      21    -1     0     0   512   502  0.000000000E+00  0.000000000E+00 -4.998078053E+02  4.998078053E+02  0.000000000E+00  0.00000E+00  9.000E+00
      25     1     1     2     0     0  1.836319813E+02  2.117270276E+02 -1.987755969E+01  3.075209849E+02  1.250000000E+02  0.00000E+00  9.000E+00
      25     1     1     2     0     0 -1.560871753E+02 -1.874186431E+02  7.156424134E+01  2.832585298E+02  1.250000000E+02  0.00000E+00  9.000E+00
      21     1     1     2   512   501 -2.754480607E+01 -2.430838451E+01 -2.287960824E+02  2.317266951E+02  0.000000000E+00  0.00000E+00  9.000E+00
#rwgt            1           1   2.8456884013732558E-002           5      296816           0
</event>
<event>
      5   9999  3.19816E-02  2.74917E+01 -1.00000E+00  1.55721E-01
      21    -1     0     0   502   501  0.000000000E+00  0.000000000E+00  1.297552553E+03  1.297552553E+03  0.000000000E+00  0.00000E+00  9.000E+00
      21    -1     0     0   501   511  0.000000000E+00  0.000000000E+00 -7.938193273E+01  7.938193273E+01  0.000000000E+00  0.00000E+00  9.000E+00
      25     1     1     2     0     0 -1.949425286E+02  1.918631220E+02  8.152954575E+02  8.689912141E+02  1.250000000E+02  0.00000E+00  9.000E+00
      25     1     1     2     0     0  1.873674066E+02 -1.654356273E+02  3.825393196E+02  4.737476363E+02  1.250000000E+02  0.00000E+00  9.000E+00
      21     1     1     2   502   511  7.575121997E+00 -2.642749474E+01  2.033584278E+01  3.419563500E+01  5.840038640E-07  0.00000E+00  9.000E+00
#rwgt            1           1   3.1581797840847220E-002           5      296912           0
</event>
<event>
      5   9999  3.19816E-02  9.67432E+00 -1.00000E+00  1.97434E-01
      21    -1     0     0   502   512  0.000000000E+00  0.000000000E+00  3.944781463E+02  3.944781463E+02  0.000000000E+00  0.00000E+00  9.000E+00
      21    -1     0     0   501   502  0.000000000E+00  0.000000000E+00 -9.837337703E+01  9.837337703E+01  0.000000000E+00  0.00000E+00  9.000E+00
      25     1     1     2     0     0 -8.239903440E+01 -1.613325088E+01  1.060664523E+02  1.841873366E+02  1.250000000E+02  0.00000E+00  9.000E+00
      25     1     1     2     0     0  8.498650665E+01  6.811372647E+00  3.758756906E+01  1.559067877E+02  1.250000000E+02  0.00000E+00  9.000E+00
      21     1     1     2   501   512 -2.587472251E+00  9.321878238E+00  1.524507478E+02  1.527573990E+02  1.907348633E-06  0.00000E+00  9.000E+00
#rwgt            1           1   8.1895551008513104E-002           5      297078           0
</event>
<event>
      5   9999  3.19816E-02  2.38798E+01 -1.00000E+00  1.60257E-01
      21    -1     0     0   502   501  0.000000000E+00  0.000000000E+00  8.593137140E+01  8.593137140E+01  0.000000000E+00  0.00000E+00  9.000E+00
      21    -1     0     0   501   511  0.000000000E+00  0.000000000E+00 -1.451628926E+03  1.451628926E+03  0.000000000E+00  0.00000E+00  9.000E+00
      25     1     1     2     0     0 -9.674775044E+01  2.216309907E+02 -2.244766411E+02  3.528387531E+02  1.250000000E+02  0.00000E+00  9.000E+00
      25     1     1     2     0     0  9.216093300E+01 -2.450661240E+02 -1.093836707E+03  1.131660189E+03  1.250000000E+02  0.00000E+00  9.000E+00
      21     1     1     2   502   511  4.586817441E+00  2.343513324E+01 -4.738420649E+01  5.306135495E+01  6.743495762E-07  0.00000E+00  9.000E+00
#rwgt            1           1   2.7584689015171481E-002           5      297312           0
</event>
<event>
      5   9999  3.19816E-02  5.03643E+00 -1.00000E+00  2.37967E-01
       2    -1     0     0   502     0  0.000000000E+00  0.000000000E+00  6.339772909E+02  6.339772909E+02  0.000000000E+00  0.00000E+00  9.000E+00
      21    -1     0     0   501   502  0.000000000E+00  0.000000000E+00 -3.323758688E+02  3.323758688E+02  0.000000000E+00  0.00000E+00  9.000E+00
      25     1     1     2     0     0  1.191106961E+02  1.318593695E+02 -5.178600207E+01  2.233406395E+02  1.250000000E+02  0.00000E+00  9.000E+00
      25     1     1     2     0     0 -1.237078096E+02 -1.339165911E+02 -1.320910616E+02  2.575079107E+02  1.250000000E+02  0.00000E+00  9.000E+00
       2     1     1     2   501     0  4.597113520E+00  2.057221575E+00  4.854784858E+02  4.855046094E+02  5.394796609E-06  0.00000E+00  9.000E+00
#rwgt            1           1   2.9690549043995106E-002           5      297436           0
</event>
<event>
      5   9999  3.19816E-02  2.58525E+01 -1.00000E+00  1.57668E-01
      21    -1     0     0   502   511  0.000000000E+00  0.000000000E+00  3.079830293E+02  3.079830293E+02  0.000000000E+00  0.00000E+00  9.000E+00
      21    -1     0     0   501   502  0.000000000E+00  0.000000000E+00 -2.256264586E+02  2.256264586E+02  0.000000000E+00  0.00000E+00  9.000E+00
      25     1     1     2     0     0  1.754472144E+02  6.601662517E+00 -5.433477380E+01  2.222668995E+02  1.250000000E+02  0.00000E+00  9.000E+00
      25     1     1     2     0     0 -1.866585909E+02  1.669338374E+01  6.398636874E+01  2.341780391E+02  1.250000000E+02  0.00000E+00  9.000E+00
      21     1     1     2   501   511  1.121137656E+01 -2.329504626E+01  7.270497578E+01  7.716454916E+01  1.348699152E-06  0.00000E+00  9.000E+00
#rwgt            1           1   2.4376804455298783E-002           5      297689           0
</event>
<event>
      5   9999  3.19816E-02  1.98467E+01 -1.00000E+00  1.66645E-01
      21    -1     0     0   502   501  0.000000000E+00  0.000000000E+00  8.722068991E+02  8.722068991E+02  0.000000000E+00  0.00000E+00  9.000E+00
      21    -1     0     0   501   512  0.000000000E+00  0.000000000E+00 -1.126777280E+02  1.126777280E+02  0.000000000E+00  0.00000E+00  9.000E+00
      25     1     1     2     0     0 -2.086767308E+01  2.402436572E+02  1.959081570E+02  3.348992096E+02  1.250000000E+02  0.00000E+00  9.000E+00
      25     1     1     2     0     0  3.924799980E+01 -2.327566034E+02  5.697195352E+02  6.292228467E+02  1.250000000E+02  0.00000E+00  9.000E+00
      21     1     1     2   502   512 -1.838032672E+01 -7.487053830E+00 -6.098521213E+00  2.076257080E+01  4.298152060E-07  0.00000E+00  9.000E+00
#rwgt            1           1   2.7272249232509260E-002           5      297799           0
</event>
<event>
      5   9999  3.19816E-02  5.27445E+01 -1.00000E+00  1.37764E-01
      21    -1     0     0   511   501  0.000000000E+00  0.000000000E+00  2.176909106E+03  2.176909106E+03  0.000000000E+00  0.00000E+00  9.000E+00
      21    -1     0     0   501   502  0.000000000E+00  0.000000000E+00 -6.402019212E+02  6.402019212E+02  0.000000000E+00  0.00000E+00  9.000E+00
      25     1     1     2     0     0  6.258777688E+02 -8.735855054E+02  7.102345430E+02  1.294191919E+03  1.250000000E+02  0.00000E+00  9.000E+00
      25     1     1     2     0     0 -6.592350287E+02  9.144422229E+02  5.858312461E+02  1.276565177E+03  1.250000000E+02  0.00000E+00  9.000E+00
      21     1     1     2   511   502  3.335725991E+01 -4.085671749E+01  2.406413954E+02  2.463539311E+02  4.672030912E-06  0.00000E+00  9.000E+00
#rwgt            1           1   2.9783910717592052E-002           5      297938           0
</event>
<event>
      5   9999  3.19816E-02  3.07079E+01 -1.00000E+00  1.52340E-01
      21    -1     0     0   502   512  0.000000000E+00  0.000000000E+00  1.061080942E+03  1.061080942E+03  0.000000000E+00  0.00000E+00  9.000E+00
      21    -1     0     0   501   502  0.000000000E+00  0.000000000E+00 -1.536993649E+02  1.536993649E+02  0.000000000E+00  0.00000E+00  9.000E+00
      25     1     1     2     0     0  2.228526030E+02  3.613784041E+00  7.872099856E+02  8.276478136E+02  1.250000000E+02  0.00000E+00  9.000E+00
      25     1     1     2     0     0 -2.075771942E+02 -3.025274333E+01 -1.870171382E+01  2.449046226E+02  1.250000000E+02  0.00000E+00  9.000E+00
      21     1     1     2   501   512 -1.527540871E+01  2.663895929E+01  1.388733051E+02  1.422278705E+02  1.907348633E-06  0.00000E+00  9.000E+00
#rwgt            1           1   3.2711663258341434E-002           5      298124           0
</event>
<event>
      5   9999  3.19816E-02  2.42375E+01 -1.00000E+00  1.59765E-01
      21    -1     0     0   511   501  0.000000000E+00  0.000000000E+00  7.812974228E+02  7.812974228E+02  0.000000000E+00  0.00000E+00  9.000E+00
      21    -1     0     0   501   502  0.000000000E+00  0.000000000E+00 -8.394857246E+01  8.394857246E+01  0.000000000E+00  0.00000E+00  9.000E+00
      25     1     1     2     0     0 -8.436844817E+01  1.360286099E+02  1.223650496E+02  2.371076193E+02  1.250000000E+02  0.00000E+00  9.000E+00
      25     1     1     2     0     0  1.084991025E+02 -1.337555113E+02  4.155413227E+02  4.668642018E+02  1.250000000E+02  0.00000E+00  9.000E+00
      21     1     1     2   511   502 -2.413065436E+01 -2.273098599E+00  1.594424781E+02  1.612741742E+02  1.907348633E-06  0.00000E+00  9.000E+00
#rwgt            1           1   2.3530056354917981E-002           5      298218           0
</event>
<event>
      5   9999  3.19816E-02  3.86052E+02 -1.00000E+00  1.02151E-01
      21    -1     0     0   502   501  0.000000000E+00  0.000000000E+00  7.326547323E+02  7.326547323E+02  0.000000000E+00  0.00000E+00  9.000E+00
       1    -1     0     0   501     0  0.000000000E+00  0.000000000E+00 -1.275297772E+03  1.275297772E+03  0.000000000E+00  0.00000E+00  9.000E+00
      25     1     1     2     0     0 -2.006520470E+02  1.650809136E+01  1.029041787E+02  2.583564031E+02  1.250000000E+02  0.00000E+00  9.000E+00
      25     1     1     2     0     0  2.869355194E+02 -3.927938973E+02  3.955035009E+02  6.392707230E+02  1.250000000E+02  0.00000E+00  9.000E+00
       1     1     1     2   502     0 -8.628347241E+01  3.762858059E+02 -1.041050719E+03  1.110325378E+03  1.525878906E-05  0.00000E+00  9.000E+00
#rwgt            2          12   1.5245049903441091E-003           5      298457           0
</event>
<event>
      5   9999  3.19816E-02  2.42498E+02 -1.00000E+00  1.08684E-01
      21    -1     0     0   502   501  0.000000000E+00  0.000000000E+00  1.734672871E+03  1.734672871E+03  0.000000000E+00  0.00000E+00  9.000E+00
      21    -1     0     0   511   502  0.000000000E+00  0.000000000E+00 -2.944846880E+02  2.944846880E+02  0.000000000E+00  0.00000E+00  9.000E+00
      25     1     1     2     0     0  2.641630440E+02  2.755799410E+02  1.460404963E+03  1.514639916E+03  1.250000000E+02  0.00000E+00  9.000E+00
      25     1     1     2     0     0 -1.549102000E+02 -5.908775447E+01  1.144967645E+02  2.371139850E+02  1.250000000E+02  0.00000E+00  9.000E+00
      21     1     1     2   511   501 -1.092528441E+02 -2.164921865E+02 -1.347135445E+02  2.774036586E+02  3.814697266E-06  0.00000E+00  9.000E+00
#rwgt            1           1   3.0377772308989914E-002           5      298506           0
</event>
<event>
      5   9999  3.19816E-02  5.06437E+00 -1.00000E+00  2.37550E-01
      21    -1     0     0   502   501  0.000000000E+00  0.000000000E+00  6.435572557E+01  6.435572557E+01  0.000000000E+00  0.00000E+00  9.000E+00
      21    -1     0     0   501   512  0.000000000E+00  0.000000000E+00 -5.321916731E+02  5.321916731E+02  0.000000000E+00  0.00000E+00  9.000E+00
      25     1     1     2     0     0 -1.115803769E+02  8.115709318E+00 -1.103707223E+02  2.008052329E+02  1.250000000E+02  0.00000E+00  9.000E+00
      25     1     1     2     0     0  1.065448343E+02 -7.576160528E+00 -3.420429683E+02  3.795096732E+02  1.250000000E+02  0.00000E+00  9.000E+00
      21     1     1     2   502   512  5.035542577E+00 -5.395487906E-01 -1.542225701E+01  1.623249252E+01  0.000000000E+00  0.00000E+00  9.000E+00
#rwgt            1           1   2.4407051639004834E-002           5      298542           0
</event>
<event>
      5   9999  3.19816E-02  2.97866E+01 -1.00000E+00  1.53256E-01
      21    -1     0     0   502   501  0.000000000E+00  0.000000000E+00  4.164466372E+02  4.164466372E+02  0.000000000E+00  0.00000E+00  9.000E+00
      21    -1     0     0   511   502  0.000000000E+00  0.000000000E+00 -1.911475791E+02  1.911475791E+02  0.000000000E+00  0.00000E+00  9.000E+00
      25     1     1     2     0     0 -1.791036977E+02 -8.451734581E+01 -1.368067333E+01  2.345921505E+02  1.250000000E+02  0.00000E+00  9.000E+00
      25     1     1     2     0     0  2.065673751E+02  7.298541624E+01  2.313258525E+02  3.422478655E+02  1.250000000E+02  0.00000E+00  9.000E+00
      21     1     1     2   511   501 -2.746367740E+01  1.153192957E+01  7.653878902E+00  3.075420033E+01  3.264680848E-07  0.00000E+00  9.000E+00
#rwgt            1           1   2.9795000555977672E-002           5      298784           0
</event>
<event>
      5   9999  3.19816E-02  1.72128E+02 -1.00000E+00  1.14073E-01
      21    -1     0     0   502   501  0.000000000E+00  0.000000000E+00  7.427857348E+02  7.427857348E+02  0.000000000E+00  0.00000E+00  9.000E+00
      21    -1     0     0   512   502  0.000000000E+00  0.000000000E+00 -3.221854757E+02  3.221854757E+02  0.000000000E+00  0.00000E+00  9.000E+00
      25     1     1     2     0     0  3.158943458E+02  2.456423063E+02  3.133097503E+02  5.233711685E+02  1.250000000E+02  0.00000E+00  9.000E+00
      25     1     1     2     0     0 -1.543520989E+02 -1.862115965E+02  2.075997143E+02  3.423769421E+02  1.250000000E+02  0.00000E+00  9.000E+00
      21     1     1     2   512   501 -1.615422469E+02 -5.943070987E+01 -1.003092056E+02  1.992230999E+02  1.348699152E-06  0.00000E+00  9.000E+00
#rwgt            2          11   3.7808183014303430E-003           5      298962           0
</event>
<event>
      5   9999  3.19816E-02  9.52416E+01 -1.00000E+00  1.24788E-01
      21    -1     0     0   502   511  0.000000000E+00  0.000000000E+00  1.137581633E+03  1.137581633E+03  0.000000000E+00  0.00000E+00  9.000E+00
      21    -1     0     0   501   502  0.000000000E+00  0.000000000E+00 -4.617275149E+02  4.617275149E+02  0.000000000E+00  0.00000E+00  9.000E+00
      25     1     1     2     0     0 -2.551981922E+02 -5.124957923E+02 -7.973990683E+01  5.914063807E+02  1.250000000E+02  0.00000E+00  9.000E+00
      25     1     1     2     0     0  3.217451007E+02  4.443600837E+02  5.796429343E+02  8.078284008E+02  1.250000000E+02  0.00000E+00  9.000E+00
      21     1     1     2   501   511 -6.654690857E+01  6.813570861E+01  1.759510906E+02  2.000743664E+02  0.000000000E+00  0.00000E+00  9.000E+00
#rwgt            1           1   3.2481393280552218E-002           5      298997           0
</event>
<event>
      5   9999  3.19816E-02  2.08709E+01 -1.00000E+00  1.64856E-01
      21    -1     0     0   512   501  0.000000000E+00  0.000000000E+00  5.964665287E+02  5.964665287E+02  0.000000000E+00  0.00000E+00  9.000E+00
      21    -1     0     0   501   502  0.000000000E+00  0.000000000E+00 -1.167676834E+02  1.167676834E+02  0.000000000E+00  0.00000E+00  9.000E+00
      25     1     1     2     0     0  1.332101490E+02  1.683958702E+02  1.343287480E+02  2.824381799E+02  1.250000000E+02  0.00000E+00  9.000E+00
      25     1     1     2     0     0 -1.205232077E+02 -1.518237664E+02  2.833640811E+02  3.653717314E+02  1.250000000E+02  0.00000E+00  9.000E+00
      21     1     1     2   512   502 -1.268694122E+01 -1.657210385E+01  6.200601615E+01  6.542430085E+01  9.536743164E-07  0.00000E+00  9.000E+00
#rwgt            1           1   2.8560478435644226E-002           5      299134           0
</event>
<event>
      5   9999  3.19816E-02  2.81587E+01 -1.00000E+00  1.54975E-01
      21    -1     0     0   502   501  0.000000000E+00  0.000000000E+00  1.022693454E+03  1.022693454E+03  0.000000000E+00  0.00000E+00  9.000E+00
      21    -1     0     0   511   502  0.000000000E+00  0.000000000E+00 -2.203806607E+02  2.203806607E+02  0.000000000E+00  0.00000E+00  9.000E+00
      25     1     1     2     0     0  3.949378112E+02 -1.570271685E+02  2.013350884E+02  4.866150678E+02  1.250000000E+02  0.00000E+00  9.000E+00
      25     1     1     2     0     0 -3.672895466E+02  1.516902083E+02  5.970693519E+02  7.280304536E+02  1.250000000E+02  0.00000E+00  9.000E+00
      21     1     1     2   511   501 -2.764826459E+01  5.336960282E+00  3.908352669E+00  2.842859301E+01  5.092623082E-07  0.00000E+00  9.000E+00
#rwgt            1           1   2.3428791853724130E-002           5      299273           0
</event>
<event>
      5   9999  3.19816E-02  6.48072E+01 -1.00000E+00  1.32939E-01
      21    -1     0     0   502   501  0.000000000E+00  0.000000000E+00  8.027950104E+02  8.027950104E+02  0.000000000E+00  0.00000E+00  9.000E+00
      21    -1     0     0   501   512  0.000000000E+00  0.000000000E+00 -7.189473640E+02  7.189473640E+02  0.000000000E+00  0.00000E+00  9.000E+00
      25     1     1     2     0     0 -5.305267335E+02  2.260048678E+02  3.185378694E+02  6.705432048E+02  1.250000000E+02  0.00000E+00  9.000E+00
      25     1     1     2     0     0  4.966530861E+02 -2.812547281E+02  2.373596956E+01  5.847708152E+02  1.250000000E+02  0.00000E+00  9.000E+00
      21     1     1     2   502   512  3.387364735E+01  5.524986028E+01 -2.584261926E+02  2.664283545E+02  0.000000000E+00  0.00000E+00  9.000E+00
#rwgt            1           1   2.9431817217966848E-002           5      299446           0
</event>
<event>
      5   9999  3.19816E-02  1.85303E+02 -1.00000E+00  1.12868E-01
       1    -1     0     0   502     0  0.000000000E+00  0.000000000E+00  2.690710542E+03  2.690710542E+03  0.000000000E+00  0.00000E+00  9.000E+00
      21    -1     0     0   501   502  0.000000000E+00  0.000000000E+00 -1.356821775E+02  1.356821775E+02  0.000000000E+00  0.00000E+00  9.000E+00
      25     1     1     2     0     0 -1.474092729E+02  2.630108767E+01 -3.490202267E+01  1.981524467E+02  1.250000000E+02  0.00000E+00  9.000E+00
      25     1     1     2     0     0  8.668196429E+01 -2.013705376E+02  1.219515494E+03  1.245354125E+03  1.250000000E+02  0.00000E+00  9.000E+00
       1     1     1     2   501     0  6.072730859E+01  1.750694499E+02  1.370414894E+03  1.382886149E+03  1.525878906E-05  0.00000E+00  9.000E+00
#rwgt            1           1   3.3452274849340928E-002           5      299530           0
</event>
<event>
      5   9999  3.19816E-02  1.97333E+02 -1.00000E+00  1.11861E-01
      21    -1     0     0   511   501  0.000000000E+00  0.000000000E+00  1.050569099E+03  1.050569099E+03  0.000000000E+00  0.00000E+00  9.000E+00
      21    -1     0     0   501   502  0.000000000E+00  0.000000000E+00 -3.741249013E+02  3.741249013E+02  0.000000000E+00  0.00000E+00  9.000E+00
      25     1     1     2     0     0  1.781877585E+02 -2.811998537E+01 -2.277216502E+02  3.162653330E+02  1.250000000E+02  0.00000E+00  9.000E+00
      25     1     1     2     0     0 -2.977943083E+02  1.850746085E+02  3.167843555E+02  4.887856265E+02  1.250000000E+02  0.00000E+00  9.000E+00
      21     1     1     2   511   502  1.196065498E+02 -1.569546231E+02  5.873814920E+02  6.196430405E+02  7.629394531E-06  0.00000E+00  9.000E+00
#rwgt            1           1   2.7890156512706814E-002           5      299601           0
</event>
<event>
      5   9999  3.19816E-02  2.79672E+02 -1.00000E+00  1.06592E-01
      21    -1     0     0   502   501  0.000000000E+00  0.000000000E+00  1.604834396E+03  1.604834396E+03  0.000000000E+00  0.00000E+00  9.000E+00
      21    -1     0     0   501   512  0.000000000E+00  0.000000000E+00 -5.694002944E+02  5.694002944E+02  0.000000000E+00  0.00000E+00  9.000E+00
      25     1     1     2     0     0 -1.078996269E+02  2.551917971E+02  1.077579953E+03  1.119628840E+03  1.250000000E+02  0.00000E+00  9.000E+00
      25     1     1     2     0     0 -1.264494846E+02 -4.078248254E+02  3.547868030E+02  5.690423850E+02  1.250000000E+02  0.00000E+00  9.000E+00
      21     1     1     2   502   512  2.343491114E+02  1.526330282E+02 -3.969326544E+02  4.855634660E+02  5.394796609E-06  0.00000E+00  9.000E+00
#rwgt            1           1   2.9311135465651100E-002           5      299675           0
</event>
<event>
      5   9999  3.19816E-02  1.55742E+02 -1.00000E+00  1.15751E-01
      21    -1     0     0   511   501  0.000000000E+00  0.000000000E+00  1.920144925E+03  1.920144925E+03  0.000000000E+00  0.00000E+00  9.000E+00
      21    -1     0     0   501   502  0.000000000E+00  0.000000000E+00 -9.624932788E+02  9.624932788E+02  0.000000000E+00  0.00000E+00  9.000E+00
      25     1     1     2     0     0  8.386284125E+02  1.375117296E+02 -5.516109441E+02  1.020836286E+03  1.250000000E+02  0.00000E+00  9.000E+00
      25     1     1     2     0     0 -7.054189876E+02 -2.182017776E+02  6.595284778E+02  9.979132111E+02  1.250000000E+02  0.00000E+00  9.000E+00
      21     1     1     2   511   502 -1.332094249E+02  8.069004805E+01  8.497341126E+02  8.638887063E+02  1.078959322E-05  0.00000E+00  9.000E+00
#rwgt            2          11   2.4273855213125966E-003           5      299813           0
</event>
<event>
      5   9999  3.19816E-02  1.34179E+02 -1.00000E+00  1.18345E-01
      21    -1     0     0   502   501  0.000000000E+00  0.000000000E+00  6.143181106E+01  6.143181106E+01  0.000000000E+00  0.00000E+00  9.000E+00
      21    -1     0     0   501   512  0.000000000E+00  0.000000000E+00 -1.462673924E+03  1.462673924E+03  0.000000000E+00  0.00000E+00  9.000E+00
      25     1     1     2     0     0 -8.066606129E+01  1.938697963E+01 -5.424178849E+02  5.627832889E+02  1.250000000E+02  0.00000E+00  9.000E+00
      25     1     1     2     0     0 -2.467620520E+01 -1.024956353E+02 -1.020661489E+02  1.927609118E+02  1.250000000E+02  0.00000E+00  9.000E+00
      21     1     1     2   502   512  1.053422665E+02  8.310865568E+01 -7.567580795E+02  7.685615348E+02  1.078959322E-05  0.00000E+00  9.000E+00
#rwgt            1           1   3.0342208457367188E-002           5      299833           0
</event>
<event>
      5   9999  3.19816E-02  5.36886E+01 -1.00000E+00  1.37334E-01
      21    -1     0     0   502   501  0.000000000E+00  0.000000000E+00  1.982575910E+02  1.982575910E+02  0.000000000E+00  0.00000E+00  9.000E+00
      21    -1     0     0   511   502  0.000000000E+00  0.000000000E+00 -2.221999330E+02  2.221999330E+02  0.000000000E+00  0.00000E+00  9.000E+00
      25     1     1     2     0     0 -1.247168709E+01 -1.382160322E+02  2.490134550E+01  1.884258250E+02  1.250000000E+02  0.00000E+00  9.000E+00
      25     1     1     2     0     0 -4.421715051E+00  8.725447284E+01  9.429216941E+00  1.527966123E+02  1.250000000E+02  0.00000E+00  9.000E+00
      21     1     1     2   511   501  1.689340215E+01  5.096155932E+01 -5.827290449E+01  7.923508669E+01  1.348699152E-06  0.00000E+00  9.000E+00
#rwgt            1           1   3.4642852626493234E-002           5      299888           0
</event>
<event>
      5   9999  3.19816E-02  1.18791E+01 -1.00000E+00  1.87491E-01
      21    -1     0     0   502   501  0.000000000E+00  0.000000000E+00  2.182406930E+02  2.182406930E+02  0.000000000E+00  0.00000E+00  9.000E+00
      21    -1     0     0   501   512  0.000000000E+00  0.000000000E+00 -5.505197431E+02  5.505197431E+02  0.000000000E+00  0.00000E+00  9.000E+00
      25     1     1     2     0     0 -7.888030684E+01  1.841842041E+02  7.830767324E+00  2.362884778E+02  1.250000000E+02  0.00000E+00  9.000E+00
      25     1     1     2     0     0  6.726234967E+01 -1.866614611E+02 -4.705633119E+01  2.391778064E+02  1.250000000E+02  0.00000E+00  9.000E+00
      21     1     1     2   502   512  1.161795717E+01  2.477257019E+00 -2.930534863E+02  2.932941519E+02  5.394796609E-06  0.00000E+00  9.000E+00
#rwgt            1           1   2.4279139217524094E-002           5      299982           0
</event>
<event>
      5   9999  3.19816E-02  8.00542E+01 -1.00000E+00  1.28335E-01
      21    -1     0     0   502   501  0.000000000E+00  0.000000000E+00  1.884126333E+02  1.884126333E+02  0.000000000E+00  0.00000E+00  9.000E+00
      21    -1     0     0   501   511  0.000000000E+00  0.000000000E+00 -4.327496875E+02  4.327496875E+02  0.000000000E+00  0.00000E+00  9.000E+00
      25     1     1     2     0     0  1.669042748E+02  1.300635440E+02 -1.328721280E+02  2.793806808E+02  1.250000000E+02  0.00000E+00  9.000E+00
      25     1     1     2     0     0 -1.695542360E+02 -5.005319319E+01 -1.587371653E+01  2.170966052E+02  1.250000000E+02  0.00000E+00  9.000E+00
      21     1     1     2   502   511  2.649961229E+00 -8.001035077E+01 -9.559120972E+01  1.246850348E+02  1.348699152E-06  0.00000E+00  9.000E+00
#rwgt            1           1   3.0784075321865754E-002           5      300164           0
</event>
<event>
      5   9999  3.19816E-02  6.15250E+01 -1.00000E+00  1.34123E-01
      21    -1     0     0   502   501  0.000000000E+00  0.000000000E+00  4.661392846E+02  4.661392846E+02  0.000000000E+00  0.00000E+00  9.000E+00
      21    -1     0     0   512   502  0.000000000E+00  0.000000000E+00 -9.097933032E+02  9.097933032E+02  0.000000000E+00  0.00000E+00  9.000E+00
      25     1     1     2     0     0 -7.073884331E+01  5.324626760E+02  2.103667807E+01  5.518949421E+02  1.250000000E+02  0.00000E+00  9.000E+00
      25     1     1     2     0     0  3.305688136E+01 -5.810980491E+02 -3.414184127E+02  6.862646957E+02  1.250000000E+02  0.00000E+00  9.000E+00
      21     1     1     2   512   501  3.768196195E+01  4.863537314E+01 -1.232722840E+02  1.377729501E+02  1.348699152E-06  0.00000E+00  9.000E+00
#rwgt            1           1   2.7924474386371897E-002           5      300242           0
</event>
<event>
      5   9999  3.19816E-02  8.77228E+01 -1.00000E+00  1.26442E-01
      21    -1     0     0   511   501  0.000000000E+00  0.000000000E+00  5.648744701E+02  5.648744701E+02  0.000000000E+00  0.00000E+00  9.000E+00
      21    -1     0     0   501   502  0.000000000E+00  0.000000000E+00 -1.300100933E+03  1.300100933E+03  0.000000000E+00  0.00000E+00  9.000E+00
      25     1     1     2     0     0  1.733684845E+02  2.611207945E+02 -9.208879169E+02  9.807651382E+02  1.250000000E+02  0.00000E+00  9.000E+00
      25     1     1     2     0     0 -9.888844932E+01 -3.074674165E+02 -2.580622334E+02  4.318984301E+02  1.250000000E+02  0.00000E+00  9.000E+00
      21     1     1     2   511   502 -7.448003521E+01  4.634662203E+01  4.437236875E+02  4.523118347E+02  7.629394531E-06  0.00000E+00  9.000E+00
#rwgt            1           1   2.7818084011822883E-002           5      300363           0
</event>
<event>
      5   9999  3.19816E-02  6.46628E+01 -1.00000E+00  1.32989E-01
      21    -1     0     0   502   501  0.000000000E+00  0.000000000E+00  1.537571525E+02  1.537571525E+02  0.000000000E+00  0.00000E+00  9.000E+00
      21    -1     0     0   501   512  0.000000000E+00  0.000000000E+00 -1.041488112E+03  1.041488112E+03  0.000000000E+00  0.00000E+00  9.000E+00
      25     1     1     2     0     0  7.501485080E+01  5.357881809E+01 -3.267747813E+01  1.587158945E+02  1.250000000E+02  0.00000E+00  9.000E+00
      25     1     1     2     0     0 -7.033505794E+01  1.091445002E+01  3.180358430E+01  1.473180694E+02  1.250000000E+02  0.00000E+00  9.000E+00
      21     1     1     2   502   512 -4.679792857E+00 -6.449326811E+01 -8.868570660E+02  8.892113009E+02  0.000000000E+00  0.00000E+00  9.000E+00
#rwgt            1           1   5.0627057334656271E-002           5      300461           0
</event>
<event>
      5   9999  3.19816E-02  3.95704E+02 -1.00000E+00  1.01827E-01
      21    -1     0     0   511   501  0.000000000E+00  0.000000000E+00  5.178486557E+02  5.178486557E+02  0.000000000E+00  0.00000E+00  9.000E+00
      21    -1     0     0   501   502  0.000000000E+00  0.000000000E+00 -4.846361321E+02  4.846361321E+02  0.000000000E+00  0.00000E+00  9.000E+00
      25     1     1     2     0     0 -5.399040856E+01  9.638743878E+00 -1.225056784E+01  1.370508884E+02  1.250000000E+02  0.00000E+00  9.000E+00
      25     1     1     2     0     0  4.360927327E+02 -1.124966710E+02  2.469604978E+00  4.674007611E+02  1.250000000E+02  0.00000E+00  9.000E+00
      21     1     1     2   511   502 -3.821023242E+02  1.028579271E+02  4.299348643E+01  3.980331383E+02  4.498472754E-06  0.00000E+00  9.000E+00
#rwgt            2          11   2.9827590209564473E-003           5      300562           0
</event>
<event>
      5   9999  3.19816E-02  3.53687E+01 -1.00000E+00  1.48234E-01
      21    -1     0     0   502   512  0.000000000E+00  0.000000000E+00  2.251208357E+02  2.251208357E+02  0.000000000E+00  0.00000E+00  9.000E+00
      21    -1     0     0   501   502  0.000000000E+00  0.000000000E+00 -4.755336583E+02  4.755336583E+02  0.000000000E+00  0.00000E+00  9.000E+00
      25     1     1     2     0     0  1.350006156E+02 -9.953959754E+01 -8.262461556E+01  2.249113710E+02  1.250000000E+02  0.00000E+00  9.000E+00
      25     1     1     2     0     0 -1.047405397E+02  1.178499768E+02 -2.875011738E+02  3.509146943E+02  1.250000000E+02  0.00000E+00  9.000E+00
      21     1     1     2   501   512 -3.026007595E+01 -1.831037927E+01  1.197129668E+02  1.248284287E+02  1.348699152E-06  0.00000E+00  9.000E+00
#rwgt            1           1   2.8802618712870189E-002           5      300582           0
</event>
<event>
      5   9999  3.19816E-02  1.56530E+01 -1.00000E+00  1.75658E-01
      21    -1     0     0   502   501  0.000000000E+00  0.000000000E+00  5.624654280E+02  5.624654280E+02  0.000000000E+00  0.00000E+00  9.000E+00
      21    -1     0     0   501   511  0.000000000E+00  0.000000000E+00 -2.395674733E+02  2.395674733E+02  0.000000000E+00  0.00000E+00  9.000E+00
      25     1     1     2     0     0 -3.322830411E+02  2.323007307E+01  9.377545484E+01  3.679272912E+02  1.250000000E+02  0.00000E+00  9.000E+00
      25     1     1     2     0     0  3.253547189E+02 -3.726623220E+01  2.285248411E+02  4.184412362E+02  1.250000000E+02  0.00000E+00  9.000E+00
      21     1     1     2   502   511  6.928322136E+00  1.403615913E+01  5.976588373E-01  1.566437381E+01  2.486753355E-07  0.00000E+00  9.000E+00
#rwgt            1           1   2.7967231233350806E-002           5      300719           0
</event>
<event>
      5   9999  3.19816E-02  1.25120E+02 -1.00000E+00  1.19603E-01
       2    -1     0     0   502     0  0.000000000E+00  0.000000000E+00  1.963112008E+03  1.963112008E+03  0.000000000E+00  0.00000E+00  9.000E+00
      21    -1     0     0   501   502  0.000000000E+00  0.000000000E+00 -8.119078798E+02  8.119078798E+02  0.000000000E+00  0.00000E+00  9.000E+00
      25     1     1     2     0     0  7.088531340E+02 -2.477888828E+02  2.317395355E+02  7.957388443E+02  1.250000000E+02  0.00000E+00  9.000E+00
      25     1     1     2     0     0 -6.602038360E+02  3.630631946E+02 -2.496321497E+02  8.035080576E+02  1.250000000E+02  0.00000E+00  9.000E+00
       2     1     1     2   501     0 -4.864929797E+01 -1.152743118E+02  1.169096742E+03  1.175772986E+03  0.000000000E+00  0.00000E+00  9.000E+00
#rwgt            1           1   3.1340637577645630E-002           5      300915           0
</event>
<event>
      5   9999  3.19816E-02  6.12266E+01 -1.00000E+00  1.34235E-01
      21    -1     0     0   502   501  0.000000000E+00  0.000000000E+00  2.413819259E+02  2.413819259E+02  0.000000000E+00  0.00000E+00  9.000E+00
      21    -1     0     0   501   511  0.000000000E+00  0.000000000E+00 -8.886222508E+02  8.886222508E+02  0.000000000E+00  0.00000E+00  9.000E+00
      25     1     1     2     0     0  1.327266281E+02  3.204748504E+02 -8.473803814E+01  3.783200003E+02  1.250000000E+02  0.00000E+00  9.000E+00
      25     1     1     2     0     0 -9.086284288E+01 -2.757968362E+02 -1.789464919E+02  3.632723469E+02  1.250000000E+02  0.00000E+00  9.000E+00
      21     1     1     2   502   511 -4.186378520E+01 -4.467801417E+01 -3.835557949E+02  3.884118294E+02  0.000000000E+00  0.00000E+00  9.000E+00
#rwgt            1           1   3.2829639638252535E-002           5      300972           0
</event>
<event>
      5   9999  3.19816E-02  1.77314E+01 -1.00000E+00  1.70802E-01
      21    -1     0     0   502   501  0.000000000E+00  0.000000000E+00  2.320243600E+02  2.320243600E+02  0.000000000E+00  0.00000E+00  9.000E+00
      21    -1     0     0   501   512  0.000000000E+00  0.000000000E+00 -1.963497782E+02  1.963497782E+02  0.000000000E+00  0.00000E+00  9.000E+00
      25     1     1     2     0     0 -1.256676121E+02 -4.657920497E+01 -6.884251413E+01  1.957709448E+02  1.250000000E+02  0.00000E+00  9.000E+00
      25     1     1     2     0     0  1.152775953E+02  3.221088651E+01  1.187314876E+02  2.098776580E+02  1.250000000E+02  0.00000E+00  9.000E+00
      21     1     1     2   502   512  1.039001677E+01  1.436831846E+01 -1.421439168E+01  2.272553530E+01  2.384185791E-07  0.00000E+00  9.000E+00
#rwgt            1           1   2.5511377497358979E-002           5      301042           0
</event>
<event>
      5   9999  3.19816E-02  7.55701E+01 -1.00000E+00  1.29558E-01
      21    -1     0     0   502   511  0.000000000E+00  0.000000000E+00  8.585659481E+02  8.585659481E+02  0.000000000E+00  0.00000E+00  9.000E+00
      21    -1     0     0   501   502  0.000000000E+00  0.000000000E+00 -1.896670868E+03  1.896670868E+03  0.000000000E+00  0.00000E+00  9.000E+00
      25     1     1     2     0     0 -5.684681494E+02 -2.966410381E+02 -2.437285154E+02  6.972664710E+02  1.250000000E+02  0.00000E+00  9.000E+00
      25     1     1     2     0     0  5.136273102E+02  3.486345348E+02 -1.353214396E+03  1.494045934E+03  1.250000000E+02  0.00000E+00  9.000E+00
      21     1     1     2   501   511  5.484083925E+01 -5.199349675E+01  5.588379910E+02  5.639244112E+02  1.321449896E-05  0.00000E+00  9.000E+00
#rwgt            1           1   2.9449973327543139E-002           5      301123           0
</event>
<event>
      5   9999  3.19816E-02  1.33601E+02 -1.00000E+00  1.18422E-01
      -5    -1     0     0     0   501  0.000000000E+00  0.000000000E+00  5.463427265E+02  5.463427265E+02  0.000000000E+00  0.00000E+00  9.000E+00
      21    -1     0     0   501   502  0.000000000E+00  0.000000000E+00 -1.285455769E+02  1.285455769E+02  0.000000000E+00  0.00000E+00  9.000E+00
      25     1     1     2     0     0 -1.545775757E+02 -2.567990713E+01  1.280863187E+02  2.378755759E+02  1.250000000E+02  0.00000E+00  9.000E+00
      25     1     1     2     0     0  3.006933043E+01 -2.276550078E+01  1.485673713E+01  1.314083532E+02  1.250000000E+02  0.00000E+00  9.000E+00
      -5     1     1     2     0   502  1.245082453E+02  4.844540791E+01  2.748540938E+02  3.056043743E+02  3.814697266E-06  0.00000E+00  9.000E+00
#rwgt            1           1   6.6119708284632497E-002           5      301224           0
</event>
<event>
      5   9999  3.19816E-02  4.01693E+01 -1.00000E+00  1.44727E-01
      21    -1     0     0   502   501  0.000000000E+00  0.000000000E+00  9.303482314E+01  9.303482314E+01  0.000000000E+00  0.00000E+00  9.000E+00
      21    -1     0     0   511   502  0.000000000E+00  0.000000000E+00 -1.446303004E+03  1.446303004E+03  0.000000000E+00  0.00000E+00  9.000E+00
      25     1     1     2     0     0  2.707786756E+02 -1.407374279E+02 -5.891605045E+02  6.751764324E+02  1.250000000E+02  0.00000E+00  9.000E+00
      25     1     1     2     0     0 -3.090639305E+02  1.285797682E+02 -6.312656755E+02  7.253789513E+02  1.250000000E+02  0.00000E+00  9.000E+00
      21     1     1     2   511   501  3.828525482E+01  1.215765962E+01 -1.328420009E+02  1.387824435E+02  1.907348633E-06  0.00000E+00  9.000E+00
#rwgt            1           1   3.5276016678753422E-002           5      301302           0
</event>
<event>
      5   9999  3.19816E-02  4.71077E+01 -1.00000E+00  1.40568E-01
      21    -1     0     0   502   501  0.000000000E+00  0.000000000E+00  1.319498003E+03  1.319498003E+03  0.000000000E+00  0.00000E+00  9.000E+00
      21    -1     0     0   501   512  0.000000000E+00  0.000000000E+00 -3.821798404E+02  3.821798404E+02  0.000000000E+00  0.00000E+00  9.000E+00
      25     1     1     2     0     0 -9.009904588E+01  3.250931775E+02 -2.426798744E+02  4.339607512E+02  1.250000000E+02  0.00000E+00  9.000E+00
      25     1     1     2     0     0  1.363183241E+02 -3.159876612E+02  1.160229003E+03  1.216629453E+03  1.250000000E+02  0.00000E+00  9.000E+00
      21     1     1     2   502   512 -4.621927824E+01 -9.105516379E+00  1.976903358E+01  5.108763841E+01  5.331201500E-07  0.00000E+00  9.000E+00
#rwgt            1           1   2.4195684283798809E-002           5      301366           0
</event>
<event>
      5   9999  3.19816E-02  5.96584E+02 -1.00000E+00  9.67208E-02
       2    -1     0     0   502     0  0.000000000E+00  0.000000000E+00  2.829333958E+03  2.829333958E+03  0.000000000E+00  0.00000E+00  9.000E+00
      21    -1     0     0   501   502  0.000000000E+00  0.000000000E+00 -6.821528647E+02  6.821528647E+02  0.000000000E+00  0.00000E+00  9.000E+00
      25     1     1     2     0     0  7.594295172E+02 -4.893017923E+02  1.911584856E+02  9.318347505E+02  1.250000000E+02  0.00000E+00  9.000E+00
      25     1     1     2     0     0 -3.938201754E+02  9.607281483E+02  1.500730916E+03  1.829183202E+03  1.250000000E+02  0.00000E+00  9.000E+00
       2     1     1     2   501     0 -3.656093418E+02 -4.714263560E+02  4.552916914E+02  7.504688696E+02  1.321449896E-05  0.00000E+00  9.000E+00
#rwgt            2          18   1.4261000385368751E-003           5      301525           0
</event>
<event>
      5   9999  3.19816E-02  3.12142E+01 -1.00000E+00  1.51853E-01
      21    -1     0     0   502   501  0.000000000E+00  0.000000000E+00  4.745044279E+02  4.745044279E+02  0.000000000E+00  0.00000E+00  9.000E+00
      21    -1     0     0   511   502  0.000000000E+00  0.000000000E+00 -3.115132543E+02  3.115132543E+02  0.000000000E+00  0.00000E+00  9.000E+00
      25     1     1     2     0     0  3.313706368E+02  3.909921795E+00  7.350693386E+01  3.617320220E+02  1.250000000E+02  0.00000E+00  9.000E+00
      25     1     1     2     0     0 -3.024954344E+02  7.945351462E+00  1.469671527E+02  3.588745748E+02  1.250000000E+02  0.00000E+00  9.000E+00
      21     1     1     2   511   501 -2.887520237E+01 -1.185527326E+01 -5.748291294E+01  6.541108542E+01  1.348699152E-06  0.00000E+00  9.000E+00
#rwgt            1           1   2.6895646601748167E-002           5      301544           0
</event>
<event>
      5   9999  3.19816E-02  4.38384E+01 -1.00000E+00  1.42415E-01
      21    -1     0     0   502   501  0.000000000E+00  0.000000000E+00  6.424140285E+02  6.424140285E+02  0.000000000E+00  0.00000E+00  9.000E+00
       3    -1     0     0   501     0  0.000000000E+00  0.000000000E+00 -2.021915989E+02  2.021915989E+02  0.000000000E+00  0.00000E+00  9.000E+00
      25     1     1     2     0     0  5.492915846E+01 -1.260911280E+02 -9.731155594E+00  1.861071745E+02  1.250000000E+02  0.00000E+00  9.000E+00
      25     1     1     2     0     0 -8.674796439E+01  1.562468175E+02  5.267263212E+02  5.700911284E+02  1.250000000E+02  0.00000E+00  9.000E+00
       3     1     1     2   502     0  3.181880593E+01 -3.015568956E+01 -7.677273604E+01  8.840732448E+01  2.336015456E-06  0.00000E+00  9.000E+00
#rwgt            1           1   2.6430315171644837E-002           5      301662           0
</event>
<event>
      5   9999  3.19816E-02  4.04528E+02 -1.00000E+00  1.01539E-01
      21    -1     0     0   511   501  0.000000000E+00  0.000000000E+00  1.090048109E+03  1.090048109E+03  0.000000000E+00  0.00000E+00  9.000E+00
      21    -1     0     0   501   502  0.000000000E+00  0.000000000E+00 -1.101120832E+03  1.101120832E+03  0.000000000E+00  0.00000E+00  9.000E+00
      25     1     1     2     0     0 -6.266105812E+02 -2.295847118E+02 -3.908094862E+02  7.833945461E+02  1.250000000E+02  0.00000E+00  9.000E+00
      25     1     1     2     0     0  6.401176325E+02 -1.747181008E+02 -1.969582935E+02  7.033452691E+02  1.250000000E+02  0.00000E+00  9.000E+00
      21     1     1     2   511   502 -1.350705135E+01  4.043028127E+02  5.766950567E+02  7.044291258E+02  7.629394531E-06  0.00000E+00  9.000E+00
#rwgt            2          11   2.5433954077695147E-003           5      301733           0
</event>
<event>
      5   9999  3.19816E-02  2.98292E+01 -1.00000E+00  1.53212E-01
      21    -1     0     0   502   501  0.000000000E+00  0.000000000E+00  1.385066418E+03  1.385066418E+03  0.000000000E+00  0.00000E+00  9.000E+00
      21    -1     0     0   512   502  0.000000000E+00  0.000000000E+00 -6.252919057E+02  6.252919057E+02  0.000000000E+00  0.00000E+00  9.000E+00
      25     1     1     2     0     0 -5.064517417E+02 -5.378132512E+02  6.840284020E+02  1.014522703E+03  1.250000000E+02  0.00000E+00  9.000E+00
      25     1     1     2     0     0  5.239417757E+02  5.136496763E+02  2.756641907E+02  7.937044288E+02  1.250000000E+02  0.00000E+00  9.000E+00
      21     1     1     2   512   501 -1.749003403E+01  2.416357483E+01 -1.999180808E+02  2.021311917E+02  2.697398305E-06  0.00000E+00  9.000E+00
#rwgt            1           1   2.9038569536104602E-002           5      301753           0
</event>
<event>
      5   9999  3.19816E-02  1.12301E+01 -1.00000E+00  1.90108E-01
      21    -1     0     0   502   511  0.000000000E+00  0.000000000E+00  4.349886377E+02  4.349886377E+02  0.000000000E+00  0.00000E+00  9.000E+00
      21    -1     0     0   501   502  0.000000000E+00  0.000000000E+00 -1.716723416E+02  1.716723416E+02  0.000000000E+00  0.00000E+00  9.000E+00
      25     1     1     2     0     0  2.140478799E+02 -8.766278050E+01  5.697133230E+01  2.690204280E+02  1.250000000E+02  0.00000E+00  9.000E+00
      25     1     1     2     0     0 -2.091058948E+02  7.757857839E+01  2.008962828E+02  3.251584652E+02  1.250000000E+02  0.00000E+00  9.000E+00
      21     1     1     2   501   511 -4.941985130E+00  1.008420211E+01  5.448681037E+00  1.248208613E+01  2.064765462E-07  0.00000E+00  9.000E+00
#rwgt            1           1   2.6385562372177391E-002           5      301948           0
</event>
<event>
      5   9999  3.19816E-02  2.62230E+01 -1.00000E+00  1.57213E-01
      21    -1     0     0   502   501  0.000000000E+00  0.000000000E+00  2.268804329E+02  2.268804329E+02  0.000000000E+00  0.00000E+00  9.000E+00
      21    -1     0     0   501   512  0.000000000E+00  0.000000000E+00 -3.133557549E+02  3.133557549E+02  0.000000000E+00  0.00000E+00  9.000E+00
      25     1     1     2     0     0  1.463955741E+01 -5.457400095E+01 -9.289726395E+01  1.656729908E+02  1.250000000E+02  0.00000E+00  9.000E+00
      25     1     1     2     0     0 -4.051226618E+01  5.030242486E+01  1.632740381E+02  2.155341949E+02  1.250000000E+02  0.00000E+00  9.000E+00
      21     1     1     2   502   512  2.587270877E+01  4.271576087E+00 -1.568520961E+02  1.590290020E+02  0.000000000E+00  0.00000E+00  9.000E+00
#rwgt            1           1   3.5181285790257845E-002           5      302141           0
</event>
<event>
      5   9999  3.19816E-02  2.21396E+01 -1.00000E+00  1.62808E-01
      21    -1     0     0   502   501  0.000000000E+00  0.000000000E+00  2.110931573E+02  2.110931573E+02  0.000000000E+00  0.00000E+00  9.000E+00
       4    -1     0     0   501     0  0.000000000E+00  0.000000000E+00 -5.871406910E+02  5.871406910E+02  0.000000000E+00  0.00000E+00  9.000E+00
      25     1     1     2     0     0  2.261110185E+02 -1.696765387E+02 -2.386887742E+02  3.905299622E+02  1.250000000E+02  0.00000E+00  9.000E+00
      25     1     1     2     0     0 -2.214224387E+02  1.480391131E+02 -2.735477463E+01  2.954940931E+02  1.250000000E+02  0.00000E+00  9.000E+00
       4     1     1     2   502     0 -4.688579878E+00  2.163742556E+01 -1.100039848E+02  1.122097930E+02  1.907348633E-06  0.00000E+00  9.000E+00
#rwgt            1           1   2.7835533705918139E-002           5      302287           0
</event>
<event>
      5   9999  3.19816E-02  1.62186E+02 -1.00000E+00  1.15065E-01
      21    -1     0     0   502   501  0.000000000E+00  0.000000000E+00  1.093644618E+03  1.093644618E+03  0.000000000E+00  0.00000E+00  9.000E+00
      21    -1     0     0   511   502  0.000000000E+00  0.000000000E+00 -8.375995033E+01  8.375995033E+01  0.000000000E+00  0.00000E+00  9.000E+00
      25     1     1     2     0     0  2.021141009E+02 -1.465390732E+02  5.498619538E+02  6.166822342E+02  1.250000000E+02  0.00000E+00  9.000E+00
      25     1     1     2     0     0 -6.058865947E+01  6.732566959E+01  2.689099054E+02  3.100665552E+02  1.250000000E+02  0.00000E+00  9.000E+00
      21     1     1     2   511   501 -1.415254415E+02  7.921340363E+01  1.911128082E+02  2.506557786E+02  2.697398305E-06  0.00000E+00  9.000E+00
#rwgt            1           1   2.6288564555835562E-002           5      302415           0
</event>
<event>
      5   9999  3.19816E-02  5.00970E+01 -1.00000E+00  1.39028E-01
      21    -1     0     0   512   501  0.000000000E+00  0.000000000E+00  8.934707722E+02  8.934707722E+02  0.000000000E+00  0.00000E+00  9.000E+00
      21    -1     0     0   501   502  0.000000000E+00  0.000000000E+00 -9.492374831E+02  9.492374831E+02  0.000000000E+00  0.00000E+00  9.000E+00
      25     1     1     2     0     0 -3.038232739E+02  1.075007911E+02 -8.197895925E+02  8.896881352E+02  1.250000000E+02  0.00000E+00  9.000E+00
      25     1     1     2     0     0  3.392522617E+02 -1.429196827E+02  3.126942994E+02  4.989196906E+02  1.250000000E+02  0.00000E+00  9.000E+00
      21     1     1     2   512   502 -3.542898779E+01  3.541889163E+01  4.513285821E+02  4.541004296E+02  0.000000000E+00  0.00000E+00  9.000E+00
#rwgt            1           1   3.1711235944882663E-002           5      302457           0
</event>
<event>
      5   9999  3.19816E-02  2.30767E+02 -1.00000E+00  1.09432E-01
      21    -1     0     0   511   501  0.000000000E+00  0.000000000E+00  6.746153942E+02  6.746153942E+02  0.000000000E+00  0.00000E+00  9.000E+00
      21    -1     0     0   501   502  0.000000000E+00  0.000000000E+00 -1.415851912E+03  1.415851912E+03  0.000000000E+00  0.00000E+00  9.000E+00
      25     1     1     2     0     0 -1.500768524E+02 -2.828601720E+02 -7.688290324E+01  3.522341825E+02  1.250000000E+02  0.00000E+00  9.000E+00
      25     1     1     2     0     0 -4.005056014E+01  1.520741791E+02 -1.167517639E+03  1.184674234E+03  1.250000000E+02  0.00000E+00  9.000E+00
      21     1     1     2   511   502  1.901274125E+02  1.307859929E+02  5.031640244E+02  5.535588897E+02  5.394796609E-06  0.00000E+00  9.000E+00
#rwgt            1           1   2.7266301973962740E-002           5      302617           0
</event>
<event>
      5   9999  3.19816E-02  3.31038E+02 -1.00000E+00  1.04221E-01
      21    -1     0     0   502   501  0.000000000E+00  0.000000000E+00  8.519976212E+02  8.519976212E+02  0.000000000E+00  0.00000E+00  9.000E+00
      21    -1     0     0   501   512  0.000000000E+00  0.000000000E+00 -4.575469030E+02  4.575469030E+02  0.000000000E+00  0.00000E+00  9.000E+00
      25     1     1     2     0     0  9.680607215E+01 -2.046612436E+02 -3.715839892E+01  2.612726293E+02  1.250000000E+02  0.00000E+00  9.000E+00
      25     1     1     2     0     0 -3.621239753E+02  6.689863055E+00  5.721858680E+02  6.886219538E+02  1.250000000E+02  0.00000E+00  9.000E+00
      21     1     1     2   502   512  2.653179031E+02  1.979713805E+02 -1.405767508E+02  3.596499410E+02  5.722045898E-06  0.00000E+00  9.000E+00
#rwgt            2          11   3.4480609524131975E-003           5      302655           0
</event>
<event>
      5   9999  3.19816E-02  2.36942E+01 -1.00000E+00  1.60516E-01
      21    -1     0     0   502   501  0.000000000E+00  0.000000000E+00  4.218239625E+02  4.218239625E+02  0.000000000E+00  0.00000E+00  9.000E+00
      21    -1     0     0   501   511  0.000000000E+00  0.000000000E+00 -3.089013235E+02  3.089013235E+02  0.000000000E+00  0.00000E+00  9.000E+00
      25     1     1     2     0     0  2.296184242E+02  1.829163547E+02 -3.169358096E+01  3.206438782E+02  1.250000000E+02  0.00000E+00  9.000E+00
      25     1     1     2     0     0 -2.111235540E+02 -1.977270056E+02  1.834275222E+02  3.646090779E+02  1.250000000E+02  0.00000E+00  9.000E+00
      21     1     1     2   502   511 -1.849487012E+01  1.481065090E+01 -3.881130220E+01  4.547232982E+01  6.743495762E-07  0.00000E+00  9.000E+00
#rwgt            1           1   3.0487289103814146E-002           5      302705           0
</event>
<event>
      5   9999  3.19816E-02  2.35846E+01 -1.00000E+00  1.60670E-01
      21    -1     0     0   502   512  0.000000000E+00  0.000000000E+00  2.962671089E+02  2.962671089E+02  0.000000000E+00  0.00000E+00  9.000E+00
      21    -1     0     0   501   502  0.000000000E+00  0.000000000E+00 -7.511564889E+02  7.511564889E+02  0.000000000E+00  0.00000E+00  9.000E+00
      25     1     1     2     0     0 -1.790353412E+01  2.483034647E+02 -5.090706935E+02  5.803043323E+02  1.250000000E+02  0.00000E+00  9.000E+00
      25     1     1     2     0     0  3.377357002E+01 -2.308571185E+02 -1.205178082E+02  2.908353577E+02  1.250000000E+02  0.00000E+00  9.000E+00
      21     1     1     2   501   512 -1.587003590E+01 -1.744634625E+01  1.746991217E+02  1.762839078E+02  2.697398305E-06  0.00000E+00  9.000E+00
#rwgt            1           1   3.2249573042109077E-002           5      302859           0
</event>
<event>
      5   9999  3.19816E-02  5.42968E+01 -1.00000E+00  1.37063E-01
      21    -1     0     0   502   501  0.000000000E+00  0.000000000E+00  1.036548077E+03  1.036548077E+03  0.000000000E+00  0.00000E+00  9.000E+00
      21    -1     0     0   501   511  0.000000000E+00  0.000000000E+00 -2.185783011E+02  2.185783011E+02  0.000000000E+00  0.00000E+00  9.000E+00
      25     1     1     2     0     0 -1.114023002E+02  3.737994850E+02  1.855967017E+02  4.496750639E+02  1.250000000E+02  0.00000E+00  9.000E+00
      25     1     1     2     0     0  6.125465203E+01 -3.529821804E+02  6.462509446E+02  7.494089908E+02  1.250000000E+02  0.00000E+00  9.000E+00
      21     1     1     2   502   511  5.014764817E+01 -2.081730456E+01 -1.387786990E+01  5.604232382E+01  1.261592536E-06  0.00000E+00  9.000E+00
#rwgt            1           1   2.8777662341802169E-002           5      302976           0
</event>
<event>
      5   9999  3.19816E-02  3.42153E+02 -1.00000E+00  1.03769E-01
      21    -1     0     0   502   501  0.000000000E+00  0.000000000E+00  1.150635443E+03  1.150635443E+03  0.000000000E+00  0.00000E+00  9.000E+00
      21    -1     0     0   501   512  0.000000000E+00  0.000000000E+00 -5.581285475E+02  5.581285475E+02  0.000000000E+00  0.00000E+00  9.000E+00
      25     1     1     2     0     0 -1.608298474E+02  4.758849273E+02  7.135611993E+02  8.815482341E+02  1.250000000E+02  0.00000E+00  9.000E+00
      25     1     1     2     0     0 -1.190439910E+02 -2.790622109E+02  1.775471555E+02  3.730887050E+02  1.250000000E+02  0.00000E+00  9.000E+00
      21     1     1     2   502   512  2.798738384E+02 -1.968227164E+02 -2.986014595E+02  4.541270513E+02  1.009274029E-05  0.00000E+00  9.000E+00
#rwgt            1           1   1.8597589011247015E-002           5      303064           0
</event>
<event>
      5   9999  3.19816E-02  3.29498E+01 -1.00000E+00  1.50264E-01
      21    -1     0     0   502   511  0.000000000E+00  0.000000000E+00  1.226706263E+02  1.226706263E+02  0.000000000E+00  0.00000E+00  9.000E+00
      21    -1     0     0   501   502  0.000000000E+00  0.000000000E+00 -3.250149124E+02  3.250149124E+02  0.000000000E+00  0.00000E+00  9.000E+00
      25     1     1     2     0     0  4.916195708E+00  9.698966138E+01 -3.315563078E+01  1.617264952E+02  1.250000000E+02  0.00000E+00  9.000E+00
      25     1     1     2     0     0  2.076828612E+01 -1.176293507E+02 -1.816067243E+02  2.507468607E+02  1.250000000E+02  0.00000E+00  9.000E+00
      21     1     1     2   501   511 -2.568448183E+01  2.063968929E+01  1.241806892E+01  3.521218279E+01  2.920019320E-07  0.00000E+00  9.000E+00
#rwgt            1           1   2.5340173958743079E-002           5      303100           0
</event>
<event>
      5   9999  3.19816E-02  3.55036E+01 -1.00000E+00  1.48127E-01
      21    -1     0     0   502   501  0.000000000E+00  0.000000000E+00  7.602851622E+02  7.602851622E+02  0.000000000E+00  0.00000E+00  9.000E+00
      21    -1     0     0   512   502  0.000000000E+00  0.000000000E+00 -5.622322742E+02  5.622322742E+02  0.000000000E+00  0.00000E+00  9.000E+00
      25     1     1     2     0     0 -1.419657596E+02  5.653049261E+01 -3.624420635E+02  4.127217257E+02  1.250000000E+02  0.00000E+00  9.000E+00
      25     1     1     2     0     0  1.559195605E+02 -8.917709303E+01  7.168253101E+02  7.494844818E+02  1.250000000E+02  0.00000E+00  9.000E+00
      21     1     1     2   512   501 -1.395380091E+01  3.264660041E+01 -1.563303586E+02  1.603112289E+02  1.907348633E-06  0.00000E+00  9.000E+00
#rwgt            1           1   3.3842137988362789E-002           5      303204           0
</event>
<event>
      5   9999  3.19816E-02  2.36971E+01 -1.00000E+00  1.60512E-01
      21    -1     0     0   502   501  0.000000000E+00  0.000000000E+00  2.481457217E+02  2.481457217E+02  0.000000000E+00  0.00000E+00  9.000E+00
      21    -1     0     0   511   502  0.000000000E+00  0.000000000E+00 -8.245586032E+02  8.245586032E+02  0.000000000E+00  0.00000E+00  9.000E+00
      25     1     1     2     0     0  2.144657260E+02 -6.579635521E+01 -6.218294572E+02  6.727715673E+02  1.250000000E+02  0.00000E+00  9.000E+00
      25     1     1     2     0     0 -2.344483459E+02  5.305868238E+01  1.382167436E+02  3.041547614E+02  1.250000000E+02  0.00000E+00  9.000E+00
      21     1     1     2   511   501  1.998261990E+01  1.273767283E+01 -9.280016790E+01  9.577799627E+01  1.348699152E-06  0.00000E+00  9.000E+00
#rwgt            1           1   2.5806105784351229E-002           5      303452           0
</event>
<event>
      5   9999  3.19816E-02  1.23291E+02 -1.00000E+00  1.19872E-01
      21    -1     0     0   502   501  0.000000000E+00  0.000000000E+00  8.630486174E+02  8.630486174E+02  0.000000000E+00  0.00000E+00  9.000E+00
      21    -1     0     0   501   512  0.000000000E+00  0.000000000E+00 -2.773297861E+02  2.773297861E+02  0.000000000E+00  0.00000E+00  9.000E+00
      25     1     1     2     0     0  1.505513961E+02 -9.055204443E+01 -1.715245265E+02  2.755196160E+02  1.250000000E+02  0.00000E+00  9.000E+00
      25     1     1     2     0     0 -1.296752356E+02 -3.095912547E+01  7.094784853E+02  7.326382841E+02  1.250000000E+02  0.00000E+00  9.000E+00
      21     1     1     2   502   512 -2.087616050E+01  1.215111699E+02  4.776487237E+01  1.322205034E+02  1.651812370E-06  0.00000E+00  9.000E+00
#rwgt            1           1   2.7526451213431957E-002           5      303616           0
</event>
<event>
      5   9999  3.19816E-02  9.14778E+01 -1.00000E+00  1.25593E-01
       2    -1     0     0   502     0  0.000000000E+00  0.000000000E+00  7.901147312E+02  7.901147312E+02  0.000000000E+00  0.00000E+00  9.000E+00
      21    -1     0     0   501   502  0.000000000E+00  0.000000000E+00 -1.859673984E+02  1.859673984E+02  0.000000000E+00  0.00000E+00  9.000E+00
      25     1     1     2     0     0  4.237971627E+01  2.168836955E+02  5.456357399E+01  2.596858898E+02  1.250000000E+02  0.00000E+00  9.000E+00
      25     1     1     2     0     0 -5.938042199E+01 -3.067678241E+02  3.009703754E+02  4.514872083E+02  1.250000000E+02  0.00000E+00  9.000E+00
       2     1     1     2   501     0  1.700070571E+01  8.988412854E+01  2.486133834E+02  2.649090315E+02  5.394796609E-06  0.00000E+00  9.000E+00
#rwgt            1           1   2.5475288881591382E-002           5      303682           0
</event>
<event>
      5   9999  3.19816E-02  4.64355E+01 -1.00000E+00  1.40933E-01
      21    -1     0     0   511   501  0.000000000E+00  0.000000000E+00  3.307180246E+02  3.307180246E+02  0.000000000E+00  0.00000E+00  9.000E+00
      21    -1     0     0   501   502  0.000000000E+00  0.000000000E+00 -5.653785679E+02  5.653785679E+02  0.000000000E+00  0.00000E+00  9.000E+00
      25     1     1     2     0     0 -1.172261247E+02 -1.306383687E+02  2.474453646E+02  3.281197284E+02  1.250000000E+02  0.00000E+00  9.000E+00
      25     1     1     2     0     0  1.508770057E+02  9.864037959E+01 -4.719584728E+02  5.204455739E+02  1.250000000E+02  0.00000E+00  9.000E+00
      21     1     1     2   511   502 -3.365088104E+01  3.199798913E+01 -1.014743521E+01  4.753129016E+01  5.331201500E-07  0.00000E+00  9.000E+00
#rwgt            1           1   2.7647438275688562E-002           5      303746           0
</event>
<event>
      5   9999  3.19816E-02  5.07710E+01 -1.00000E+00  1.38697E-01
      21    -1     0     0   502   512  0.000000000E+00  0.000000000E+00  3.501169760E+02  3.501169760E+02  0.000000000E+00  0.00000E+00  9.000E+00
      21    -1     0     0   501   502  0.000000000E+00  0.000000000E+00 -2.444457546E+02  2.444457546E+02  0.000000000E+00  0.00000E+00  9.000E+00
      25     1     1     2     0     0 -1.181239802E+02 -1.470458801E+02  1.570306061E+02  2.754258100E+02  1.250000000E+02  0.00000E+00  9.000E+00
      25     1     1     2     0     0  6.775631977E+01  1.534331763E+02 -1.142184976E+02  2.383348981E+02  1.250000000E+02  0.00000E+00  9.000E+00
      21     1     1     2   501   512  5.036766041E+01 -6.387296239E+00  6.285911287E+01  8.080202249E+01  6.743495762E-07  0.00000E+00  9.000E+00
#rwgt            1           1   2.5564798619121892E-002           5      303840           0
</event>
<event>
      5   9999  3.19816E-02  1.59805E+01 -1.00000E+00  1.74831E-01
      21    -1     0     0   502   511  0.000000000E+00  0.000000000E+00  3.130013101E+02  3.130013101E+02  0.000000000E+00  0.00000E+00  9.000E+00
      21    -1     0     0   501   502  0.000000000E+00  0.000000000E+00 -1.199249480E+03  1.199249480E+03  0.000000000E+00  0.00000E+00  9.000E+00
      25     1     1     2     0     0 -3.326374100E+02 -3.766069343E+02 -2.413036992E+02  5.712555511E+02  1.250000000E+02  0.00000E+00  9.000E+00
      25     1     1     2     0     0  3.227801237E+02  3.891851510E+02 -7.063103542E+02  8.775827064E+02  1.250000000E+02  0.00000E+00  9.000E+00
      21     1     1     2   501   511  9.857286250E+00 -1.257821672E+01  6.136588353E+01  6.341253259E+01  9.536743164E-07  0.00000E+00  9.000E+00
#rwgt            1           1   3.0263643196727027E-002           5      303949           0
</event>
<event>
      5   9999  3.19816E-02  3.54580E+01 -1.00000E+00  1.48163E-01
       1    -1     0     0   502     0  0.000000000E+00  0.000000000E+00  1.116194659E+03  1.116194659E+03  0.000000000E+00  0.00000E+00  9.000E+00
      21    -1     0     0   501   502  0.000000000E+00  0.000000000E+00 -3.729437188E+02  3.729437188E+02  0.000000000E+00  0.00000E+00  9.000E+00
      25     1     1     2     0     0 -1.364351563E+02 -5.988823015E+01  2.399668897E+02  3.088855130E+02  1.250000000E+02  0.00000E+00  9.000E+00
      25     1     1     2     0     0  1.543726115E+02  2.930204989E+01 -3.082874521E+02  3.679071437E+02  1.250000000E+02  0.00000E+00  9.000E+00
       1     1     1     2   501     0 -1.793745514E+01  3.058618026E+01  8.115715024E+02  8.123457208E+02  1.078959322E-05  0.00000E+00  9.000E+00
#rwgt            1           1   2.8015112927855437E-002           5      304174           0
</event>
<event>
      5   9999  3.19816E-02  1.82099E+01 -1.00000E+00  1.69801E-01
      21    -1     0     0   502   501  0.000000000E+00  0.000000000E+00  1.003596670E+03  1.003596670E+03  0.000000000E+00  0.00000E+00  9.000E+00
      21    -1     0     0   511   502  0.000000000E+00  0.000000000E+00 -5.772946247E+02  5.772946247E+02  0.000000000E+00  0.00000E+00  9.000E+00
      25     1     1     2     0     0 -4.105534016E+02  1.004973037E+02 -4.140537632E+02  6.047473212E+02  1.250000000E+02  0.00000E+00  9.000E+00
      25     1     1     2     0     0  4.201634017E+02 -1.159650036E+02  8.435094580E+02  9.576629741E+02  1.250000000E+02  0.00000E+00  9.000E+00
      21     1     1     2   511   501 -9.610000085E+00  1.546769995E+01 -3.153649210E+00  1.848099961E+01  1.460009660E-07  0.00000E+00  9.000E+00
#rwgt            1           1   2.1035556363928967E-002           5      304279           0
</event>
<event>
      5   9999  3.19816E-02  1.24552E+02 -1.00000E+00  1.19686E-01
      21    -1     0     0   512   501  0.000000000E+00  0.000000000E+00  9.524954511E+01  9.524954511E+01  0.000000000E+00  0.00000E+00  9.000E+00
      21    -1     0     0   501   502  0.000000000E+00  0.000000000E+00 -3.152904773E+03  3.152904773E+03  0.000000000E+00  0.00000E+00  9.000E+00
      25     1     1     2     0     0 -1.803720704E+02  1.873824492E+02 -3.758824665E+02  4.738764551E+02  1.250000000E+02  0.00000E+00  9.000E+00
      25     1     1     2     0     0  1.735211497E+02 -6.301911374E+01 -2.629936873E+03  2.639369992E+03  1.250000000E+02  0.00000E+00  9.000E+00
      21     1     1     2   512   502  6.850920720E+00 -1.243633354E+02 -5.183588801E+01  1.349078708E+02  4.101908334E-06  0.00000E+00  9.000E+00
#rwgt            1           1   4.0345721756344100E-002           5      304539           0
</event>
<event>
      5   9999  3.19816E-02  2.08476E+02 -1.00000E+00  1.10996E-01
      21    -1     0     0   502   501  0.000000000E+00  0.000000000E+00  5.428611961E+02  5.428611961E+02  0.000000000E+00  0.00000E+00  9.000E+00
      21    -1     0     0   511   502  0.000000000E+00  0.000000000E+00 -3.116072426E+02  3.116072426E+02  0.000000000E+00  0.00000E+00  9.000E+00
      25     1     1     2     0     0 -1.567381232E+01 -1.617016137E+02 -2.488201740E+01  2.064877601E+02  1.250000000E+02  0.00000E+00  9.000E+00
      25     1     1     2     0     0 -1.136798057E+02  3.251943372E+02  2.417176954E+02  4.390067191E+02  1.250000000E+02  0.00000E+00  9.000E+00
      21     1     1     2   511   501  1.293536180E+02 -1.634927234E+02  1.441827551E+01  2.089739596E+02  3.487763128E-06  0.00000E+00  9.000E+00
#rwgt            1           1   3.1339850570552004E-002           5      304651           0
</event>
<event>
      5   9999  3.19816E-02  7.67799E+01 -1.00000E+00  1.29219E-01
      21    -1     0     0   512   501  0.000000000E+00  0.000000000E+00  3.592347998E+02  3.592347998E+02  0.000000000E+00  0.00000E+00  9.000E+00
      21    -1     0     0   501   502  0.000000000E+00  0.000000000E+00 -3.663462842E+02  3.663462842E+02  0.000000000E+00  0.00000E+00  9.000E+00
      25     1     1     2     0     0 -1.842092897E+02  3.180698786E+01  2.187421296E+02  3.137162191E+02  1.250000000E+02  0.00000E+00  9.000E+00
      25     1     1     2     0     0  1.082808923E+02 -4.321011550E+01 -2.727585226E+02  3.218914061E+02  1.250000000E+02  0.00000E+00  9.000E+00
      21     1     1     2   512   502  7.592839735E+01  1.140312763E+01  4.690490848E+01  8.997345877E+01  6.743495762E-07  0.00000E+00  9.000E+00
#rwgt            1           1   2.8172090631313224E-002           5      304769           0
</event>
<event>
      5   9999  3.19816E-02  7.05074E+01 -1.00000E+00  1.31062E-01
      21    -1     0     0   502   501  0.000000000E+00  0.000000000E+00  2.249758956E+03  2.249758956E+03  0.000000000E+00  0.00000E+00  9.000E+00
      21    -1     0     0   501   511  0.000000000E+00  0.000000000E+00 -9.213800431E+01  9.213800431E+01  0.000000000E+00  0.00000E+00  9.000E+00
      25     1     1     2     0     0 -4.038253678E+01 -1.101547014E+02  2.102493487E+03  2.109471182E+03  1.250000000E+02  0.00000E+00  9.000E+00
      25     1     1     2     0     0  2.804476515E+01  4.073513522E+01  8.143497077E+01  1.571703361E+02  1.250000000E+02  0.00000E+00  9.000E+00
      21     1     1     2   502   511  1.233777163E+01  6.941956620E+01 -2.630750522E+01  7.525544240E+01  3.269030857E-06  0.00000E+00  9.000E+00
#rwgt            1           1   8.0067792133860533E-002           5      304843           0
</event>
<event>
      5   9999  3.19816E-02  6.76770E+01 -1.00000E+00  1.31967E-01
      21    -1     0     0   502   512  0.000000000E+00  0.000000000E+00  2.538705488E+02  2.538705488E+02  0.000000000E+00  0.00000E+00  9.000E+00
      21    -1     0     0   501   502  0.000000000E+00  0.000000000E+00 -3.008932848E+02  3.008932848E+02  0.000000000E+00  0.00000E+00  9.000E+00
      25     1     1     2     0     0 -9.706779259E+01 -6.097216421E+01  7.971744953E+01  1.874023290E+02  1.250000000E+02  0.00000E+00  9.000E+00
      25     1     1     2     0     0  1.619040868E+02  8.037386867E+01 -1.777178115E+02  2.826331768E+02  1.250000000E+02  0.00000E+00  9.000E+00
      21     1     1     2   501   512 -6.483629424E+01 -1.940170447E+01  5.097762594E+01  8.472832781E+01  1.168007728E-06  0.00000E+00  9.000E+00
#rwgt            1           1   3.0438960404459418E-002           5      304914           0
</event>
<event>
      5   9999  3.19816E-02  7.59860E+01 -1.00000E+00  1.29441E-01
      21    -1     0     0   502   501  0.000000000E+00  0.000000000E+00  7.591740351E+02  7.591740351E+02  0.000000000E+00  0.00000E+00  9.000E+00
      21    -1     0     0   501   511  0.000000000E+00  0.000000000E+00 -4.811983330E+02  4.811983330E+02  0.000000000E+00  0.00000E+00  9.000E+00
      25     1     1     2     0     0 -3.719563806E+02  1.774684244E+02 -3.333128648E+01  4.319520406E+02  1.250000000E+02  0.00000E+00  9.000E+00
      25     1     1     2     0     0  3.696581844E+02 -1.015171950E+02  4.779258354E+02  6.252927461E+02  1.250000000E+02  0.00000E+00  9.000E+00
      21     1     1     2   502   511  2.298196178E+00 -7.595122938E+01 -1.666188468E+02  1.831275814E+02  1.907348633E-06  0.00000E+00  9.000E+00
#rwgt            1           1   3.0555153044046671E-002           5      304982           0
</event>
<event>
      5   9999  3.19816E-02  2.14391E+02 -1.00000E+00  1.10560E-01
      21    -1     0     0   512   501  0.000000000E+00  0.000000000E+00  2.168844954E+02  2.168844954E+02  0.000000000E+00  0.00000E+00  9.000E+00
      21    -1     0     0   501   502  0.000000000E+00  0.000000000E+00 -9.991250138E+02  9.991250138E+02  0.000000000E+00  0.00000E+00  9.000E+00
      25     1     1     2     0     0 -1.992232925E+02  1.315784379E+02 -3.910137885E+02  4.748890274E+02  1.250000000E+02  0.00000E+00  9.000E+00
      25     1     1     2     0     0  1.728060310E+02 -3.443353904E+02 -3.166761801E+02  5.141377136E+02  1.250000000E+02  0.00000E+00  9.000E+00
      21     1     1     2   512   502  2.641726149E+01  2.127569526E+02 -7.455054987E+01  2.269827682E+02  2.523185073E-06  0.00000E+00  9.000E+00
#rwgt            1           1   2.7073308246219344E-002           5      305050           0
</event>
<event>
      5   9999  3.19816E-02  3.19423E+01 -1.00000E+00  1.51171E-01
      21    -1     0     0   502   501  0.000000000E+00  0.000000000E+00  1.338728956E+03  1.338728956E+03  0.000000000E+00  0.00000E+00  9.000E+00
      21    -1     0     0   501   511  0.000000000E+00  0.000000000E+00 -2.791758668E+02  2.791758668E+02  0.000000000E+00  0.00000E+00  9.000E+00
      25     1     1     2     0     0  4.165433901E+02  2.460402801E+01  1.081120819E+03  1.165573241E+03  1.250000000E+02  0.00000E+00  9.000E+00
      25     1     1     2     0     0 -3.972713588E+02 -5.007759157E+01 -1.512049149E+01  4.197450738E+02  1.250000000E+02  0.00000E+00  9.000E+00
      21     1     1     2   502   511 -1.927203137E+01  2.547356356E+01 -6.447238511E+00  3.258650822E+01  4.915124924E-07  0.00000E+00  9.000E+00
#rwgt            1           1   3.3511294366557656E-002           5      305106           0
</event>
<event>
      5   9999  3.19816E-02  2.94790E+01 -1.00000E+00  1.53570E-01
      21    -1     0     0   502   501  0.000000000E+00  0.000000000E+00  3.938628922E+02  3.938628922E+02  0.000000000E+00  0.00000E+00  9.000E+00
      21    -1     0     0   512   502  0.000000000E+00  0.000000000E+00 -1.970398213E+02  1.970398213E+02  0.000000000E+00  0.00000E+00  9.000E+00
      25     1     1     2     0     0 -4.390026899E+01  1.003435898E+02  1.140269977E+02  2.015520425E+02  1.250000000E+02  0.00000E+00  9.000E+00
      25     1     1     2     0     0  6.213782903E+01 -1.235039954E+02  1.971212252E+02  2.712860558E+02  1.250000000E+02  0.00000E+00  9.000E+00
      21     1     1     2   512   501 -1.823756004E+01  2.316040558E+01 -1.143251520E+02  1.180646152E+02  2.336015456E-06  0.00000E+00  9.000E+00
#rwgt            1           1   3.5533722560685981E-002           5      305294           0
</event>
<event>
      5   9999  3.19816E-02  3.76644E+00 -1.00000E+00  2.69783E-01
      21    -1     0     0   502   501  0.000000000E+00  0.000000000E+00  2.096069693E+02  2.096069693E+02  0.000000000E+00  0.00000E+00  9.000E+00
      21    -1     0     0   511   502  0.000000000E+00  0.000000000E+00 -3.181670149E+02  3.181670149E+02  0.000000000E+00  0.00000E+00  9.000E+00
      25     1     1     2     0     0  6.337826804E+01  1.674598511E+02 -1.868876120E+02  2.874223131E+02  1.250000000E+02  0.00000E+00  9.000E+00
      25     1     1     2     0     0 -6.554242377E+01 -1.705424625E+02  8.100854635E+01  2.357284994E+02  1.250000000E+02  0.00000E+00  9.000E+00
      21     1     1     2   511   501  2.164155728E+00  3.082611400E+00 -2.680979934E+00  4.623171689E+00  7.884953353E-08  0.00000E+00  9.000E+00
#rwgt            1           1   2.5296683397235956E-002           5      305350           0
</event>
<event>
      5   9999  3.19816E-02  7.12151E+01 -1.00000E+00  1.30843E-01
      21    -1     0     0   502   501  0.000000000E+00  0.000000000E+00  4.799895360E+02  4.799895360E+02  0.000000000E+00  0.00000E+00  9.000E+00
      21    -1     0     0   501   512  0.000000000E+00  0.000000000E+00 -7.931910483E+02  7.931910483E+02  0.000000000E+00  0.00000E+00  9.000E+00
      25     1     1     2     0     0 -5.108444484E+02  8.689507914E+01 -8.207091655E+01  5.393268402E+02  1.250000000E+02  0.00000E+00  9.000E+00
      25     1     1     2     0     0  4.396312496E+02 -8.636972931E+01  2.714781807E+01  4.659370878E+02  1.250000000E+02  0.00000E+00  9.000E+00
      21     1     1     2   502   512  7.121319886E+01 -5.253498275E-01 -2.582784138E+02  2.679166563E+02  3.814697266E-06  0.00000E+00  9.000E+00
#rwgt            1           1   2.9631650725460614E-002           5      305652           0
</event>
<event>
      5   9999  3.19816E-02  1.04106E+02 -1.00000E+00  1.23047E-01
      21    -1     0     0   502   501  0.000000000E+00  0.000000000E+00  3.940903231E+02  3.940903231E+02  0.000000000E+00  0.00000E+00  9.000E+00
      21    -1     0     0   501   511  0.000000000E+00  0.000000000E+00 -1.840144387E+03  1.840144387E+03  0.000000000E+00  0.00000E+00  9.000E+00
      25     1     1     2     0     0 -3.925633230E+02  9.296317158E+01  7.507800492E+01  4.289636589E+02  1.250000000E+02  0.00000E+00  9.000E+00
      25     1     1     2     0     0  2.895260808E+02 -7.808694351E+01 -4.793323023E+01  3.283984116E+02  1.250000000E+02  0.00000E+00  9.000E+00
      21     1     1     2   502   511  1.030372422E+02 -1.487622807E+01 -1.473198839E+03  1.476872640E+03  0.000000000E+00  0.00000E+00  9.000E+00
#rwgt            1           1   2.8393464839515877E-002           5      305708           0
</event>
<event>
      5   9999  3.19816E-02  6.22637E+01 -1.00000E+00  1.33850E-01
      21    -1     0     0   502   501  0.000000000E+00  0.000000000E+00  1.075173807E+03  1.075173807E+03  0.000000000E+00  0.00000E+00  9.000E+00
      21    -1     0     0   501   512  0.000000000E+00  0.000000000E+00 -2.382271857E+02  2.382271857E+02  0.000000000E+00  0.00000E+00  9.000E+00
      25     1     1     2     0     0 -1.175993539E+02 -7.910820838E+01  2.337248866E+02  3.005661978E+02  1.250000000E+02  0.00000E+00  9.000E+00
      25     1     1     2     0     0  1.475134168E+02  2.450131945E+01  7.911800037E+02  8.148320815E+02  1.250000000E+02  0.00000E+00  9.000E+00
      21     1     1     2   502   512 -2.991406297E+01  5.460688893E+01 -1.879582691E+02  1.980027132E+02  6.031565972E-06  0.00000E+00  9.000E+00
#rwgt            1           1   2.7731173050380913E-002           5      305784           0
</event>
<event>
      5   9999  3.19816E-02  6.61103E+01 -1.00000E+00  1.32491E-01
      21    -1     0     0   502   501  0.000000000E+00  0.000000000E+00  8.330676133E+01  8.330676133E+01  0.000000000E+00  0.00000E+00  9.000E+00
       2    -1     0     0   501     0  0.000000000E+00  0.000000000E+00 -2.352004801E+03  2.352004801E+03  0.000000000E+00  0.00000E+00  9.000E+00
      25     1     1     2     0     0 -4.000329339E+01  1.108452479E+02 -1.241797671E+03  1.253624101E+03  1.250000000E+02  0.00000E+00  9.000E+00
      25     1     1     2     0     0  9.348732099E+01 -1.497043884E+02 -7.713140987E+01  2.296204205E+02  1.250000000E+02  0.00000E+00  9.000E+00
       2     1     1     2   502     0 -5.348402760E+01  3.885914058E+01 -9.497689594E+02  9.520670409E+02  0.000000000E+00  0.00000E+00  9.000E+00
#rwgt            1           1   2.8165824846847640E-002           5      305860           0
</event>
<event>
      5   9999  3.36864E-02  1.32499E+02 -1.00000E+00  1.18570E-01
      21    -1     0     0   511   501  0.000000000E+00  0.000000000E+00  5.909519223E+01  5.909519223E+01  0.000000000E+00  0.00000E+00  9.000E+00
      21    -1     0     0   501   502  0.000000000E+00  0.000000000E+00 -2.352580634E+03  2.352580634E+03  0.000000000E+00  0.00000E+00  9.000E+00
      25     1     1     2     0     0 -1.889558824E+02  2.441031509E+00 -7.148668786E+02  7.499132872E+02  1.250000000E+02  0.00000E+00  9.000E+00
      25     1     1     2     0     0  2.125825448E+02 -1.328168385E+02 -1.451037990E+03  1.477825395E+03  1.250000000E+02  0.00000E+00  9.000E+00
      21     1     1     2   511   502 -2.362666248E+01  1.303758070E+02 -1.275805738E+02  1.839371443E+02  6.468133910E-06  0.00000E+00  9.000E+00
#rwgt            1           1  0.10838190817755487                5      305925           0
</event>
<event>
      5   9999  3.19816E-02  3.51889E+02 -1.00000E+00  1.03389E-01
      21    -1     0     0   502   501  0.000000000E+00  0.000000000E+00  4.478697316E+02  4.478697316E+02  0.000000000E+00  0.00000E+00  9.000E+00
      21    -1     0     0   501   512  0.000000000E+00  0.000000000E+00 -1.640594079E+03  1.640594079E+03  0.000000000E+00  0.00000E+00  9.000E+00
      25     1     1     2     0     0  2.536476978E+02 -2.877326782E+02  5.026838129E+01  4.065453958E+02  1.250000000E+02  0.00000E+00  9.000E+00
      25     1     1     2     0     0 -6.051222314E+02  2.706673849E+02 -4.405050487E+02  8.056695638E+02  1.250000000E+02  0.00000E+00  9.000E+00
      21     1     1     2   502   512  3.514745337E+02  1.706529332E+01 -8.024876803E+02  8.762488511E+02  0.000000000E+00  0.00000E+00  9.000E+00
#rwgt            1           1   2.2185312488533872E-002           5      305995           0
</event>
<event>
      5   9999  3.19816E-02  9.79213E+01 -1.00000E+00  1.24240E-01
      21    -1     0     0   511   501  0.000000000E+00  0.000000000E+00  1.099332702E+03  1.099332702E+03  0.000000000E+00  0.00000E+00  9.000E+00
      21    -1     0     0   501   502  0.000000000E+00  0.000000000E+00 -2.994376674E+02  2.994376674E+02  0.000000000E+00  0.00000E+00  9.000E+00
      25     1     1     2     0     0 -2.168392817E+02 -2.884037517E+02  3.178970713E+01  3.831860952E+02  1.250000000E+02  0.00000E+00  9.000E+00
      25     1     1     2     0     0  1.378148272E+02  3.462286240E+02  2.036150992E+02  4.426638627E+02  1.250000000E+02  0.00000E+00  9.000E+00
      21     1     1     2   511   502  7.902445444E+01 -5.782487231E+01  5.644902287E+02  5.729204120E+02  1.078959322E-05  0.00000E+00  9.000E+00
#rwgt            1           1   2.8371724615408683E-002           5      306065           0
</event>
<event>
      5   9999  3.19816E-02  2.74982E+01 -1.00000E+00  1.55714E-01
      21    -1     0     0   512   501  0.000000000E+00  0.000000000E+00  6.545201054E+02  6.545201054E+02  0.000000000E+00  0.00000E+00  9.000E+00
      21    -1     0     0   501   502  0.000000000E+00  0.000000000E+00 -3.347573152E+02  3.347573152E+02  0.000000000E+00  0.00000E+00  9.000E+00
      25     1     1     2     0     0 -9.937199013E+01 -2.712441275E+01 -2.989141259E+02  3.399782064E+02  1.250000000E+02  0.00000E+00  9.000E+00
      25     1     1     2     0     0  1.137647071E+02  3.693626296E+00  5.150728111E+02  5.421079710E+02  1.250000000E+02  0.00000E+00  9.000E+00
      21     1     1     2   512   502 -1.439271695E+01  2.343078645E+01  1.036041050E+02  1.071912433E+02  1.348699152E-06  0.00000E+00  9.000E+00
#rwgt            1           1   3.1832700123480044E-002           5      306193           0
</event>
<event>
      5   9999  3.19816E-02  3.08128E+01 -1.00000E+00  1.52238E-01
      21    -1     0     0   502   501  0.000000000E+00  0.000000000E+00  4.919695292E+02  4.919695292E+02  0.000000000E+00  0.00000E+00  9.000E+00
      21    -1     0     0   501   511  0.000000000E+00  0.000000000E+00 -1.320465321E+03  1.320465321E+03  0.000000000E+00  0.00000E+00  9.000E+00
      25     1     1     2     0     0  2.296964104E+02  6.561431049E+02 -7.214809176E+02  1.009675160E+03  1.250000000E+02  0.00000E+00  9.000E+00
      25     1     1     2     0     0 -1.998577864E+02 -6.484565444E+02  1.478643620E+00  6.899755149E+02  1.250000000E+02  0.00000E+00  9.000E+00
      21     1     1     2   502   511 -2.983862400E+01 -7.686560526E+00 -1.084935174E+02  1.127841745E+02  1.907348633E-06  0.00000E+00  9.000E+00
#rwgt            1           1   2.7723789479987493E-002           5      306345           0
</event>
<event>
      5   9999  3.19816E-02  1.74901E+01 -1.00000E+00  1.71322E-01
       2    -1     0     0   502     0  0.000000000E+00  0.000000000E+00  4.201122500E+02  4.201122500E+02  0.000000000E+00  0.00000E+00  9.000E+00
      21    -1     0     0   501   502  0.000000000E+00  0.000000000E+00 -2.721489073E+02  2.721489073E+02  0.000000000E+00  0.00000E+00  9.000E+00
      25     1     1     2     0     0 -1.659025362E+02  6.003432149E+01 -1.155121079E+02  2.451444846E+02  1.250000000E+02  0.00000E+00  9.000E+00
      25     1     1     2     0     0  1.660518649E+02 -7.752380657E+01  4.301208631E+01  2.259606205E+02  1.250000000E+02  0.00000E+00  9.000E+00
       2     1     1     2   501     0 -1.493287253E-01  1.748948508E+01  2.204633644E+02  2.211560522E+02  0.000000000E+00  0.00000E+00  9.000E+00
#rwgt            1           1   2.6666512898565007E-002           5      306562           0
</event>
<event>
      5   9999  3.35178E-02  9.46640E+00 -1.00000E+00  1.98551E-01
      21    -1     0     0   502   511  0.000000000E+00  0.000000000E+00  1.056656318E+03  1.056656318E+03  0.000000000E+00  0.00000E+00  9.000E+00
      21    -1     0     0   501   502  0.000000000E+00  0.000000000E+00 -1.526365885E+03  1.526365885E+03  0.000000000E+00  0.00000E+00  9.000E+00
      25     1     1     2     0     0  1.133262620E+01 -7.194779657E+01 -1.279199570E+03  1.287354440E+03  1.250000000E+02  0.00000E+00  9.000E+00
      25     1     1     2     0     0 -1.244600676E+01  6.254709712E+01 -2.228134741E+02  2.633208816E+02  1.250000000E+02  0.00000E+00  9.000E+00
      21     1     1     2   501   511  1.113380568E+00  9.400699450E+00  1.032303477E+03  1.032346881E+03  1.525878906E-05  0.00000E+00  9.000E+00
#rwgt            1           1   4.7978647127425132E-002           5      306730           0
</event>
<event>
      5   9999  3.19816E-02  7.09508E+01 -1.00000E+00  1.30925E-01
      21    -1     0     0   502   512  0.000000000E+00  0.000000000E+00  1.221215796E+03  1.221215796E+03  0.000000000E+00  0.00000E+00  9.000E+00
      21    -1     0     0   501   502  0.000000000E+00  0.000000000E+00 -8.751524805E+02  8.751524805E+02  0.000000000E+00  0.00000E+00  9.000E+00
      25     1     1     2     0     0 -4.066407926E+02  8.208794382E+02  3.058308423E+02  9.738363776E+02  1.250000000E+02  0.00000E+00  9.000E+00
      25     1     1     2     0     0  3.380511418E+02 -8.027278530E+02 -1.739021106E+02  8.969490089E+02  1.250000000E+02  0.00000E+00  9.000E+00
      21     1     1     2   501   512  6.858965081E+01 -1.815158526E+01  2.141345836E+02  2.255828897E+02  0.000000000E+00  0.00000E+00  9.000E+00
#rwgt            1           1   3.5180368694199216E-002           5      306947           0
</event>
<event>
      5   9999  3.19816E-02  9.18548E+01 -1.00000E+00  1.25511E-01
      21    -1     0     0   502   501  0.000000000E+00  0.000000000E+00  5.370656543E+02  5.370656543E+02  0.000000000E+00  0.00000E+00  9.000E+00
      21    -1     0     0   511   502  0.000000000E+00  0.000000000E+00 -3.076701038E+02  3.076701038E+02  0.000000000E+00  0.00000E+00  9.000E+00
      25     1     1     2     0     0 -1.459463595E+02 -6.954891684E+00  4.306034468E+02  4.715856643E+02  1.250000000E+02  0.00000E+00  9.000E+00
      25     1     1     2     0     0  6.120884991E+01 -2.849730170E+01  1.041682706E+01  1.424504468E+02  1.250000000E+02  0.00000E+00  9.000E+00
      21     1     1     2   511   501  8.473750963E+01  3.545219339E+01 -2.116247233E+02  2.306996469E+02  0.000000000E+00  0.00000E+00  9.000E+00
#rwgt            1           1   3.3331711370160388E-002           5      307126           0
</event>
<event>
      5   9999  3.19816E-02  3.08360E+02 -1.00000E+00  1.05206E-01
      21    -1     0     0   502   501  0.000000000E+00  0.000000000E+00  2.454263657E+02  2.454263657E+02  0.000000000E+00  0.00000E+00  9.000E+00
      21    -1     0     0   512   502  0.000000000E+00  0.000000000E+00 -9.757292316E+02  9.757292316E+02  0.000000000E+00  0.00000E+00  9.000E+00
      25     1     1     2     0     0  3.475218387E+01  1.781741796E+01 -1.332137898E+02  1.868049476E+02  1.250000000E+02  0.00000E+00  9.000E+00
      25     1     1     2     0     0  1.602185565E+02  2.210804623E+02  6.206717742E+01  3.066331541E+02  1.250000000E+02  0.00000E+00  9.000E+00
      21     1     1     2   512   501 -1.949707404E+02 -2.388978803E+02 -6.591562536E+02  7.277174956E+02  1.078959322E-05  0.00000E+00  9.000E+00
#rwgt            2          11   3.4175164907968457E-003           5      307195           0
</event>
<event>
      5   9999  3.19816E-02  2.51587E+01 -1.00000E+00  1.58545E-01
      21    -1     0     0   511   501  0.000000000E+00  0.000000000E+00  1.201969588E+03  1.201969588E+03  0.000000000E+00  0.00000E+00  9.000E+00
      21    -1     0     0   501   502  0.000000000E+00  0.000000000E+00 -6.574168388E+02  6.574168388E+02  0.000000000E+00  0.00000E+00  9.000E+00
      25     1     1     2     0     0  2.545695537E+02  6.660499243E+00 -5.868938515E+02  6.518584301E+02  1.250000000E+02  0.00000E+00  9.000E+00
      25     1     1     2     0     0 -2.468048196E+02  1.727001983E+01  4.703532032E+02  5.459560498E+02  1.250000000E+02  0.00000E+00  9.000E+00
      21     1     1     2   511   502 -7.764734146E+00 -2.393051907E+01  6.610933970E+02  6.615719465E+02  0.000000000E+00  0.00000E+00  9.000E+00
#rwgt            1           1   3.0073229562092803E-002           5      307230           0
</event>
<event>
      5   9999  3.90980E-02  1.58617E+01 -1.00000E+00  1.75128E-01
      21    -1     0     0   502   512  0.000000000E+00  0.000000000E+00  1.701376383E+03  1.701376383E+03  0.000000000E+00  0.00000E+00  9.000E+00
      21    -1     0     0   501   502  0.000000000E+00  0.000000000E+00 -1.826212092E+01  1.826212092E+01  0.000000000E+00  0.00000E+00  9.000E+00
      25     1     1     2     0     0  3.682095967E+01 -7.476405162E+01  4.578310808E+02  4.818503347E+02  1.250000000E+02  0.00000E+00  9.000E+00
      25     1     1     2     0     0 -4.043462990E+01  9.020867572E+01  1.132684774E+03  1.143841057E+03  1.250000000E+02  0.00000E+00  9.000E+00
      21     1     1     2   501   512  3.613670233E+00 -1.544462410E+01  9.259840672E+01  9.394711253E+01  0.000000000E+00  0.00000E+00  9.000E+00
#rwgt            1           1  0.11152226575872499                5      307424           0
</event>
<event>
      5   9999  3.19816E-02  3.79033E+01 -1.00000E+00  1.46305E-01
      21    -1     0     0   502   501  0.000000000E+00  0.000000000E+00  6.788646925E+02  6.788646925E+02  0.000000000E+00  0.00000E+00  9.000E+00
      21    -1     0     0   501   511  0.000000000E+00  0.000000000E+00 -3.067078045E+02  3.067078045E+02  0.000000000E+00  0.00000E+00  9.000E+00
      25     1     1     2     0     0 -7.205605829E+01  6.108858693E+01  4.799663600E+02  5.048926596E+02  1.250000000E+02  0.00000E+00  9.000E+00
      25     1     1     2     0     0  1.083510805E+02 -5.016458323E+01  1.446445421E+02  2.253962857E+02  1.250000000E+02  0.00000E+00  9.000E+00
      21     1     1     2   502   511 -3.629502226E+01 -1.092400369E+01 -2.524540141E+02  2.552835517E+02  2.697398305E-06  0.00000E+00  9.000E+00
#rwgt            1           1   2.8022707167982046E-002           5      307576           0
</event>
<event>
      5   9999  3.19816E-02  8.52375E+01 -1.00000E+00  1.27030E-01
      21    -1     0     0   502   501  0.000000000E+00  0.000000000E+00  4.172316213E+02  4.172316213E+02  0.000000000E+00  0.00000E+00  9.000E+00
      -4    -1     0     0     0   502  0.000000000E+00  0.000000000E+00 -4.346637021E+02  4.346637021E+02  0.000000000E+00  0.00000E+00  9.000E+00
      25     1     1     2     0     0 -2.634813695E+02 -2.032895026E+01  4.738575643E+01  2.961521707E+02  1.250000000E+02  0.00000E+00  9.000E+00
      25     1     1     2     0     0  2.104328658E+02  8.704690956E+01  1.669499258E+02  3.087983698E+02  1.250000000E+02  0.00000E+00  9.000E+00
      -4     1     1     2     0   501  5.304850366E+01 -6.671795931E+01 -2.317677630E+02  2.469447829E+02  2.697398305E-06  0.00000E+00  9.000E+00
#rwgt            1           1   2.7278441838926186E-002           5      307652           0
</event>
<event>
      5   9999  3.21584E-02  1.28088E+02 -1.00000E+00  1.19178E-01
      21    -1     0     0   502   501  0.000000000E+00  0.000000000E+00  8.427198789E+02  8.427198789E+02  0.000000000E+00  0.00000E+00  9.000E+00
      21    -1     0     0   511   502  0.000000000E+00  0.000000000E+00 -1.151520691E+03  1.151520691E+03  0.000000000E+00  0.00000E+00  9.000E+00
      25     1     1     2     0     0  2.621637506E+02  1.423907534E+02  3.263383010E+01  3.251075601E+02  1.250000000E+02  0.00000E+00  9.000E+00
      25     1     1     2     0     0 -1.439070128E+02 -1.916042316E+02  6.319699201E+02  6.873371733E+02  1.250000000E+02  0.00000E+00  9.000E+00
      21     1     1     2   511   501 -1.182567378E+02  4.921347818E+01 -9.734045624E+02  9.817958365E+02  1.525878906E-05  0.00000E+00  9.000E+00
#rwgt            1           1   3.1769198735683450E-002           5      307723           0
</event>
<event>
      5   9999  3.19816E-02  1.48683E+02 -1.00000E+00  1.16546E-01
      21    -1     0     0   502   512  0.000000000E+00  0.000000000E+00  6.467222166E+02  6.467222166E+02  0.000000000E+00  0.00000E+00  9.000E+00
      21    -1     0     0   501   502  0.000000000E+00  0.000000000E+00 -5.384435667E+02  5.384435667E+02  0.000000000E+00  0.00000E+00  9.000E+00
      25     1     1     2     0     0  1.692916225E+02 -6.312410910E+00 -4.364892374E+02  4.846105182E+02  1.250000000E+02  0.00000E+00  9.000E+00
      25     1     1     2     0     0 -1.023866278E+02 -1.264669012E+02  9.361602678E+01  2.255346074E+02  1.250000000E+02  0.00000E+00  9.000E+00
      21     1     1     2   501   512 -6.690499466E+01  1.327793121E+02  4.511518605E+02  4.750206577E+02  0.000000000E+00  0.00000E+00  9.000E+00
#rwgt            1           1   2.5928640499689085E-002           5      307805           0
</event>
<event>
      5   9999  3.19816E-02  1.53188E+02 -1.00000E+00  1.16033E-01
       2    -1     0     0   502     0  0.000000000E+00  0.000000000E+00  4.710938982E+02  4.710938982E+02  0.000000000E+00  0.00000E+00  9.000E+00
      21    -1     0     0   501   502  0.000000000E+00  0.000000000E+00 -2.224275713E+02  2.224275713E+02  0.000000000E+00  0.00000E+00  9.000E+00
      25     1     1     2     0     0  8.437467569E+01  1.435946316E+02  2.147419689E+02  2.991280951E+02  1.250000000E+02  0.00000E+00  9.000E+00
      25     1     1     2     0     0 -5.091324872E+01  5.894644177E+00 -1.174617728E+02  1.790228304E+02  1.250000000E+02  0.00000E+00  9.000E+00
       2     1     1     2   501     0 -3.346142698E+01 -1.494892757E+02  1.513861308E+02  2.153705441E+02  2.697398305E-06  0.00000E+00  9.000E+00
#rwgt            1           1   2.7063436573592687E-002           5      307851           0
</event>
<event>
      5   9999  3.57769E-02  7.22855E+01 -1.00000E+00  1.30518E-01
      21    -1     0     0   511   501  0.000000000E+00  0.000000000E+00  7.489721196E+02  7.489721196E+02  0.000000000E+00  0.00000E+00  9.000E+00
      21    -1     0     0   501   502  0.000000000E+00  0.000000000E+00 -1.924962466E+03  1.924962466E+03  0.000000000E+00  0.00000E+00  9.000E+00
      25     1     1     2     0     0 -4.573077860E+00  1.493263974E+02 -1.079707464E+03  1.097138321E+03  1.250000000E+02  0.00000E+00  9.000E+00
      25     1     1     2     0     0  3.742118102E+01 -2.137173554E+02 -8.159503011E+02  8.535076723E+02  1.250000000E+02  0.00000E+00  9.000E+00
      21     1     1     2   511   502 -3.284810316E+01  6.439095805E+01  7.196674193E+02  7.232885924E+02  1.321449896E-05  0.00000E+00  9.000E+00
#rwgt            1           1  0.11026108802367723                5      307878           0
</event>
<event>
      5   9999  3.19816E-02  7.72649E+01 -1.00000E+00  1.29085E-01
      21    -1     0     0   502   512  0.000000000E+00  0.000000000E+00  4.416211563E+02  4.416211563E+02  0.000000000E+00  0.00000E+00  9.000E+00
      21    -1     0     0   501   502  0.000000000E+00  0.000000000E+00 -1.225700443E+03  1.225700443E+03  0.000000000E+00  0.00000E+00  9.000E+00
      25     1     1     2     0     0 -6.182574921E+02 -1.719047691E+02 -6.586174501E+01  6.570816887E+02  1.250000000E+02  0.00000E+00  9.000E+00
      25     1     1     2     0     0  5.582029205E+02  2.205186165E+02 -7.006624832E+02  9.310058410E+02  1.250000000E+02  0.00000E+00  9.000E+00
      21     1     1     2   501   512  6.005457165E+01 -4.861384738E+01 -1.755505873E+01  7.923406982E+01  1.283923342E-06  0.00000E+00  9.000E+00
#rwgt            1           1   2.6607097077916649E-002           5      307962           0
</event>
<event>
      5   9999  3.19816E-02  2.47245E+01 -1.00000E+00  1.59112E-01
      21    -1     0     0   511   501  0.000000000E+00  0.000000000E+00  6.746330999E+02  6.746330999E+02  0.000000000E+00  0.00000E+00  9.000E+00
      21    -1     0     0   501   502  0.000000000E+00  0.000000000E+00 -8.127087323E+02  8.127087323E+02  0.000000000E+00  0.00000E+00  9.000E+00
      25     1     1     2     0     0 -1.034912769E+02  1.868461557E+02  6.161311534E+02  6.639763011E+02  1.250000000E+02  0.00000E+00  9.000E+00
      25     1     1     2     0     0  8.022131733E+01 -1.784909589E+02 -7.626675129E+02  7.972334773E+02  1.250000000E+02  0.00000E+00  9.000E+00
      21     1     1     2   511   502  2.326995958E+01 -8.355196744E+00  8.460727144E+00  2.613205379E+01  5.057621821E-07  0.00000E+00  9.000E+00
#rwgt            1           1   2.5502518365697942E-002           5      308070           0
</event>
<event>
      5   9999  3.19816E-02  3.25084E+01 -1.00000E+00  1.50656E-01
      21    -1     0     0   502   501  0.000000000E+00  0.000000000E+00  5.523687816E+02  5.523687816E+02  0.000000000E+00  0.00000E+00  9.000E+00
      21    -1     0     0   501   512  0.000000000E+00  0.000000000E+00 -3.325477341E+02  3.325477341E+02  0.000000000E+00  0.00000E+00  9.000E+00
      25     1     1     2     0     0 -1.274305378E+02 -3.213280062E+02  7.904098572E+01  3.759823227E+02  1.250000000E+02  0.00000E+00  9.000E+00
      25     1     1     2     0     0  1.564585798E+02  3.359624167E+02  2.015637851E+02  4.400034001E+02  1.250000000E+02  0.00000E+00  9.000E+00
      21     1     1     2   502   512 -2.902804205E+01 -1.463441053E+01 -6.078372331E+01  6.893079295E+01  1.168007728E-06  0.00000E+00  9.000E+00
#rwgt            1           1   2.8861067051741782E-002           5      308273           0
</event>
<event>
      5   9999  3.19816E-02  1.58039E+01 -1.00000E+00  1.75274E-01
      21    -1     0     0   511   501  0.000000000E+00  0.000000000E+00  4.136412554E+02  4.136412554E+02  0.000000000E+00  0.00000E+00  9.000E+00
      21    -1     0     0   501   502  0.000000000E+00  0.000000000E+00 -4.100478245E+02  4.100478245E+02  0.000000000E+00  0.00000E+00  9.000E+00
      25     1     1     2     0     0 -9.083702427E+01 -2.024371382E+02  2.966621613E+02  3.909803037E+02  1.250000000E+02  0.00000E+00  9.000E+00
      25     1     1     2     0     0  7.859934307E+01  1.924370531E+02 -3.199652033E+02  4.015128983E+02  1.250000000E+02  0.00000E+00  9.000E+00
      21     1     1     2   511   502  1.223768119E+01  1.000008510E+01  2.689647295E+01  3.119587794E+01  3.371747881E-07  0.00000E+00  9.000E+00
#rwgt            1           1   2.7488599176815995E-002           5      308427           0
</event>
<event>
      5   9999  3.19816E-02  1.25164E+02 -1.00000E+00  1.19597E-01
      21    -1     0     0   502   501  0.000000000E+00  0.000000000E+00  3.526315136E+02  3.526315136E+02  0.000000000E+00  0.00000E+00  9.000E+00
      21    -1     0     0   512   502  0.000000000E+00  0.000000000E+00 -3.067083708E+02  3.067083708E+02  0.000000000E+00  0.00000E+00  9.000E+00
      25     1     1     2     0     0 -1.831946640E+02  1.857475671E+01 -6.985884145E+00  2.226636681E+02  1.250000000E+02  0.00000E+00  9.000E+00
      25     1     1     2     0     0  2.519947890E+02 -1.231338335E+02  5.244944051E+01  3.115112493E+02  1.250000000E+02  0.00000E+00  9.000E+00
      21     1     1     2   512   501 -6.880012497E+01  1.045590768E+02  4.595864250E-01  1.251649670E+02  1.460484846E-06  0.00000E+00  9.000E+00
#rwgt            1           1   3.3743845599528213E-002           5      308619           0
</event>
<event>
      5   9999  3.19816E-02  2.93898E+02 -1.00000E+00  1.05883E-01
      21    -1     0     0   502   501  0.000000000E+00  0.000000000E+00  1.915603640E+02  1.915603640E+02  0.000000000E+00  0.00000E+00  9.000E+00
      21    -1     0     0   511   502  0.000000000E+00  0.000000000E+00 -1.625829284E+03  1.625829284E+03  0.000000000E+00  0.00000E+00  9.000E+00
      25     1     1     2     0     0 -4.290517025E+02 -1.298593210E+02 -5.774622483E+02  7.416444262E+02  1.250000000E+02  0.00000E+00  9.000E+00
      25     1     1     2     0     0  1.416069137E+02  1.911108302E+02 -1.442851431E+02  3.049902784E+02  1.250000000E+02  0.00000E+00  9.000E+00
      21     1     1     2   511   501  2.874447888E+02 -6.125150918E+01 -7.125215283E+02  7.707549431E+02  1.078959322E-05  0.00000E+00  9.000E+00
#rwgt            1           1   2.7921060013529946E-002           5      308728           0
</event>
<event>
      5   9999  3.19816E-02  5.53240E+00 -1.00000E+00  2.31087E-01
      21    -1     0     0   502   512  0.000000000E+00  0.000000000E+00  7.215357939E+02  7.215357939E+02  0.000000000E+00  0.00000E+00  9.000E+00
      21    -1     0     0   501   502  0.000000000E+00  0.000000000E+00 -2.652847145E+02  2.652847145E+02  0.000000000E+00  0.00000E+00  9.000E+00
      25     1     1     2     0     0  1.886575695E+02 -4.076287751E+00 -1.938482604E+02  2.980108097E+02  1.250000000E+02  0.00000E+00  9.000E+00
      25     1     1     2     0     0 -1.835172179E+02  6.121829866E+00  6.340977298E+02  6.718786921E+02  1.250000000E+02  0.00000E+00  9.000E+00
      21     1     1     2   501   512 -5.140351601E+00 -2.045542115E+00  1.600161009E+01  1.693100655E+01  0.000000000E+00  0.00000E+00  9.000E+00
#rwgt            1           1   2.9926991776022698E-002           5      308788           0
</event>
<event>
      5   9999  3.19816E-02  8.26096E+01 -1.00000E+00  1.27678E-01
      21    -1     0     0   502   501  0.000000000E+00  0.000000000E+00  4.533024603E+02  4.533024603E+02  0.000000000E+00  0.00000E+00  9.000E+00
      21    -1     0     0   501   511  0.000000000E+00  0.000000000E+00 -7.059887959E+02  7.059887959E+02  0.000000000E+00  0.00000E+00  9.000E+00
      25     1     1     2     0     0  1.831356924E+01 -1.753554368E+02 -2.370240994E+02  3.207652408E+02  1.250000000E+02  0.00000E+00  9.000E+00
      25     1     1     2     0     0 -1.009189736E+02  1.761900880E+02  3.721668821E+02  4.419963512E+02  1.250000000E+02  0.00000E+00  9.000E+00
      21     1     1     2   502   511  8.260540435E+01 -8.346512219E-01 -3.878291184E+02  3.965296642E+02  7.629394531E-06  0.00000E+00  9.000E+00
#rwgt            1           1   2.6556415289852631E-002           5      309096           0
</event>
<event>
      5   9999  3.19816E-02  1.05905E+01 -1.00000E+00  1.92920E-01
      21    -1     0     0   502   501  0.000000000E+00  0.000000000E+00  1.225398481E+02  1.225398481E+02  0.000000000E+00  0.00000E+00  9.000E+00
      21    -1     0     0   501   512  0.000000000E+00  0.000000000E+00 -3.469370750E+02  3.469370750E+02  0.000000000E+00  0.00000E+00  9.000E+00
      25     1     1     2     0     0 -5.748957294E+01  1.126678775E+02 -3.302723216E+01  1.808726063E+02  1.250000000E+02  0.00000E+00  9.000E+00
      25     1     1     2     0     0  6.107259427E+01 -1.226338706E+02 -1.303758499E+02  2.266975743E+02  1.250000000E+02  0.00000E+00  9.000E+00
      21     1     1     2   502   512 -3.583021335E+00  9.965993036E+00 -6.099414486E+01  6.190674249E+01  9.536743164E-07  0.00000E+00  9.000E+00
#rwgt            1           1   3.0079445355253188E-002           5      309148           0
</event>
<event>
      5   9999  3.19816E-02  2.93594E+01 -1.00000E+00  1.53694E-01
      21    -1     0     0   502   511  0.000000000E+00  0.000000000E+00  1.371369119E+03  1.371369119E+03  0.000000000E+00  0.00000E+00  9.000E+00
      21    -1     0     0   501   502  0.000000000E+00  0.000000000E+00 -2.127567647E+02  2.127567647E+02  0.000000000E+00  0.00000E+00  9.000E+00
      25     1     1     2     0     0 -3.521624118E+02  4.232411777E+01  5.585600984E+02  6.733677144E+02  1.250000000E+02  0.00000E+00  9.000E+00
      25     1     1     2     0     0  3.268189265E+02 -5.714570595E+01  4.782933883E+01  3.577553467E+02  1.250000000E+02  0.00000E+00  9.000E+00
      21     1     1     2   501   511  2.534348534E+01  1.482158818E+01  5.522229168E+02  5.530028224E+02  1.078959322E-05  0.00000E+00  9.000E+00
#rwgt            1           1   2.5485788153245141E-002           5      309318           0
</event>
<event>
      5   9999  3.19816E-02  5.25184E+01 -1.00000E+00  1.37869E-01
      21    -1     0     0   512   501  0.000000000E+00  0.000000000E+00  7.889285826E+01  7.889285826E+01  0.000000000E+00  0.00000E+00  9.000E+00
      21    -1     0     0   501   502  0.000000000E+00  0.000000000E+00 -7.552195266E+02  7.552195266E+02  0.000000000E+00  0.00000E+00  9.000E+00
      25     1     1     2     0     0  2.649674937E+01 -7.151435255E+00 -6.331999071E+02  6.460033616E+02  1.250000000E+02  0.00000E+00  9.000E+00
      25     1     1     2     0     0  2.595101074E+01  9.875297690E+00 -4.453856780E+01  1.355716065E+02  1.250000000E+02  0.00000E+00  9.000E+00
      21     1     1     2   512   502 -5.244776011E+01 -2.723862435E+00  1.411806599E+00  5.253741681E+01  3.813649384E-07  0.00000E+00  9.000E+00
#rwgt            1           1   3.3913026835191422E-002           5      309466           0
</event>
<event>
      5   9999  3.19816E-02  4.13309E+02 -1.00000E+00  1.01260E-01
      21    -1     0     0   502   501  0.000000000E+00  0.000000000E+00  8.943318395E+02  8.943318395E+02  0.000000000E+00  0.00000E+00  9.000E+00
      21    -1     0     0   501   511  0.000000000E+00  0.000000000E+00 -6.338220687E+02  6.338220687E+02  0.000000000E+00  0.00000E+00  9.000E+00
      25     1     1     2     0     0  7.581518557E+01 -1.223028190E+02  1.804736224E+02  2.624912385E+02  1.250000000E+02  0.00000E+00  9.000E+00
      25     1     1     2     0     0  3.331093904E+02  1.823446058E+02  5.239948194E+02  6.590955864E+02  1.250000000E+02  0.00000E+00  9.000E+00
      21     1     1     2   502   511 -4.089245760E+02 -6.004178683E+01 -4.439586710E+02  6.065670833E+02  7.629394531E-06  0.00000E+00  9.000E+00
#rwgt            2          11   9.0507944559472583E-003           5      309606           0
</event>
<event>
      5   9999  3.19816E-02  4.85552E+01 -1.00000E+00  1.39806E-01
      21    -1     0     0   512   501  0.000000000E+00  0.000000000E+00  6.159795813E+02  6.159795813E+02  0.000000000E+00  0.00000E+00  9.000E+00
      21    -1     0     0   501   502  0.000000000E+00  0.000000000E+00 -5.331946459E+01  5.331946459E+01  0.000000000E+00  0.00000E+00  9.000E+00
      25     1     1     2     0     0 -6.503786519E+01 -1.401197799E+01  1.291233931E+02  1.916353570E+02  1.250000000E+02  0.00000E+00  9.000E+00
      25     1     1     2     0     0  7.249305818E+01 -3.396744401E+01  2.841762838E+02  3.206090938E+02  1.250000000E+02  0.00000E+00  9.000E+00
      21     1     1     2   512   502 -7.455192986E+00  4.797942200E+01  1.493604399E+02  1.570545951E+02  1.907348633E-06  0.00000E+00  9.000E+00
#rwgt            1           1   4.4540557691569699E-002           5      309626           0
</event>
<event>
      5   9999  3.19816E-02  5.80106E+02 -1.00000E+00  9.70525E-02
       1    -1     0     0   502     0  0.000000000E+00  0.000000000E+00  2.002693166E+03  2.002693166E+03  0.000000000E+00  0.00000E+00  9.000E+00
      21    -1     0     0   501   502  0.000000000E+00  0.000000000E+00 -3.115665933E+02  3.115665933E+02  0.000000000E+00  0.00000E+00  9.000E+00
      25     1     1     2     0     0  3.937493727E+02 -4.499718729E+02  4.526813458E+02  7.603016873E+02  1.250000000E+02  0.00000E+00  9.000E+00
      25     1     1     2     0     0 -2.416866316E+02 -1.098493402E+02  7.139435344E+02  7.718935650E+02  1.250000000E+02  0.00000E+00  9.000E+00
       1     1     1     2   501     0 -1.520627411E+02  5.598212131E+02  5.245016927E+02  7.820645072E+02  7.629394531E-06  0.00000E+00  9.000E+00
#rwgt            2          17   3.8070025582693585E-004           5      309693           0
</event>
<event>
      5   9999  3.19816E-02  3.16694E+01 -1.00000E+00  1.51424E-01
      21    -1     0     0   502   501  0.000000000E+00  0.000000000E+00  1.433761694E+03  1.433761694E+03  0.000000000E+00  0.00000E+00  9.000E+00
      21    -1     0     0   501   511  0.000000000E+00  0.000000000E+00 -6.501916288E+01  6.501916288E+01  0.000000000E+00  0.00000E+00  9.000E+00
      25     1     1     2     0     0 -1.260202728E+02 -1.509322684E+02  1.101828429E+03  1.126193831E+03  1.250000000E+02  0.00000E+00  9.000E+00
      25     1     1     2     0     0  9.733292154E+01  1.643482511E+02  2.356544821E+02  3.280885249E+02  1.250000000E+02  0.00000E+00  9.000E+00
      21     1     1     2   502   511  2.868735125E+01 -1.341598270E+01  3.125962001E+01  4.449850062E+01  0.000000000E+00  0.00000E+00  9.000E+00
#rwgt            1           1   2.8333000309846802E-002           5      309712           0
</event>
<event>
      5   9999  3.19816E-02  1.58134E+01 -1.00000E+00  1.75250E-01
      21    -1     0     0   502   501  0.000000000E+00  0.000000000E+00  5.091963404E+02  5.091963404E+02  0.000000000E+00  0.00000E+00  9.000E+00
       3    -1     0     0   501     0  0.000000000E+00  0.000000000E+00 -9.882141653E+02  9.882141653E+02  0.000000000E+00  0.00000E+00  9.000E+00
      25     1     1     2     0     0 -4.256069540E+01  2.859457729E+01  3.732485316E+02  3.969490257E+02  1.250000000E+02  0.00000E+00  9.000E+00
      25     1     1     2     0     0  3.294159982E+01 -4.114593623E+01  8.693717945E+01  1.611248281E+02  1.250000000E+02  0.00000E+00  9.000E+00
       3     1     1     2   502     0  9.619095580E+00  1.255135893E+01 -9.392035360E+02  9.393366519E+02  1.868812365E-05  0.00000E+00  9.000E+00
#rwgt            1           1   6.7814033500376916E-002           5      309841           0
</event>
<event>
      5   9999  3.19816E-02  2.75352E+01 -1.00000E+00  1.55672E-01
      21    -1     0     0   511   501  0.000000000E+00  0.000000000E+00  2.001815397E+03  2.001815397E+03  0.000000000E+00  0.00000E+00  9.000E+00
      21    -1     0     0   501   502  0.000000000E+00  0.000000000E+00 -1.701532239E+02  1.701532239E+02  0.000000000E+00  0.00000E+00  9.000E+00
      25     1     1     2     0     0  1.306558144E+01  7.707499834E+00 -1.307891189E+02  1.815513938E+02  1.250000000E+02  0.00000E+00  9.000E+00
      25     1     1     2     0     0  1.437062536E+01 -5.374989322E+00  2.719877630E+02  2.997294591E+02  1.250000000E+02  0.00000E+00  9.000E+00
      21     1     1     2   511   502 -2.743620680E+01 -2.332510512E+00  1.690463529E+03  1.690687768E+03  3.051757812E-05  0.00000E+00  9.000E+00
#rwgt            1           1   2.8839452784554690E-002           5      309960           0
</event>
<event>
      5   9999  3.19816E-02  7.61433E+00 -1.00000E+00  2.10516E-01
      21    -1     0     0   512   501  0.000000000E+00  0.000000000E+00  4.779734917E+02  4.779734917E+02  0.000000000E+00  0.00000E+00  9.000E+00
      21    -1     0     0   501   502  0.000000000E+00  0.000000000E+00 -1.947213540E+02  1.947213540E+02  0.000000000E+00  0.00000E+00  9.000E+00
      25     1     1     2     0     0 -2.329661431E+02  5.210710195E+01  1.826015255E+00  2.694748750E+02  1.250000000E+02  0.00000E+00  9.000E+00
      25     1     1     2     0     0  2.386983699E+02 -4.709515413E+01  2.489374408E+02  3.698509358E+02  1.250000000E+02  0.00000E+00  9.000E+00
      21     1     1     2   512   502 -5.732226744E+00 -5.011947817E+00  3.248868175E+01  3.336903484E+01  0.000000000E+00  0.00000E+00  9.000E+00
#rwgt            1           1   2.7722545301484512E-002           5      310135           0
</event>
<event>
      5   9999  3.19816E-02  8.77825E+01 -1.00000E+00  1.26428E-01
      21    -1     0     0   502   501  0.000000000E+00  0.000000000E+00  5.334124073E+01  5.334124073E+01  0.000000000E+00  0.00000E+00  9.000E+00
      -1    -1     0     0     0   502  0.000000000E+00  0.000000000E+00 -1.920348923E+03  1.920348923E+03  0.000000000E+00  0.00000E+00  9.000E+00
      25     1     1     2     0     0 -1.785670769E+02 -1.103660473E+02 -8.467279049E+02  8.812718141E+02  1.250000000E+02  0.00000E+00  9.000E+00
      25     1     1     2     0     0  1.051431119E+02  1.584771820E+02 -3.571170079E+02  4.234709536E+02  1.250000000E+02  0.00000E+00  9.000E+00
      -1     1     1     2     0   501  7.342396502E+01 -4.811113466E+01 -6.631627698E+02  6.689473964E+02  0.000000000E+00  0.00000E+00  9.000E+00
#rwgt            2          10   2.2243878248949555E-005           5      310532           0
</event>
<event>
      5   9999  3.19816E-02  4.02575E+01 -1.00000E+00  1.44668E-01
      21    -1     0     0   502   501  0.000000000E+00  0.000000000E+00  1.085511399E+03  1.085511399E+03  0.000000000E+00  0.00000E+00  9.000E+00
      -2    -1     0     0     0   502  0.000000000E+00  0.000000000E+00 -1.786246737E+02  1.786246737E+02  0.000000000E+00  0.00000E+00  9.000E+00
      25     1     1     2     0     0 -2.091617433E+02 -8.797930326E+01  7.029742355E+02  7.491907423E+02  1.250000000E+02  0.00000E+00  9.000E+00
      25     1     1     2     0     0  2.065508074E+02  4.780660357E+01  3.132855065E+02  3.983986898E+02  1.250000000E+02  0.00000E+00  9.000E+00
      -2     1     1     2     0   501  2.610935902E+00  4.017269969E+01 -1.093730164E+02  1.165466409E+02  4.264961200E-06  0.00000E+00  9.000E+00
#rwgt            1           1   2.8913739140037333E-002           5      310551           0
</event>
<event>
      5   9999  3.19816E-02  7.99585E+01 -1.00000E+00  1.28360E-01
      21    -1     0     0   502   501  0.000000000E+00  0.000000000E+00  1.405896087E+03  1.405896087E+03  0.000000000E+00  0.00000E+00  9.000E+00
      21    -1     0     0   501   511  0.000000000E+00  0.000000000E+00 -7.063700380E+02  7.063700380E+02  0.000000000E+00  0.00000E+00  9.000E+00
      25     1     1     2     0     0  1.713455629E+02 -4.822104042E+02 -5.856498680E+01  5.300387095E+02  1.250000000E+02  0.00000E+00  9.000E+00
      25     1     1     2     0     0 -2.399770315E+02  4.411849778E+02  1.108203893E+03  1.223100172E+03  1.250000000E+02  0.00000E+00  9.000E+00
      21     1     1     2   502   511  6.863146860E+01  4.102542635E+01 -3.501128578E+02  3.591272438E+02  0.000000000E+00  0.00000E+00  9.000E+00
#rwgt            2          11   6.9331676237933708E-003           5      310667           0
</event>
<event>
      5   9999  3.19816E-02  2.64216E+01 -1.00000E+00  1.56973E-01
       2    -1     0     0   502     0  0.000000000E+00  0.000000000E+00  1.084531872E+03  1.084531872E+03  0.000000000E+00  0.00000E+00  9.000E+00
      21    -1     0     0   501   502  0.000000000E+00  0.000000000E+00 -6.220398218E+01  6.220398218E+01  0.000000000E+00  0.00000E+00  9.000E+00
      25     1     1     2     0     0  1.273517026E+01  1.066985191E+02  1.638386606E+02  2.324109835E+02  1.250000000E+02  0.00000E+00  9.000E+00
      25     1     1     2     0     0  1.023876457E+01 -1.197484369E+02  2.444024544E+02  2.996699521E+02  1.250000000E+02  0.00000E+00  9.000E+00
       2     1     1     2   501     0 -2.297393483E+01  1.304991781E+01  6.140867746E+02  6.146549185E+02  7.629394531E-06  0.00000E+00  9.000E+00
#rwgt            1           1   3.5805636588039910E-002           5      310687           0
</event>
<event>
      5   9999  3.19816E-02  3.52459E+01 -1.00000E+00  1.48333E-01
      21    -1     0     0   502   501  0.000000000E+00  0.000000000E+00  1.367719011E+03  1.367719011E+03  0.000000000E+00  0.00000E+00  9.000E+00
      21    -1     0     0   501   511  0.000000000E+00  0.000000000E+00 -4.124284152E+02  4.124284152E+02  0.000000000E+00  0.00000E+00  9.000E+00
      25     1     1     2     0     0  2.308631842E+02  5.702677540E+02  5.856045742E+02  8.585224740E+02  1.250000000E+02  0.00000E+00  9.000E+00
      25     1     1     2     0     0 -1.995026356E+02 -5.863546252E+02  4.878792995E+02  7.982883307E+02  1.250000000E+02  0.00000E+00  9.000E+00
      21     1     1     2   502   511 -3.136054868E+01  1.608687117E+01 -1.181932775E+02  1.233366218E+02  1.348699152E-06  0.00000E+00  9.000E+00
#rwgt            1           1   2.6475534636607401E-002           5      310785           0
</event>
<event>
      5   9999  3.19816E-02  6.72212E+01 -1.00000E+00  1.32118E-01
       3    -1     0     0   502     0  0.000000000E+00  0.000000000E+00  1.653476470E+03  1.653476470E+03  0.000000000E+00  0.00000E+00  9.000E+00
      21    -1     0     0   501   502  0.000000000E+00  0.000000000E+00 -3.449705056E+02  3.449705056E+02  0.000000000E+00  0.00000E+00  9.000E+00
      25     1     1     2     0     0 -3.367177251E+02  3.221127700E+02  2.264975964E+02  5.329743185E+02  1.250000000E+02  0.00000E+00  9.000E+00
      25     1     1     2     0     0  3.919470809E+02 -3.604326371E+02  2.022506305E+02  5.831505103E+02  1.250000000E+02  0.00000E+00  9.000E+00
       3     1     1     2   501     0 -5.522935585E+01  3.831986713E+01  8.797577374E+02  8.823221466E+02  1.868812365E-05  0.00000E+00  9.000E+00
#rwgt            1           1   2.9445925091063516E-002           5      310952           0
</event>
<event>
      5   9999  3.19816E-02  3.76755E+01 -1.00000E+00  1.46471E-01
      21    -1     0     0   511   501  0.000000000E+00  0.000000000E+00  5.190037711E+02  5.190037711E+02  0.000000000E+00  0.00000E+00  9.000E+00
      21    -1     0     0   501   502  0.000000000E+00  0.000000000E+00 -5.227028036E+02  5.227028036E+02  0.000000000E+00  0.00000E+00  9.000E+00
      25     1     1     2     0     0 -7.915873088E+01  3.501363886E+02  2.498276027E+02  4.548630853E+02  1.250000000E+02  0.00000E+00  9.000E+00
      25     1     1     2     0     0  9.094352984E+01 -3.143514989E+02 -3.426881810E+02  4.900487526E+02  1.250000000E+02  0.00000E+00  9.000E+00
      21     1     1     2   511   502 -1.178479896E+01 -3.578488971E+01  8.916154582E+01  9.679473679E+01  1.348699152E-06  0.00000E+00  9.000E+00
#rwgt            1           1   3.1211636301707521E-002           5      311060           0
</event>
<event>
      5   9999  3.19816E-02  1.78354E+02 -1.00000E+00  1.13490E-01
      21    -1     0     0   502   501  0.000000000E+00  0.000000000E+00  2.558791323E+02  2.558791323E+02  0.000000000E+00  0.00000E+00  9.000E+00
      21    -1     0     0   501   512  0.000000000E+00  0.000000000E+00 -1.350367892E+03  1.350367892E+03  0.000000000E+00  0.00000E+00  9.000E+00
      25     1     1     2     0     0 -1.422519993E+02 -1.732314540E+01  1.975221081E+02  2.741818846E+02  1.250000000E+02  0.00000E+00  9.000E+00
      25     1     1     2     0     0 -2.766138482E+01 -3.689473118E+01 -7.417656936E+02  7.536363298E+02  1.250000000E+02  0.00000E+00  9.000E+00
      21     1     1     2   502   512  1.699133841E+02  5.421787658E+01 -5.502451738E+02  5.784288094E+02  7.629394531E-06  0.00000E+00  9.000E+00
#rwgt            1           1   2.8776831156237501E-002           5      311207           0
</event>
<event>
      5   9999  3.19816E-02  4.55496E+01 -1.00000E+00  1.41425E-01
      21    -1     0     0   511   501  0.000000000E+00  0.000000000E+00  2.430623466E+02  2.430623466E+02  0.000000000E+00  0.00000E+00  9.000E+00
      21    -1     0     0   501   502  0.000000000E+00  0.000000000E+00 -1.461041238E+03  1.461041238E+03  0.000000000E+00  0.00000E+00  9.000E+00
      25     1     1     2     0     0  1.301128769E+02 -2.641731312E+02 -9.595689771E+02  1.011491189E+03  1.250000000E+02  0.00000E+00  9.000E+00
      25     1     1     2     0     0 -9.670914299E+01  2.332060343E+02 -4.305626530E+02  5.145356264E+02  1.250000000E+02  0.00000E+00  9.000E+00
      21     1     1     2   511   502 -3.340373387E+01  3.096709693E+01  1.721527382E+02  1.780767694E+02  4.672030912E-06  0.00000E+00  9.000E+00
#rwgt            1           1   2.9981168260195503E-002           5      311255           0
</event>
<event>
      5   9999  3.19816E-02  2.48424E+01 -1.00000E+00  1.58957E-01
      21    -1     0     0   502   512  0.000000000E+00  0.000000000E+00  1.405426483E+03  1.405426483E+03  0.000000000E+00  0.00000E+00  9.000E+00
      21    -1     0     0   501   502  0.000000000E+00  0.000000000E+00 -9.872825520E+01  9.872825520E+01  0.000000000E+00  0.00000E+00  9.000E+00
      25     1     1     2     0     0 -5.077347071E+01  2.392871556E+02  1.075146211E+03  1.109684939E+03  1.250000000E+02  0.00000E+00  9.000E+00
      25     1     1     2     0     0  2.709719890E+01 -2.468089598E+02  1.646033623E+02  3.230606564E+02  1.250000000E+02  0.00000E+00  9.000E+00
      21     1     1     2   501   512  2.367627181E+01  7.521804196E+00  6.694865466E+01  7.140914330E+01  9.536743164E-07  0.00000E+00  9.000E+00
#rwgt            1           1   2.7824548786381680E-002           5      311397           0
</event>
<event>
      5   9999  3.19816E-02  6.65159E+01 -1.00000E+00  1.32354E-01
      21    -1     0     0   502   501  0.000000000E+00  0.000000000E+00  1.673326777E+03  1.673326777E+03  0.000000000E+00  0.00000E+00  9.000E+00
       2    -1     0     0   501     0  0.000000000E+00  0.000000000E+00 -8.342778032E+02  8.342778032E+02  0.000000000E+00  0.00000E+00  9.000E+00
      25     1     1     2     0     0  2.150771585E+02 -2.655476163E+02  9.074556778E+01  3.750113048E+02  1.250000000E+02  0.00000E+00  9.000E+00
      25     1     1     2     0     0 -2.809879079E+02  2.565959827E+02  1.410908852E+03  1.466657592E+03  1.250000000E+02  0.00000E+00  9.000E+00
       2     1     1     2   502     0  6.591074938E+01  8.951633620E+00 -6.626054457E+02  6.659356840E+02  1.321449896E-05  0.00000E+00  9.000E+00
#rwgt            1           1   3.4759396809068546E-002           5      311530           0
</event>
<event>
      5   9999  3.19816E-02  6.93626E+02 -1.00000E+00  9.49746E-02
      21    -1     0     0   502   511  0.000000000E+00  0.000000000E+00  3.055798626E+03  3.055798626E+03  0.000000000E+00  0.00000E+00  9.000E+00
      21    -1     0     0   501   502  0.000000000E+00  0.000000000E+00 -4.547946199E+02  4.547946199E+02  0.000000000E+00  0.00000E+00  9.000E+00
      25     1     1     2     0     0 -5.596170018E+02 -8.233376190E+02  1.042673943E+03  1.447014159E+03  1.250000000E+02  0.00000E+00  9.000E+00
      25     1     1     2     0     0 -6.257868357E+01  5.167608912E+02  2.680887338E+02  5.987106809E+02  1.250000000E+02  0.00000E+00  9.000E+00
      21     1     1     2   501   511  6.221956853E+02  3.065767278E+02  1.290241329E+03  1.464868407E+03  0.000000000E+00  0.00000E+00  9.000E+00
#rwgt            2          11   4.8649949061789933E-004           5      311675           0
</event>
<event>
      5   9999  3.19816E-02  1.28665E+02 -1.00000E+00  1.19097E-01
       3    -1     0     0   502     0  0.000000000E+00  0.000000000E+00  1.696201675E+02  1.696201675E+02  0.000000000E+00  0.00000E+00  9.000E+00
      21    -1     0     0   501   502  0.000000000E+00  0.000000000E+00 -3.669558950E+03  3.669558950E+03  0.000000000E+00  0.00000E+00  9.000E+00
      25     1     1     2     0     0  4.308631714E+02  4.854029515E+02 -1.457113655E+03  1.600020094E+03  1.250000000E+02  0.00000E+00  9.000E+00
      25     1     1     2     0     0 -5.385693310E+02 -5.557872718E+02 -1.823557943E+03  1.984929466E+03  1.250000000E+02  0.00000E+00  9.000E+00
       3     1     1     2   501     0  1.077061596E+02  7.038432035E+01 -2.192671846E+02  2.542295569E+02  2.697398305E-06  0.00000E+00  9.000E+00
#rwgt            1           1   4.1670547446936740E-002           5      311695           0
</event>
<event>
      5   9999  3.19816E-02  2.18269E+02 -1.00000E+00  1.10283E-01
      21    -1     0     0   502   501  0.000000000E+00  0.000000000E+00  6.878624584E+02  6.878624584E+02  0.000000000E+00  0.00000E+00  9.000E+00
       1    -1     0     0   501     0  0.000000000E+00  0.000000000E+00 -1.740285236E+03  1.740285236E+03  0.000000000E+00  0.00000E+00  9.000E+00
      25     1     1     2     0     0 -2.794675639E+02 -6.715084623E+02  4.530669948E+01  7.393939621E+02  1.250000000E+02  0.00000E+00  9.000E+00
      25     1     1     2     0     0  1.495335191E+02  8.468899612E+02 -3.981094557E+02  9.558760477E+02  1.250000000E+02  0.00000E+00  9.000E+00
       1     1     1     2   502     0  1.299340447E+02 -1.753814989E+02 -6.996200216E+02  7.328776847E+02  0.000000000E+00  0.00000E+00  9.000E+00
#rwgt            1           1   2.7020078921431264E-002           5      311764           0
</event>
<event>
      5   9999  3.19816E-02  3.12300E+01 -1.00000E+00  1.51838E-01
      21    -1     0     0   511   501  0.000000000E+00  0.000000000E+00  1.574880323E+03  1.574880323E+03  0.000000000E+00  0.00000E+00  9.000E+00
      21    -1     0     0   501   502  0.000000000E+00  0.000000000E+00 -3.557185936E+01  3.557185936E+01  0.000000000E+00  0.00000E+00  9.000E+00
      25     1     1     2     0     0  8.744447841E+01 -6.628168034E+01  7.570959954E+02  7.751510460E+02  1.250000000E+02  0.00000E+00  9.000E+00
      25     1     1     2     0     0 -1.182699988E+02  7.129145277E+01  3.071715944E+02  3.592348149E+02  1.250000000E+02  0.00000E+00  9.000E+00
      21     1     1     2   511   502  3.082552040E+01 -5.009772431E+00  4.750408737E+02  4.760663212E+02  7.629394531E-06  0.00000E+00  9.000E+00
#rwgt            2          11   7.3876962773229552E-004           5      312101           0
</event>
<event>
      5   9999  3.19816E-02  3.97455E+02 -1.00000E+00  1.01769E-01
      21    -1     0     0   502   512  0.000000000E+00  0.000000000E+00  6.754615477E+02  6.754615477E+02  0.000000000E+00  0.00000E+00  9.000E+00
      21    -1     0     0   501   502  0.000000000E+00  0.000000000E+00 -1.685716490E+03  1.685716490E+03  0.000000000E+00  0.00000E+00  9.000E+00
      25     1     1     2     0     0 -1.161739379E+02 -2.194542842E+02 -1.257091358E+02  3.050972853E+02  1.250000000E+02  0.00000E+00  9.000E+00
      25     1     1     2     0     0  4.920471291E+02  3.486440081E+02 -1.326015674E+03  1.462055262E+03  1.250000000E+02  0.00000E+00  9.000E+00
      21     1     1     2   501   512 -3.758731912E+02 -1.291897239E+02  4.414698669E+02  5.940254910E+02  0.000000000E+00  0.00000E+00  9.000E+00
#rwgt            1           1   1.9728295842423565E-002           5      312121           0
</event>
<event>
      5   9999  3.19816E-02  4.89851E+01 -1.00000E+00  1.39586E-01
      21    -1     0     0   502   511  0.000000000E+00  0.000000000E+00  3.665734417E+02  3.665734417E+02  0.000000000E+00  0.00000E+00  9.000E+00
      21    -1     0     0   501   502  0.000000000E+00  0.000000000E+00 -8.191130999E+02  8.191130999E+02  0.000000000E+00  0.00000E+00  9.000E+00
      25     1     1     2     0     0  4.792359446E+02 -1.829962059E+02 -3.638824619E+02  6.412410998E+02  1.250000000E+02  0.00000E+00  9.000E+00
      25     1     1     2     0     0 -4.377841500E+02  1.568947258E+02 -1.048788260E+02  4.928442808E+02  1.250000000E+02  0.00000E+00  9.000E+00
      21     1     1     2   501   511 -4.145179469E+01  2.610148007E+01  1.622162967E+01  5.160116098E+01  2.384185791E-07  0.00000E+00  9.000E+00
#rwgt            1           1   2.5902558944647307E-002           5      312164           0
</event>
<event>
      5   9999  3.19816E-02  4.93286E+01 -1.00000E+00  1.39411E-01
      21    -1     0     0   512   501  0.000000000E+00  0.000000000E+00  5.613329261E+01  5.613329261E+01  0.000000000E+00  0.00000E+00  9.000E+00
      21    -1     0     0   501   502  0.000000000E+00  0.000000000E+00 -1.429922598E+03  1.429922598E+03  0.000000000E+00  0.00000E+00  9.000E+00
      25     1     1     2     0     0 -3.151844106E+00 -1.632778400E+02 -2.898366789E+02  3.553869547E+02  1.250000000E+02  0.00000E+00  9.000E+00
      25     1     1     2     0     0 -4.524133913E+01  1.537171008E+02 -1.053003889E+03  1.072435507E+03  1.250000000E+02  0.00000E+00  9.000E+00
      21     1     1     2   512   502  4.839318324E+01  9.560739128E+00 -3.094873745E+01  5.823342911E+01  0.000000000E+00  0.00000E+00  9.000E+00
#rwgt            1           1   3.9494234396298747E-002           5      312252           0
</event>
<event>
      5   9999  3.19816E-02  1.37090E+02 -1.00000E+00  1.17964E-01
      21    -1     0     0   502   501  0.000000000E+00  0.000000000E+00  2.951144394E+02  2.951144394E+02  0.000000000E+00  0.00000E+00  9.000E+00
      21    -1     0     0   511   502  0.000000000E+00  0.000000000E+00 -6.361040744E+02  6.361040744E+02  0.000000000E+00  0.00000E+00  9.000E+00
      25     1     1     2     0     0 -1.571302983E+02 -3.106825243E+02 -2.810915128E+02  4.645976756E+02  1.250000000E+02  0.00000E+00  9.000E+00
      25     1     1     2     0     0  2.137667498E+02  1.858384587E+02  1.581624707E+01  3.100117896E+02  1.250000000E+02  0.00000E+00  9.000E+00
      21     1     1     2   511   501 -5.663645147E+01  1.248440657E+02 -7.571436925E+01  1.566090485E+02  1.907348633E-06  0.00000E+00  9.000E+00
#rwgt            1           1   2.7801356861688491E-002           5      312415           0
</event>
<event>
      5   9999  3.19816E-02  1.11829E+02 -1.00000E+00  1.21683E-01
       2    -1     0     0   502     0  0.000000000E+00  0.000000000E+00  1.552170727E+03  1.552170727E+03  0.000000000E+00  0.00000E+00  9.000E+00
      21    -1     0     0   501   502  0.000000000E+00  0.000000000E+00 -5.818101012E+01  5.818101012E+01  0.000000000E+00  0.00000E+00  9.000E+00
      25     1     1     2     0     0  2.796776722E+01 -9.624637053E+01  1.121149432E+03  1.132539892E+03  1.250000000E+02  0.00000E+00  9.000E+00
      25     1     1     2     0     0  8.361812589E+01  8.887444308E+01  1.576861086E+02  2.353307597E+02  1.250000000E+02  0.00000E+00  9.000E+00
       2     1     1     2   501     0 -1.115858931E+02  7.371927450E+00  2.151541764E+02  2.424810848E+02  5.394796609E-06  0.00000E+00  9.000E+00
#rwgt            1           1   1.7123742443196331E-002           5      312515           0
</event>
<event>
      5   9999  3.19816E-02  3.58292E+02 -1.00000E+00  1.03145E-01
      21    -1     0     0   511   501  0.000000000E+00  0.000000000E+00  8.697076755E+02  8.697076755E+02  0.000000000E+00  0.00000E+00  9.000E+00
      21    -1     0     0   501   502  0.000000000E+00  0.000000000E+00 -5.752592706E+02  5.752592706E+02  0.000000000E+00  0.00000E+00  9.000E+00
      25     1     1     2     0     0 -2.352282266E+02 -3.385094414E+01  3.651860205E+02  4.532814077E+02  1.250000000E+02  0.00000E+00  9.000E+00
      25     1     1     2     0     0  4.683164957E+02  3.059594622E+02 -2.054495049E+02  6.089056017E+02  1.250000000E+02  0.00000E+00  9.000E+00
      21     1     1     2   511   502 -2.330882691E+02 -2.721085180E+02  1.347118893E+02  3.827799367E+02  6.031565972E-06  0.00000E+00  9.000E+00
#rwgt            2          11   3.2678920182612195E-003           5      312559           0
</event>
<event>
      5   9999  3.19816E-02  4.21225E+01 -1.00000E+00  1.43461E-01
      21    -1     0     0   502   501  0.000000000E+00  0.000000000E+00  5.858233512E+02  5.858233512E+02  0.000000000E+00  0.00000E+00  9.000E+00
      21    -1     0     0   501   512  0.000000000E+00  0.000000000E+00 -1.614042098E+02  1.614042098E+02  0.000000000E+00  0.00000E+00  9.000E+00
      25     1     1     2     0     0 -1.094362442E+02 -1.241203637E+02  1.173430288E+02  2.382782882E+02  1.250000000E+02  0.00000E+00  9.000E+00
      25     1     1     2     0     0  9.330499156E+01  8.520907630E+01  3.829386418E+02  4.221769907E+02  1.250000000E+02  0.00000E+00  9.000E+00
      21     1     1     2   502   512  1.613125264E+01  3.891128741E+01 -7.586252914E+01  8.677228202E+01  1.907348633E-06  0.00000E+00  9.000E+00
#rwgt            1           1   2.9311726962373882E-002           5      312579           0
</event>
<event>
      5   9999  3.19816E-02  1.63566E+02 -1.00000E+00  1.14923E-01
      21    -1     0     0   511   501  0.000000000E+00  0.000000000E+00  1.779837236E+02  1.779837236E+02  0.000000000E+00  0.00000E+00  9.000E+00
      21    -1     0     0   501   502  0.000000000E+00  0.000000000E+00 -5.639010055E+02  5.639010055E+02  0.000000000E+00  0.00000E+00  9.000E+00
      25     1     1     2     0     0 -1.014255155E+02  7.291731044E+01 -6.936102700E+01  1.898420960E+02  1.250000000E+02  0.00000E+00  9.000E+00
      25     1     1     2     0     0  1.515694585E+01 -2.118835637E+02 -2.990669989E+02  3.875441232E+02  1.250000000E+02  0.00000E+00  9.000E+00
      21     1     1     2   511   502  8.626856967E+01  1.389662533E+02 -1.748925595E+01  1.644985098E+02  1.907348633E-06  0.00000E+00  9.000E+00
#rwgt            2          11   3.3436647179776809E-003           5      312676           0
</event>
<event>
      5   9999  3.19816E-02  3.10861E+01 -1.00000E+00  1.51975E-01
       2    -1     0     0   502     0  0.000000000E+00  0.000000000E+00  8.118770332E+02  8.118770332E+02  0.000000000E+00  0.00000E+00  9.000E+00
      21    -1     0     0   501   502  0.000000000E+00  0.000000000E+00 -3.284111843E+02  3.284111843E+02  0.000000000E+00  0.00000E+00  9.000E+00
      25     1     1     2     0     0 -1.829541752E+02  1.260698844E+02 -2.070371294E+02  3.284131832E+02  1.250000000E+02  0.00000E+00  9.000E+00
      25     1     1     2     0     0  1.607554585E+02 -1.478313275E+02  2.028101343E+02  3.231924650E+02  1.250000000E+02  0.00000E+00  9.000E+00
       2     1     1     2   501     0  2.219871667E+01  2.176144315E+01  4.876928440E+02  4.886825693E+02  5.394796609E-06  0.00000E+00  9.000E+00
#rwgt            1           1   3.0020161088756374E-002           5      312696           0
</event>
<event>
      5   9999  3.19816E-02  6.57869E+01 -1.00000E+00  1.32601E-01
      21    -1     0     0   511   501  0.000000000E+00  0.000000000E+00  5.140247999E+02  5.140247999E+02  0.000000000E+00  0.00000E+00  9.000E+00
      21    -1     0     0   501   502  0.000000000E+00  0.000000000E+00 -1.068028038E+03  1.068028038E+03  0.000000000E+00  0.00000E+00  9.000E+00
      25     1     1     2     0     0  1.007912487E+02 -5.453209591E+02 -5.856131166E+02  8.161504436E+02  1.250000000E+02  0.00000E+00  9.000E+00
      25     1     1     2     0     0 -1.598860757E+02  5.164121309E+02 -1.483039992E+02  5.743379861E+02  1.250000000E+02  0.00000E+00  9.000E+00
      21     1     1     2   511   502  5.909482697E+01  2.890882816E+01  1.799138780E+02  1.915644080E+02  3.814697266E-06  0.00000E+00  9.000E+00
#rwgt            1           1   2.3613297646861708E-002           5      312873           0
</event>
<event>
      5   9999  3.19816E-02  7.28808E+01 -1.00000E+00  1.30340E-01
       1    -1     0     0   502     0  0.000000000E+00  0.000000000E+00  1.981494943E+03  1.981494943E+03  0.000000000E+00  0.00000E+00  9.000E+00
      21    -1     0     0   501   502  0.000000000E+00  0.000000000E+00 -2.531483300E+02  2.531483300E+02  0.000000000E+00  0.00000E+00  9.000E+00
      25     1     1     2     0     0  7.518254785E+01 -1.089292891E+02 -1.933201057E+02  2.655478654E+02  1.250000000E+02  0.00000E+00  9.000E+00
      25     1     1     2     0     0 -8.900392056E+01  1.804875176E+02  1.855803417E+03  1.870863107E+03  1.250000000E+02  0.00000E+00  9.000E+00
       1     1     1     2   501     0  1.382137271E+01 -7.155822844E+01  6.586330129E+01  9.823230048E+01  1.651812370E-06  0.00000E+00  9.000E+00
#rwgt            1           1   2.9611448693552492E-002           5      312953           0
</event>
<event>
      5   9999  3.19816E-02  9.72124E+01 -1.00000E+00  1.24383E-01
      21    -1     0     0   502   501  0.000000000E+00  0.000000000E+00  5.721624032E+02  5.721624032E+02  0.000000000E+00  0.00000E+00  9.000E+00
      21    -1     0     0   511   502  0.000000000E+00  0.000000000E+00 -5.449608060E+02  5.449608060E+02  0.000000000E+00  0.00000E+00  9.000E+00
      25     1     1     2     0     0 -1.515881630E+02  3.918235935E+02 -6.858668000E+01  4.436595905E+02  1.250000000E+02  0.00000E+00  9.000E+00
      25     1     1     2     0     0  1.839122701E+02 -4.835046218E+02  1.614657598E+02  5.561444363E+02  1.250000000E+02  0.00000E+00  9.000E+00
      21     1     1     2   511   501 -3.232410710E+01  9.168102835E+01 -6.567748261E+01  1.173191825E+02  2.132480600E-06  0.00000E+00  9.000E+00
#rwgt            1           1   2.4975374032308418E-002           5      313030           0
</event>
<event>
      5   9999  3.19816E-02  7.33078E+01 -1.00000E+00  1.30213E-01
      21    -1     0     0   502   512  0.000000000E+00  0.000000000E+00  6.532981680E+02  6.532981680E+02  0.000000000E+00  0.00000E+00  9.000E+00
      21    -1     0     0   501   502  0.000000000E+00  0.000000000E+00 -1.678683730E+02  1.678683730E+02  0.000000000E+00  0.00000E+00  9.000E+00
      25     1     1     2     0     0  1.791736029E+02 -1.063152507E+02  2.841625694E+02  3.738709381E+02  1.250000000E+02  0.00000E+00  9.000E+00
      25     1     1     2     0     0 -2.339511125E+02  5.759707492E+01  4.560725835E+01  2.752372942E+02  1.250000000E+02  0.00000E+00  9.000E+00
      21     1     1     2   501   512  5.477750959E+01  4.871817577E+01  1.556599672E+02  1.720583087E+02  1.907348633E-06  0.00000E+00  9.000E+00
#rwgt            1           1   2.6687723649547409E-002           5      313094           0
</event>
<event>
      5   9999  3.19816E-02  2.82059E+01 -1.00000E+00  1.54924E-01
      21    -1     0     0   502   511  0.000000000E+00  0.000000000E+00  1.561910546E+03  1.561910546E+03  0.000000000E+00  0.00000E+00  9.000E+00
      21    -1     0     0   501   502  0.000000000E+00  0.000000000E+00 -2.648662055E+01  2.648662055E+01  0.000000000E+00  0.00000E+00  9.000E+00
      25     1     1     2     0     0  6.227311721E+01  6.158846646E+01  2.673048925E+02  3.078116078E+02  1.250000000E+02  0.00000E+00  9.000E+00
      25     1     1     2     0     0 -7.380846357E+01 -3.584922786E+01  1.028546571E+03  1.039358410E+03  1.250000000E+02  0.00000E+00  9.000E+00
      21     1     1     2   501   511  1.153534636E+01 -2.573923860E+01  2.395724623E+02  2.412271488E+02  3.814697266E-06  0.00000E+00  9.000E+00
#rwgt            1           1   4.5724009676900608E-002           5      313226           0
</event>
<event>
      5   9999  3.19816E-02  3.83367E+02 -1.00000E+00  1.02244E-01
      21    -1     0     0   502   512  0.000000000E+00  0.000000000E+00  1.146740450E+03  1.146740450E+03  0.000000000E+00  0.00000E+00  9.000E+00
      21    -1     0     0   501   502  0.000000000E+00  0.000000000E+00 -1.933145008E+03  1.933145008E+03  0.000000000E+00  0.00000E+00  9.000E+00
      25     1     1     2     0     0  1.593512869E+01 -8.854115786E+02 -4.764737152E+02  1.013340907E+03  1.250000000E+02  0.00000E+00  9.000E+00
      25     1     1     2     0     0  3.660578671E+02  9.178451394E+02 -9.135119928E+02  1.351505539E+03  1.250000000E+02  0.00000E+00  9.000E+00
      21     1     1     2   501   512 -3.819929958E+02 -3.243356071E+01  6.035811493E+02  7.150390119E+02  1.525878906E-05  0.00000E+00  9.000E+00
#rwgt            2          11   3.1497873507742255E-003           5      313337           0
</event>
<event>
      5   9999  3.42590E-02  4.88610E+01 -1.00000E+00  1.39649E-01
      21    -1     0     0   502   501  0.000000000E+00  0.000000000E+00  8.349748438E+02  8.349748438E+02  0.000000000E+00  0.00000E+00  9.000E+00
      21    -1     0     0   511   502  0.000000000E+00  0.000000000E+00 -1.645299930E+03  1.645299930E+03  0.000000000E+00  0.00000E+00  9.000E+00
      25     1     1     2     0     0  3.726253037E+02  4.137189445E+00 -1.520057374E+03  1.570052914E+03  1.250000000E+02  0.00000E+00  9.000E+00
      25     1     1     2     0     0 -3.237690562E+02 -3.454997352E+00  7.628221058E+02  8.380697488E+02  1.250000000E+02  0.00000E+00  9.000E+00
      21     1     1     2   511   501 -4.885624753E+01 -6.821920929E-01 -5.308981779E+01  7.215211059E+01  6.743495762E-07  0.00000E+00  9.000E+00
#rwgt            1           1   7.9779984982094765E-002           5      313357           0
</event>
<event>
      5   9999  3.19816E-02  8.46941E+00 -1.00000E+00  2.04485E-01
      -1    -1     0     0     0   501  0.000000000E+00  0.000000000E+00  4.780055123E+02  4.780055123E+02  0.000000000E+00  0.00000E+00  9.000E+00
      21    -1     0     0   501   502  0.000000000E+00  0.000000000E+00 -1.937385717E+02  1.937385717E+02  0.000000000E+00  0.00000E+00  9.000E+00
      25     1     1     2     0     0 -3.818178468E+01 -1.476465483E+02 -7.194565470E+00  1.973172919E+02  1.250000000E+02  0.00000E+00  9.000E+00
      25     1     1     2     0     0  4.429700349E+01  1.535061593E+02  2.112201356E+01  2.039546639E+02  1.250000000E+02  0.00000E+00  9.000E+00
      -1     1     1     2     0   502 -6.115218813E+00 -5.859611009E+00  2.703394925E+02  2.704721282E+02  5.394796609E-06  0.00000E+00  9.000E+00
#rwgt            1           1   3.5297760871897454E-002           5      313503           0
</event>
<event>
      5   9999  3.19816E-02  5.52475E+01 -1.00000E+00  1.36647E-01
      21    -1     0     0   502   501  0.000000000E+00  0.000000000E+00  1.260228411E+03  1.260228411E+03  0.000000000E+00  0.00000E+00  9.000E+00
      21    -1     0     0   501   511  0.000000000E+00  0.000000000E+00 -2.708440855E+02  2.708440855E+02  0.000000000E+00  0.00000E+00  9.000E+00
      25     1     1     2     0     0  3.573137916E+02  8.520629711E+01  5.133701513E+01  3.913997290E+02  1.250000000E+02  0.00000E+00  9.000E+00
      25     1     1     2     0     0 -3.741438173E+02 -3.258464105E+01  9.885330031E+02  1.064832312E+03  1.250000000E+02  0.00000E+00  9.000E+00
      21     1     1     2   502   511  1.683002566E+01 -5.262165606E+01 -5.048569322E+01  7.484045477E+01  6.743495762E-07  0.00000E+00  9.000E+00
#rwgt            1           1   2.6809120221802932E-002           5      313694           0
</event>
<event>
      5   9999  3.19816E-02  1.34468E+02 -1.00000E+00  1.18307E-01
      21    -1     0     0   502   512  0.000000000E+00  0.000000000E+00  6.708961009E+02  6.708961009E+02  0.000000000E+00  0.00000E+00  9.000E+00
      21    -1     0     0   501   502  0.000000000E+00  0.000000000E+00 -1.063188684E+03  1.063188684E+03  0.000000000E+00  0.00000E+00  9.000E+00
      25     1     1     2     0     0  3.817972736E+02 -3.975690367E+02  2.472508385E+02  6.169183692E+02  1.250000000E+02  0.00000E+00  9.000E+00
      25     1     1     2     0     0 -5.145313484E+02  4.190913951E+02 -6.974195588E+02  9.707724485E+02  1.250000000E+02  0.00000E+00  9.000E+00
      21     1     1     2   501   512  1.327340748E+02 -2.152235840E+01  5.787613675E+01  1.463939675E+02  3.303624740E-06  0.00000E+00  9.000E+00
#rwgt            1           1   3.0727252190875229E-002           5      313799           0
</event>
<event>
      5   9999  3.19816E-02  3.93055E+02 -1.00000E+00  1.01915E-01
       2    -1     0     0   502     0  0.000000000E+00  0.000000000E+00  3.461102481E+03  3.461102481E+03  0.000000000E+00  0.00000E+00  9.000E+00
      21    -1     0     0   501   502  0.000000000E+00  0.000000000E+00 -6.380920308E+02  6.380920308E+02  0.000000000E+00  0.00000E+00  9.000E+00
      25     1     1     2     0     0 -6.040226710E+02 -2.051869598E+01 -3.159645827E+02  6.933419225E+02  1.250000000E+02  0.00000E+00  9.000E+00
      25     1     1     2     0     0  6.796410270E+02  4.062313974E+02  2.700667472E+03  2.817120102E+03  1.250000000E+02  0.00000E+00  9.000E+00
       2     1     1     2   501     0 -7.561835599E+01 -3.857127015E+02  4.383075612E+02  5.887324876E+02  7.629394531E-06  0.00000E+00  9.000E+00
#rwgt            2          18   1.8179203381915852E-003           5      314125           0
</event>
<event>
      5   9999  3.19816E-02  2.23665E+02 -1.00000E+00  1.09908E-01
       1    -1     0     0   502     0  0.000000000E+00  0.000000000E+00  1.710721294E+03  1.710721294E+03  0.000000000E+00  0.00000E+00  9.000E+00
      21    -1     0     0   501   502  0.000000000E+00  0.000000000E+00 -1.340375713E+02  1.340375713E+02  0.000000000E+00  0.00000E+00  9.000E+00
      25     1     1     2     0     0 -4.090763926E+02 -1.390133026E+02  6.799241103E+02  8.152238889E+02  1.250000000E+02  0.00000E+00  9.000E+00
      25     1     1     2     0     0  2.284793946E+02  7.063424540E+00  3.314616508E+02  4.215976181E+02  1.250000000E+02  0.00000E+00  9.000E+00
       1     1     1     2   501     0  1.805969980E+02  1.319498781E+02  5.652979619E+02  6.079373584E+02  1.078959322E-05  0.00000E+00  9.000E+00
#rwgt            1           1   2.9334462434469161E-002           5      314159           0
</event>
<event>
      5   9999  3.19816E-02  5.74573E+02 -1.00000E+00  9.71665E-02
      21    -1     0     0   511   501  0.000000000E+00  0.000000000E+00  2.589902093E+03  2.589902093E+03  0.000000000E+00  0.00000E+00  9.000E+00
      21    -1     0     0   501   502  0.000000000E+00  0.000000000E+00 -7.599526321E+02  7.599526321E+02  0.000000000E+00  0.00000E+00  9.000E+00
      25     1     1     2     0     0  7.207732766E+02 -2.809478833E+02  6.864216362E+02  1.041751166E+03  1.250000000E+02  0.00000E+00  9.000E+00
      25     1     1     2     0     0 -1.186032939E+03  6.180943166E+02  4.707340604E+02  1.423351774E+03  1.250000000E+02  0.00000E+00  9.000E+00
      21     1     1     2   511   502  4.652596628E+02 -3.371464334E+02  6.727937644E+02  8.847517848E+02  1.321449896E-05  0.00000E+00  9.000E+00
#rwgt            2          11   1.5955587377096943E-003           5      314258           0
</event>
<event>
      5   9999  3.19816E-02  5.05988E+01 -1.00000E+00  1.38781E-01
      21    -1     0     0   502   501  0.000000000E+00  0.000000000E+00  2.236077523E+02  2.236077523E+02  0.000000000E+00  0.00000E+00  9.000E+00
      -1    -1     0     0     0   502  0.000000000E+00  0.000000000E+00 -1.296473625E+03  1.296473625E+03  0.000000000E+00  0.00000E+00  9.000E+00
      25     1     1     2     0     0  3.326616618E+02  3.773611908E+02 -5.128618960E+02  7.291896694E+02  1.250000000E+02  0.00000E+00  9.000E+00
      25     1     1     2     0     0 -2.822480339E+02 -3.816864775E+02 -5.535887000E+02  7.398878081E+02  1.250000000E+02  0.00000E+00  9.000E+00
      -1     1     1     2     0   501 -5.041362787E+01  4.325286641E+00 -6.415276160E+00  5.100389933E+01  1.238859277E-06  0.00000E+00  9.000E+00
#rwgt            1           1   3.0984830378940082E-002           5      314293           0
</event>
<event>
      5   9999  3.19816E-02  1.15656E+02 -1.00000E+00  1.21052E-01
      21    -1     0     0   502   501  0.000000000E+00  0.000000000E+00  4.163001126E+02  4.163001126E+02  0.000000000E+00  0.00000E+00  9.000E+00
      21    -1     0     0   511   502  0.000000000E+00  0.000000000E+00 -3.944651420E+02  3.944651420E+02  0.000000000E+00  0.00000E+00  9.000E+00
      25     1     1     2     0     0  2.226288060E+02 -2.407530612E+02 -5.668677737E+01  3.554771616E+02  1.250000000E+02  0.00000E+00  9.000E+00
      25     1     1     2     0     0 -2.257663504E+02  1.251396827E+02  1.455412081E+02  3.216172079E+02  1.250000000E+02  0.00000E+00  9.000E+00
      21     1     1     2   511   501  3.137544420E+00  1.156133784E+02 -6.701946012E+01  1.336708850E+02  3.303624740E-06  0.00000E+00  9.000E+00
#rwgt            1           1   2.5637620755380636E-002           5      314437           0
</event>
<event>
      5   9999  3.19816E-02  1.74769E+02 -1.00000E+00  1.13822E-01
      21    -1     0     0   502   512  0.000000000E+00  0.000000000E+00  5.650431717E+02  5.650431717E+02  0.000000000E+00  0.00000E+00  9.000E+00
      21    -1     0     0   501   502  0.000000000E+00  0.000000000E+00 -1.274114800E+03  1.274114800E+03  0.000000000E+00  0.00000E+00  9.000E+00
      25     1     1     2     0     0 -2.049733036E+01 -5.131244729E+02  1.630024064E+02  5.530928039E+02  1.250000000E+02  0.00000E+00  9.000E+00
      25     1     1     2     0     0 -1.452772212E+02  5.684701801E+02 -9.258436459E+02  1.103211346E+03  1.250000000E+02  0.00000E+00  9.000E+00
      21     1     1     2   501   512  1.657745516E+02 -5.534570713E+01  5.376961103E+01  1.828538223E+02  1.907348633E-06  0.00000E+00  9.000E+00
#rwgt            1           1   2.7123743591378587E-002           5      314480           0
</event>
<event>
      5   9999  3.19816E-02  8.06400E+00 -1.00000E+00  2.07219E-01
      21    -1     0     0   502   501  0.000000000E+00  0.000000000E+00  3.152416618E+02  3.152416618E+02  0.000000000E+00  0.00000E+00  9.000E+00
      21    -1     0     0   511   502  0.000000000E+00  0.000000000E+00 -2.130322890E+02  2.130322890E+02  0.000000000E+00  0.00000E+00  9.000E+00
      25     1     1     2     0     0  7.510015961E+01 -1.103938241E+02 -1.168981960E+02  2.170645494E+02  1.250000000E+02  0.00000E+00  9.000E+00
      25     1     1     2     0     0 -7.560045368E+01  1.023453565E+02  2.340264828E+02  2.942505654E+02  1.250000000E+02  0.00000E+00  9.000E+00
      21     1     1     2   511   501  5.002940708E-01  8.048467624E+00 -1.491891393E+01  1.695883599E+01  2.384185791E-07  0.00000E+00  9.000E+00
#rwgt            1           1   2.6476625819686857E-002           5      314563           0
</event>
<event>
      5   9999  3.19816E-02  9.60725E+01 -1.00000E+00  1.24616E-01
      21    -1     0     0   502   501  0.000000000E+00  0.000000000E+00  3.366541424E+02  3.366541424E+02  0.000000000E+00  0.00000E+00  9.000E+00
      21    -1     0     0   501   512  0.000000000E+00  0.000000000E+00 -1.199933645E+03  1.199933645E+03  0.000000000E+00  0.00000E+00  9.000E+00
      25     1     1     2     0     0 -8.420524189E+01  5.263165547E+02 -3.443946251E+02  6.467861287E+02  1.250000000E+02  0.00000E+00  9.000E+00
      25     1     1     2     0     0  5.002736922E+01 -4.365290039E+02 -1.101302441E+02  4.699084800E+02  1.250000000E+02  0.00000E+00  9.000E+00
      21     1     1     2   502   512  3.417787267E+01 -8.978755086E+01 -4.087546334E+02  4.198931788E+02  9.344061824E-06  0.00000E+00  9.000E+00
#rwgt            1           1   2.7548419442257482E-002           5      314771           0
</event>
<event>
      5   9999  3.19816E-02  1.11598E+02 -1.00000E+00  1.21722E-01
      21    -1     0     0   502   501  0.000000000E+00  0.000000000E+00  1.621318195E+03  1.621318195E+03  0.000000000E+00  0.00000E+00  9.000E+00
      21    -1     0     0   511   502  0.000000000E+00  0.000000000E+00 -6.789986974E+01  6.789986974E+01  0.000000000E+00  0.00000E+00  9.000E+00
      25     1     1     2     0     0 -1.256976729E+01  1.038165119E+02  1.076757165E+03  1.089021056E+03  1.250000000E+02  0.00000E+00  9.000E+00
      25     1     1     2     0     0  1.590552370E+01 -2.153649445E+02  2.885391608E+02  3.814641429E+02  1.250000000E+02  0.00000E+00  9.000E+00
      21     1     1     2   511   501 -3.335756410E+00  1.115484325E+02  1.881219992E+02  2.187328660E+02  3.814697266E-06  0.00000E+00  9.000E+00
#rwgt            1           1   3.5516100213638623E-002           5      314865           0
</event>
<event>
      5   9999  3.19816E-02  1.64768E+02 -1.00000E+00  1.14800E-01
      21    -1     0     0   502   512  0.000000000E+00  0.000000000E+00  3.047241600E+02  3.047241600E+02  0.000000000E+00  0.00000E+00  9.000E+00
      21    -1     0     0   501   502  0.000000000E+00  0.000000000E+00 -9.972783033E+02  9.972783033E+02  0.000000000E+00  0.00000E+00  9.000E+00
      25     1     1     2     0     0  2.644761111E+02  3.362303292E+01 -3.640198923E+02  4.682025242E+02  1.250000000E+02  0.00000E+00  9.000E+00
      25     1     1     2     0     0 -4.149487290E+02  3.350825199E+01 -4.526218278E+02  6.275322857E+02  1.250000000E+02  0.00000E+00  9.000E+00
      21     1     1     2   501   512  1.504726179E+02 -6.713128491E+01  1.240875767E+02  2.062676534E+02  2.697398305E-06  0.00000E+00  9.000E+00
#rwgt            1           1   2.4836984285801233E-002           5      314934           0
</event>
<event>
      5   9999  3.19816E-02  8.56775E+01 -1.00000E+00  1.26925E-01
      21    -1     0     0   502   511  0.000000000E+00  0.000000000E+00  6.305145719E+02  6.305145719E+02  0.000000000E+00  0.00000E+00  9.000E+00
      21    -1     0     0   501   502  0.000000000E+00  0.000000000E+00 -8.728168335E+02  8.728168335E+02  0.000000000E+00  0.00000E+00  9.000E+00
      25     1     1     2     0     0  1.668869257E+02  9.132104822E+01 -5.477946154E+02  5.932071481E+02  1.250000000E+02  0.00000E+00  9.000E+00
      25     1     1     2     0     0 -1.486924749E+02 -1.750443671E+02 -2.418102113E+02  3.561560905E+02  1.250000000E+02  0.00000E+00  9.000E+00
      21     1     1     2   501   511 -1.819445081E+01  8.372331889E+01  5.473025651E+02  5.539681669E+02  7.629394531E-06  0.00000E+00  9.000E+00
#rwgt            1           1   3.1550260928270263E-002           5      315013           0
</event>
<event>
      5   9999  3.19816E-02  6.33337E+01 -1.00000E+00  1.33460E-01
      21    -1     0     0   502   501  0.000000000E+00  0.000000000E+00  3.012753880E+02  3.012753880E+02  0.000000000E+00  0.00000E+00  9.000E+00
      21    -1     0     0   512   502  0.000000000E+00  0.000000000E+00 -9.414867249E+02  9.414867249E+02  0.000000000E+00  0.00000E+00  9.000E+00
      25     1     1     2     0     0  6.867665186E+01  2.273587391E+02  2.115281755E+02  3.417274466E+02  1.250000000E+02  0.00000E+00  9.000E+00
      25     1     1     2     0     0 -3.736588727E+01 -1.723060537E+02 -7.556537230E+02  7.859536467E+02  1.250000000E+02  0.00000E+00  9.000E+00
      21     1     1     2   512   501 -3.131076459E+01 -5.505268538E+01 -9.608578931E+01  1.150810195E+02  0.000000000E+00  0.00000E+00  9.000E+00
#rwgt            1           1   2.3959916781163375E-002           5      315099           0
</event>
<event>
      5   9999  3.19816E-02  3.17702E+01 -1.00000E+00  1.51330E-01
      21    -1     0     0   502   501  0.000000000E+00  0.000000000E+00  1.453130424E+03  1.453130424E+03  0.000000000E+00  0.00000E+00  9.000E+00
      21    -1     0     0   501   511  0.000000000E+00  0.000000000E+00 -1.134843529E+02  1.134843529E+02  0.000000000E+00  0.00000E+00  9.000E+00
      25     1     1     2     0     0  3.591926062E+01 -3.528903041E+02  4.943324459E+02  6.211371242E+02  1.250000000E+02  0.00000E+00  9.000E+00
      25     1     1     2     0     0 -6.433426137E+01  3.386799602E+02  8.351695109E+02  9.121272524E+02  1.250000000E+02  0.00000E+00  9.000E+00
      21     1     1     2   502   511  2.841500076E+01  1.421034388E+01  1.014411419E+01  3.335040021E+01  5.331201500E-07  0.00000E+00  9.000E+00
#rwgt            1           1   2.8617945749574245E-002           5      315219           0
</event>
<event>
      5   9999  3.19816E-02  1.24892E+02 -1.00000E+00  1.19636E-01
      21    -1     0     0   512   501  0.000000000E+00  0.000000000E+00  5.558025905E+02  5.558025905E+02  0.000000000E+00  0.00000E+00  9.000E+00
      21    -1     0     0   501   502  0.000000000E+00  0.000000000E+00 -1.549366265E+03  1.549366265E+03  0.000000000E+00  0.00000E+00  9.000E+00
      25     1     1     2     0     0  1.219723444E+02 -2.359101872E+02 -4.495500470E+02  5.368902253E+02  1.250000000E+02  0.00000E+00  9.000E+00
      25     1     1     2     0     0 -2.466119846E+02  2.438494246E+02 -1.015597718E+03  1.080436827E+03  1.250000000E+02  0.00000E+00  9.000E+00
      21     1     1     2   512   502  1.246396402E+02 -7.939237356E+00  4.715840900E+02  4.878418036E+02  9.344061824E-06  0.00000E+00  9.000E+00
#rwgt            2          11   1.5895478610679213E-002           5      315385           0
</event>
<event>
      5   9999  3.19816E-02  8.28122E+01 -1.00000E+00  1.27627E-01
      21    -1     0     0   502   501  0.000000000E+00  0.000000000E+00  4.058420180E+02  4.058420180E+02  0.000000000E+00  0.00000E+00  9.000E+00
      21    -1     0     0   501   511  0.000000000E+00  0.000000000E+00 -5.899923703E+02  5.899923703E+02  0.000000000E+00  0.00000E+00  9.000E+00
      25     1     1     2     0     0  9.214016444E+01  8.011392002E+01  3.420993111E+02  3.841418862E+02  1.250000000E+02  0.00000E+00  9.000E+00
      25     1     1     2     0     0 -1.652421751E+02 -4.120428995E+01 -4.580286045E+02  5.043986246E+02  1.250000000E+02  0.00000E+00  9.000E+00
      21     1     1     2   502   511  7.310201063E+01 -3.890963007E+01 -6.822105890E+01  1.072938775E+02  1.348699152E-06  0.00000E+00  9.000E+00
#rwgt            1           1   3.0360265683947167E-002           5      315405           0
</event>
<event>
      5   9999  3.19816E-02  1.56282E+01 -1.00000E+00  1.75721E-01
      21    -1     0     0   512   501  0.000000000E+00  0.000000000E+00  3.776019982E+01  3.776019982E+01  0.000000000E+00  0.00000E+00  9.000E+00
      21    -1     0     0   501   502  0.000000000E+00  0.000000000E+00 -1.732313643E+03  1.732313643E+03  0.000000000E+00  0.00000E+00  9.000E+00
      25     1     1     2     0     0 -2.129067270E+02  1.746586208E+01 -7.377428339E+02  7.781541105E+02  1.250000000E+02  0.00000E+00  9.000E+00
      25     1     1     2     0     0  1.987284809E+02 -2.403990196E+01 -9.390989576E+02  9.682989095E+02  1.250000000E+02  0.00000E+00  9.000E+00
      21     1     1     2   512   502  1.417824602E+01  6.574039880E+00 -1.771165135E+01  2.362082247E+01  5.840038640E-07  0.00000E+00  9.000E+00
#rwgt            1           1   3.6171556303696242E-002           5      315516           0
</event>
<event>
      5   9999  3.19816E-02  2.40248E+01 -1.00000E+00  1.60056E-01
      21    -1     0     0   502   501  0.000000000E+00  0.000000000E+00  7.436137891E+01  7.436137891E+01  0.000000000E+00  0.00000E+00  9.000E+00
      21    -1     0     0   511   502  0.000000000E+00  0.000000000E+00 -6.050693022E+02  6.050693022E+02  0.000000000E+00  0.00000E+00  9.000E+00
      25     1     1     2     0     0  7.892552110E+01 -1.363958045E+02 -2.007128184E+02  2.841543398E+02  1.250000000E+02  0.00000E+00  9.000E+00
      25     1     1     2     0     0 -5.561066803E+01  1.305985785E+02 -2.618136493E+02  3.229859471E+02  1.250000000E+02  0.00000E+00  9.000E+00
      21     1     1     2   511   501 -2.331485307E+01  5.797226000E+00 -6.818145565E+01  7.229039423E+01  1.348699152E-06  0.00000E+00  9.000E+00
#rwgt            1           1   2.5629876650591826E-002           5      315719           0
</event>
<event>
      5   9999  3.19816E-02  1.01009E+02 -1.00000E+00  1.23632E-01
      21    -1     0     0   502   501  0.000000000E+00  0.000000000E+00  2.358883025E+02  2.358883025E+02  0.000000000E+00  0.00000E+00  9.000E+00
      21    -1     0     0   501   512  0.000000000E+00  0.000000000E+00 -5.770729953E+02  5.770729953E+02  0.000000000E+00  0.00000E+00  9.000E+00
      25     1     1     2     0     0 -3.199351937E+02  1.179493864E+01 -1.351169134E+02  3.692955849E+02  1.250000000E+02  0.00000E+00  9.000E+00
      25     1     1     2     0     0  2.192552460E+02 -1.994672388E+01 -5.046411088E+01  2.581518180E+02  1.250000000E+02  0.00000E+00  9.000E+00
      21     1     1     2   502   512  1.006799478E+02  8.151785241E+00 -1.556036686E+02  1.855138948E+02  1.907348633E-06  0.00000E+00  9.000E+00
#rwgt            1           1   2.7288104976037349E-002           5      315847           0
</event>
<event>
      5   9999  3.19816E-02  5.15817E+01 -1.00000E+00  1.38308E-01
      21    -1     0     0   502   511  0.000000000E+00  0.000000000E+00  1.155571818E+03  1.155571818E+03  0.000000000E+00  0.00000E+00  9.000E+00
      21    -1     0     0   501   502  0.000000000E+00  0.000000000E+00 -3.069037029E+02  3.069037029E+02  0.000000000E+00  0.00000E+00  9.000E+00
      25     1     1     2     0     0  3.419106322E+02 -1.009490811E+02 -1.040694635E+02  3.918533535E+02  1.250000000E+02  0.00000E+00  9.000E+00
      25     1     1     2     0     0 -3.926605701E+02  1.101746157E+02  9.043492508E+02  9.998966630E+02  1.250000000E+02  0.00000E+00  9.000E+00
      21     1     1     2   501   511  5.074993792E+01 -9.225534624E+00  4.838832757E+01  7.072550412E+01  1.168007728E-06  0.00000E+00  9.000E+00
#rwgt            1           1   2.7307469783006279E-002           5      315943           0
</event>
<event>
      5   9999  3.19816E-02  9.36854E+01 -1.00000E+00  1.25116E-01
      21    -1     0     0   512   501  0.000000000E+00  0.000000000E+00  2.481717035E+02  2.481717035E+02  0.000000000E+00  0.00000E+00  9.000E+00
      21    -1     0     0   501   502  0.000000000E+00  0.000000000E+00 -4.552551208E+02  4.552551208E+02  0.000000000E+00  0.00000E+00  9.000E+00
      25     1     1     2     0     0 -1.705536129E+02  1.724657783E+02 -5.967659852E+01  2.793193083E+02  1.250000000E+02  0.00000E+00  9.000E+00
      25     1     1     2     0     0  9.095693206E+01 -2.218754950E+02 -1.800740526E+02  3.248900786E+02  1.250000000E+02  0.00000E+00  9.000E+00
      21     1     1     2   512   502  7.959668085E+01  4.940971673E+01  3.266723383E+01  9.921743735E+01  2.078484985E-06  0.00000E+00  9.000E+00
#rwgt            1           1   2.5976803352763558E-002           5      316145           0
</event>
<event>
      5   9999  3.19816E-02  1.09907E+02 -1.00000E+00  1.22010E-01
      21    -1     0     0   502   511  0.000000000E+00  0.000000000E+00  2.158514453E+02  2.158514453E+02  0.000000000E+00  0.00000E+00  9.000E+00
      21    -1     0     0   501   502  0.000000000E+00  0.000000000E+00 -6.786243347E+02  6.786243347E+02  0.000000000E+00  0.00000E+00  9.000E+00
      25     1     1     2     0     0 -6.793007107E+01  2.546362896E+02 -2.627278150E+02  3.925621471E+02  1.250000000E+02  0.00000E+00  9.000E+00
      25     1     1     2     0     0  1.775324551E+02 -2.464576245E+02 -2.126512325E+02  3.912859312E+02  1.250000000E+02  0.00000E+00  9.000E+00
      21     1     1     2   501   511 -1.096023841E+02 -8.178665177E+00  1.260615804E+01  1.106277017E+02  2.152379761E-06  0.00000E+00  9.000E+00
#rwgt            1           1   2.7029504905937404E-002           5      316242           0
</event>
<event>
      5   9999  3.19816E-02  1.60992E+02 -1.00000E+00  1.15189E-01
      21    -1     0     0   502   501  0.000000000E+00  0.000000000E+00  2.553036809E+03  2.553036809E+03  0.000000000E+00  0.00000E+00  9.000E+00
      21    -1     0     0   512   502  0.000000000E+00  0.000000000E+00 -1.431239536E+02  1.431239536E+02  0.000000000E+00  0.00000E+00  9.000E+00
      25     1     1     2     0     0  4.095623454E+02  1.182415657E+02  1.276972333E+03  1.352037619E+03  1.250000000E+02  0.00000E+00  9.000E+00
      25     1     1     2     0     0 -5.458171115E+02 -3.249244534E+01  9.137059481E+02  1.072126689E+03  1.250000000E+02  0.00000E+00  9.000E+00
      21     1     1     2   512   501  1.362547660E+02 -8.574912036E+01  2.192345742E+02  2.719964548E+02  0.000000000E+00  0.00000E+00  9.000E+00
#rwgt            1           1   2.7982144586451117E-002           5      316321           0
</event>
<event>
      5   9999  3.19816E-02  1.68735E+01 -1.00000E+00  1.72700E-01
      21    -1     0     0   502   501  0.000000000E+00  0.000000000E+00  2.241963377E+02  2.241963377E+02  0.000000000E+00  0.00000E+00  9.000E+00
      21    -1     0     0   511   502  0.000000000E+00  0.000000000E+00 -3.581552547E+02  3.581552547E+02  0.000000000E+00  0.00000E+00  9.000E+00
      25     1     1     2     0     0 -7.378944472E+01 -1.091492247E+02 -7.429323246E+01  1.962216089E+02  1.250000000E+02  0.00000E+00  9.000E+00
      25     1     1     2     0     0  7.082397471E+01  1.257600810E+02  1.068239075E+02  2.187875238E+02  1.250000000E+02  0.00000E+00  9.000E+00
      21     1     1     2   511   501  2.965470005E+00 -1.661085622E+01 -1.664895920E+02  1.673424597E+02  3.303624740E-06  0.00000E+00  9.000E+00
#rwgt            1           1   2.7474769524243287E-002           5      316392           0
</event>
<event>
      5   9999  3.19816E-02  1.96654E+01 -1.00000E+00  1.66976E-01
      21    -1     0     0   512   501  0.000000000E+00  0.000000000E+00  7.497728375E+02  7.497728375E+02  0.000000000E+00  0.00000E+00  9.000E+00
      21    -1     0     0   501   502  0.000000000E+00  0.000000000E+00 -5.716021391E+01  5.716021391E+01  0.000000000E+00  0.00000E+00  9.000E+00
      25     1     1     2     0     0  1.304271848E+02 -3.486018959E+01  3.985591283E+02  4.389770633E+02  1.250000000E+02  0.00000E+00  9.000E+00
      25     1     1     2     0     0 -1.500923661E+02  3.495986667E+01  2.461429280E+02  3.161664935E+02  1.250000000E+02  0.00000E+00  9.000E+00
      21     1     1     2   512   502  1.966518128E+01 -9.967707995E-02  4.791056733E+01  5.178949461E+01  6.743495762E-07  0.00000E+00  9.000E+00
#rwgt            1           1   3.0588101519871076E-002           5      316557           0
</event>
<event>
      5   9999  3.19816E-02  3.90655E+01 -1.00000E+00  1.45480E-01
      21    -1     0     0   511   501  0.000000000E+00  0.000000000E+00  1.079345867E+03  1.079345867E+03  0.000000000E+00  0.00000E+00  9.000E+00
      21    -1     0     0   501   502  0.000000000E+00  0.000000000E+00 -2.368073100E+02  2.368073100E+02  0.000000000E+00  0.00000E+00  9.000E+00
      25     1     1     2     0     0 -1.934987460E+01 -3.187953335E+02  6.535039539E+02  7.380361103E+02  1.250000000E+02  0.00000E+00  9.000E+00
      25     1     1     2     0     0  3.996565332E+01  3.519781662E+02 -9.508081126E+00  3.757675964E+02  1.250000000E+02  0.00000E+00  9.000E+00
      21     1     1     2   511   502 -2.061577872E+01 -3.318283270E+01  1.985426843E+02  2.023494705E+02  3.814697266E-06  0.00000E+00  9.000E+00
#rwgt            1           1   3.2998587290898954E-002           5      316682           0
</event>
<event>
      5   9999  3.19816E-02  2.68371E+01 -1.00000E+00  1.56478E-01
      21    -1     0     0   502   501  0.000000000E+00  0.000000000E+00  4.731045376E+02  4.731045376E+02  0.000000000E+00  0.00000E+00  9.000E+00
      21    -1     0     0   501   512  0.000000000E+00  0.000000000E+00 -4.035363344E+03  4.035363344E+03  0.000000000E+00  0.00000E+00  9.000E+00
      25     1     1     2     0     0  5.117619679E+01 -1.226910950E+03 -2.671389462E+03  2.942766749E+03  1.250000000E+02  0.00000E+00  9.000E+00
      25     1     1     2     0     0 -6.730160640E+01  1.248363256E+03 -8.504313053E+02  1.517167997E+03  1.250000000E+02  0.00000E+00  9.000E+00
      21     1     1     2   502   512  1.612540961E+01 -2.145230613E+01 -4.043803844E+01  4.853313534E+01  4.768371582E-07  0.00000E+00  9.000E+00
#rwgt            1           1   6.3433555342811115E-002           5      316773           0
</event>
<event>
      5   9999  3.19816E-02  1.99089E+01 -1.00000E+00  1.66533E-01
      21    -1     0     0   502   501  0.000000000E+00  0.000000000E+00  5.298000949E+01  5.298000949E+01  0.000000000E+00  0.00000E+00  9.000E+00
      21    -1     0     0   501   511  0.000000000E+00  0.000000000E+00 -1.106051842E+03  1.106051842E+03  0.000000000E+00  0.00000E+00  9.000E+00
      25     1     1     2     0     0 -1.507030047E+02  9.043554545E+01 -2.769568493E+02  3.510271783E+02  1.250000000E+02  0.00000E+00  9.000E+00
      25     1     1     2     0     0  1.313552505E+02 -9.512916503E+01 -7.134535380E+02  7.422564993E+02  1.250000000E+02  0.00000E+00  9.000E+00
      21     1     1     2   502   511  1.934775418E+01  4.693619576E+00 -6.266144527E+01  6.574817397E+01  6.743495762E-07  0.00000E+00  9.000E+00
#rwgt            1           1   3.3082959457215740E-002           5      316981           0
</event>
<event>
      5   9999  3.19816E-02  9.25395E+01 -1.00000E+00  1.25362E-01
      21    -1     0     0   502   501  0.000000000E+00  0.000000000E+00  6.744255233E+01  6.744255233E+01  0.000000000E+00  0.00000E+00  9.000E+00
      21    -1     0     0   512   502  0.000000000E+00  0.000000000E+00 -2.961571427E+03  2.961571427E+03  0.000000000E+00  0.00000E+00  9.000E+00
      25     1     1     2     0     0 -5.780475937E+01  1.385967290E+02 -1.241583462E+02  2.314967353E+02  1.250000000E+02  0.00000E+00  9.000E+00
      25     1     1     2     0     0  1.410212533E+02 -1.790759888E+02 -1.367052760E+03  1.391550737E+03  1.250000000E+02  0.00000E+00  9.000E+00
      21     1     1     2   512   501 -8.321649395E+01  4.047925978E+01 -1.402917768E+03  1.405966507E+03  0.000000000E+00  0.00000E+00  9.000E+00
#rwgt            1           1   3.6028864465158468E-002           5      317126           0
</event>
<event>
      5   9999  3.19816E-02  1.23887E+02 -1.00000E+00  1.19784E-01
      21    -1     0     0   502   511  0.000000000E+00  0.000000000E+00  9.157355074E+01  9.157355074E+01  0.000000000E+00  0.00000E+00  9.000E+00
      21    -1     0     0   501   502  0.000000000E+00  0.000000000E+00 -1.165159324E+03  1.165159324E+03  0.000000000E+00  0.00000E+00  9.000E+00
      25     1     1     2     0     0  2.069326338E+00 -3.077517367E+01 -9.216053902E+02  9.305551508E+02  1.250000000E+02  0.00000E+00  9.000E+00
      25     1     1     2     0     0 -3.654433271E+01 -8.821883468E+01 -4.806486043E+01  1.644788189E+02  1.250000000E+02  0.00000E+00  9.000E+00
      21     1     1     2   501   511  3.447500637E+01  1.189940084E+02 -1.039155229E+02  1.616989053E+02  0.000000000E+00  0.00000E+00  9.000E+00
#rwgt            2          11   3.6055318849218393E-003           5      317186           0
</event>
<event>
      5   9999  3.19816E-02  5.40164E+01 -1.00000E+00  1.37188E-01
      21    -1     0     0   512   501  0.000000000E+00  0.000000000E+00  1.046074256E+03  1.046074256E+03  0.000000000E+00  0.00000E+00  9.000E+00
      21    -1     0     0   501   502  0.000000000E+00  0.000000000E+00 -2.058378600E+03  2.058378600E+03  0.000000000E+00  0.00000E+00  9.000E+00
      25     1     1     2     0     0  1.083322311E+03 -5.873315083E+02 -1.145335112E+02  1.243900501E+03  1.250000000E+02  0.00000E+00  9.000E+00
      25     1     1     2     0     0 -1.115827196E+03  6.304732355E+02 -1.073641567E+03  1.676573305E+03  1.250000000E+02  0.00000E+00  9.000E+00
      21     1     1     2   512   502  3.250488489E+01 -4.314172720E+01  1.758707334E+02  1.839790506E+02  4.264961200E-06  0.00000E+00  9.000E+00
#rwgt            1           1   5.7174604556532407E-002           5      317206           0
</event>
<event>
      5   9999  3.19816E-02  2.09123E+02 -1.00000E+00  1.10947E-01
      21    -1     0     0   502   501  0.000000000E+00  0.000000000E+00  7.578418305E+01  7.578418305E+01  0.000000000E+00  0.00000E+00  9.000E+00
       2    -1     0     0   501     0  0.000000000E+00  0.000000000E+00 -2.784228707E+03  2.784228707E+03  0.000000000E+00  0.00000E+00  9.000E+00
      25     1     1     2     0     0 -2.882798575E+02  9.035749769E+01 -6.631771692E+02  7.393907704E+02  1.250000000E+02  0.00000E+00  9.000E+00
      25     1     1     2     0     0  2.500524026E+02  1.152416334E+02 -7.513205527E+02  8.098854308E+02  1.250000000E+02  0.00000E+00  9.000E+00
       2     1     1     2   502     0  3.822745486E+01 -2.055991311E+02 -1.293946802E+03  1.310736689E+03  2.157918644E-05  0.00000E+00  9.000E+00
#rwgt            1           1   3.0249031110528297E-002           5      317361           0
</event>
<event>
      5   9999  3.19816E-02  7.57750E+01 -1.00000E+00  1.29500E-01
      21    -1     0     0   502   501  0.000000000E+00  0.000000000E+00  2.580143040E+02  2.580143040E+02  0.000000000E+00  0.00000E+00  9.000E+00
       2    -1     0     0   501     0  0.000000000E+00  0.000000000E+00 -1.609635969E+03  1.609635969E+03  0.000000000E+00  0.00000E+00  9.000E+00
      25     1     1     2     0     0 -4.878770852E+01 -2.111119083E+02  1.105961628E+02  2.735050083E+02  1.250000000E+02  0.00000E+00  9.000E+00
      25     1     1     2     0     0  1.873049787E+01  1.415531505E+02 -7.372929725E+01  2.035906070E+02  1.250000000E+02  0.00000E+00  9.000E+00
       2     1     1     2   502     0  3.005721064E+01  6.955875776E+01 -1.388488531E+03  1.390554658E+03  0.000000000E+00  0.00000E+00  9.000E+00
#rwgt            1           1   2.9705117344244570E-002           5      317409           0
</event>
<event>
      5   9999  3.19816E-02  4.82514E+01 -1.00000E+00  1.39963E-01
      21    -1     0     0   502   501  0.000000000E+00  0.000000000E+00  5.690021348E+02  5.690021348E+02  0.000000000E+00  0.00000E+00  9.000E+00
      21    -1     0     0   511   502  0.000000000E+00  0.000000000E+00 -3.288183158E+02  3.288183158E+02  0.000000000E+00  0.00000E+00  9.000E+00
      25     1     1     2     0     0 -7.793090548E+00 -3.445876061E+02  2.638817320E+02  4.517299182E+02  1.250000000E+02  0.00000E+00  9.000E+00
      25     1     1     2     0     0 -3.908253072E+01  3.560277853E+02  2.152085565E+01  3.799623341E+02  1.250000000E+02  0.00000E+00  9.000E+00
      21     1     1     2   511   501  4.687562127E+01 -1.144017926E+01 -4.521876866E+01  6.612819830E+01  8.259061849E-07  0.00000E+00  9.000E+00
#rwgt            1           1   2.6893115698498653E-002           5      317468           0
</event>
<event>
      5   9999  3.19816E-02  4.95580E+01 -1.00000E+00  1.39296E-01
      21    -1     0     0   512   501  0.000000000E+00  0.000000000E+00  8.562809497E+02  8.562809497E+02  0.000000000E+00  0.00000E+00  9.000E+00
      21    -1     0     0   501   502  0.000000000E+00  0.000000000E+00 -2.199256988E+02  2.199256988E+02  0.000000000E+00  0.00000E+00  9.000E+00
      25     1     1     2     0     0  1.716482762E+02  7.621089736E+01 -1.197849459E+02  2.554303523E+02  1.250000000E+02  0.00000E+00  9.000E+00
      25     1     1     2     0     0 -2.064390593E+02 -1.115038937E+02  5.843640005E+02  6.419941500E+02  1.250000000E+02  0.00000E+00  9.000E+00
      21     1     1     2   512   502  3.479078311E+01  3.529299635E+01  1.717761963E+02  1.787821462E+02  2.697398305E-06  0.00000E+00  9.000E+00
#rwgt            1           1   2.4737469150884820E-002           5      317580           0
</event>
<event>
      5   9999  3.19816E-02  8.32473E+01 -1.00000E+00  1.27519E-01
       2    -1     0     0   502     0  0.000000000E+00  0.000000000E+00  7.447973606E+02  7.447973606E+02  0.000000000E+00  0.00000E+00  9.000E+00
      21    -1     0     0   501   502  0.000000000E+00  0.000000000E+00 -2.136844461E+02  2.136844461E+02  0.000000000E+00  0.00000E+00  9.000E+00
      25     1     1     2     0     0  1.980775533E+02 -1.457197853E+02  2.586152492E+02  3.781214356E+02  1.250000000E+02  0.00000E+00  9.000E+00
      25     1     1     2     0     0 -1.149340501E+02  1.498754259E+02 -6.267737066E+01  2.350019829E+02  1.250000000E+02  0.00000E+00  9.000E+00
       2     1     1     2   501     0 -8.314350322E+01 -4.155640563E+00  3.351750360E+02  3.453583881E+02  5.394796609E-06  0.00000E+00  9.000E+00
#rwgt            1           1   2.7139327029605826E-002           5      317676           0
</event>
<event>
      5   9999  3.19816E-02  4.67553E+01 -1.00000E+00  1.40759E-01
      21    -1     0     0   511   501  0.000000000E+00  0.000000000E+00  1.157332017E+03  1.157332017E+03  0.000000000E+00  0.00000E+00  9.000E+00
      21    -1     0     0   501   502  0.000000000E+00  0.000000000E+00 -3.615809396E+01  3.615809396E+01  0.000000000E+00  0.00000E+00  9.000E+00
      25     1     1     2     0     0 -2.224210072E+00  9.679908575E+01  2.486086612E+02  2.946290491E+02  1.250000000E+02  0.00000E+00  9.000E+00
      25     1     1     2     0     0 -4.424463104E+01 -1.019664778E+02  6.298204598E+02  6.516544801E+02  1.250000000E+02  0.00000E+00  9.000E+00
      21     1     1     2   511   502  4.646884111E+01  5.167392001E+00  2.427448016E+02  2.472065813E+02  2.697398305E-06  0.00000E+00  9.000E+00
#rwgt            1           1   3.8604495348733385E-002           5      317745           0
</event>
<event>
      5   9999  3.19816E-02  6.67514E+01 -1.00000E+00  1.32274E-01
      21    -1     0     0   502   501  0.000000000E+00  0.000000000E+00  1.802355188E+02  1.802355188E+02  0.000000000E+00  0.00000E+00  9.000E+00
      21    -1     0     0   501   512  0.000000000E+00  0.000000000E+00 -4.416977527E+02  4.416977527E+02  0.000000000E+00  0.00000E+00  9.000E+00
      25     1     1     2     0     0  7.242214351E+01  3.184410344E+01 -2.884313057E+02  3.241552589E+02  1.250000000E+02  0.00000E+00  9.000E+00
      25     1     1     2     0     0 -1.312248975E+02 -2.531121701E-01  9.315894590E+01  2.037734698E+02  1.250000000E+02  0.00000E+00  9.000E+00
      21     1     1     2   502   512  5.880275401E+01 -3.159099127E+01 -6.618987417E+01  9.400454272E+01  1.348699152E-06  0.00000E+00  9.000E+00
#rwgt            1           1   3.0771378936170626E-002           5      317823           0
</event>
<event>
      5   9999  3.19816E-02  5.37346E+01 -1.00000E+00  1.37314E-01
      21    -1     0     0   502   501  0.000000000E+00  0.000000000E+00  3.067987125E+02  3.067987125E+02  0.000000000E+00  0.00000E+00  9.000E+00
       2    -1     0     0   501     0  0.000000000E+00  0.000000000E+00 -1.134717630E+03  1.134717630E+03  0.000000000E+00  0.00000E+00  9.000E+00
      25     1     1     2     0     0  3.344948477E+01 -7.832074340E+01  5.964468505E+01  1.625899607E+02  1.250000000E+02  0.00000E+00  9.000E+00
      25     1     1     2     0     0  1.179098167E+01  1.073156819E+02  1.600162462E+02  2.299693064E+02  1.250000000E+02  0.00000E+00  9.000E+00
       2     1     1     2   502     0 -4.524046645E+01 -2.899493851E+01 -1.047579849E+03  1.048957075E+03  2.157918644E-05  0.00000E+00  9.000E+00
#rwgt            1           1   2.1388958792257436E-002           5      317909           0
</event>
<event>
      5   9999  3.19816E-02  1.27826E+02 -1.00000E+00  1.19215E-01
      21    -1     0     0   502   511  0.000000000E+00  0.000000000E+00  1.947138444E+02  1.947138444E+02  0.000000000E+00  0.00000E+00  9.000E+00
      21    -1     0     0   501   502  0.000000000E+00  0.000000000E+00 -8.764193091E+02  8.764193091E+02  0.000000000E+00  0.00000E+00  9.000E+00
      25     1     1     2     0     0 -2.274555353E+02 -1.427966887E+02 -2.462542074E+02  3.852181843E+02  1.250000000E+02  0.00000E+00  9.000E+00
      25     1     1     2     0     0  3.067132977E+02  4.250861600E+01 -4.465649296E+02  5.576067304E+02  1.250000000E+02  0.00000E+00  9.000E+00
      21     1     1     2   501   511 -7.925776238E+01  1.002880727E+02  1.111367236E+01  1.283082388E+02  9.078709013E-07  0.00000E+00  9.000E+00
#rwgt            1           1   2.5903277088577526E-002           5      317970           0
</event>
<event>
      5   9999  3.19816E-02  3.42521E+01 -1.00000E+00  1.49146E-01
      21    -1     0     0   512   501  0.000000000E+00  0.000000000E+00  2.256498724E+02  2.256498724E+02  0.000000000E+00  0.00000E+00  9.000E+00
      21    -1     0     0   501   502  0.000000000E+00  0.000000000E+00 -1.579173907E+03  1.579173907E+03  0.000000000E+00  0.00000E+00  9.000E+00
      25     1     1     2     0     0 -6.235311961E+01 -3.756528433E+02 -1.314700630E+03  1.374432871E+03  1.250000000E+02  0.00000E+00  9.000E+00
      25     1     1     2     0     0  9.211296980E+01  3.586952369E+02 -2.015099767E+01  3.913797834E+02  1.250000000E+02  0.00000E+00  9.000E+00
      21     1     1     2   512   502 -2.975985019E+01  1.695760649E+01 -1.867240715E+01  3.901112521E+01  4.768371582E-07  0.00000E+00  9.000E+00
#rwgt            1           1   2.8243064560839710E-002           5      318035           0
</event>
<event>
      5   9999  3.19816E-02  7.61639E+01 -1.00000E+00  1.29391E-01
      21    -1     0     0   502   501  0.000000000E+00  0.000000000E+00  9.522480052E+01  9.522480052E+01  0.000000000E+00  0.00000E+00  9.000E+00
      21    -1     0     0   511   502  0.000000000E+00  0.000000000E+00 -9.503915338E+02  9.503915338E+02  0.000000000E+00  0.00000E+00  9.000E+00
      25     1     1     2     0     0 -2.248042368E+02 -1.401898835E+02 -3.682739723E+02  4.705750387E+02  1.250000000E+02  0.00000E+00  9.000E+00
      25     1     1     2     0     0  1.710560176E+02  8.622622811E+01 -3.437576122E+02  4.129036443E+02  1.250000000E+02  0.00000E+00  9.000E+00
      21     1     1     2   511   501  5.374821918E+01  5.396365537E+01 -1.431351488E+02  1.621376513E+02  0.000000000E+00  0.00000E+00  9.000E+00
#rwgt            1           1   2.8270547414230414E-002           5      318235           0
</event>
<event>
      5   9999  3.19816E-02  7.14913E+01 -1.00000E+00  1.30759E-01
      21    -1     0     0   512   501  0.000000000E+00  0.000000000E+00  7.199439026E+02  7.199439026E+02  0.000000000E+00  0.00000E+00  9.000E+00
      21    -1     0     0   501   502  0.000000000E+00  0.000000000E+00 -6.700403423E+01  6.700403423E+01  0.000000000E+00  0.00000E+00  9.000E+00
      25     1     1     2     0     0 -3.584477680E+00  1.297556952E+02  3.860043142E+02  4.259973234E+02  1.250000000E+02  0.00000E+00  9.000E+00
      25     1     1     2     0     0 -5.851558357E+01 -9.433560880E+01  1.540527628E+02  2.273335311E+02  1.250000000E+02  0.00000E+00  9.000E+00
      21     1     1     2   512   502  6.210006125E+01 -3.542008642E+01  1.128827913E+02  1.336170823E+02  0.000000000E+00  0.00000E+00  9.000E+00
#rwgt            1           1   3.4381484350179785E-002           5      318326           0
</event>
<event>
      5   9999  3.19816E-02  1.73098E+02 -1.00000E+00  1.13981E-01
      21    -1     0     0   502   511  0.000000000E+00  0.000000000E+00  3.401398039E+02  3.401398039E+02  0.000000000E+00  0.00000E+00  9.000E+00
      21    -1     0     0   501   502  0.000000000E+00  0.000000000E+00 -1.212511888E+03  1.212511888E+03  0.000000000E+00  0.00000E+00  9.000E+00
      25     1     1     2     0     0  2.534991304E+02  2.192805831E+02 -9.990330765E+02  1.061149316E+03  1.250000000E+02  0.00000E+00  9.000E+00
      25     1     1     2     0     0 -8.550875780E+01 -2.610202011E+02  7.790719511E+01  3.116694147E+02  1.250000000E+02  0.00000E+00  9.000E+00
      21     1     1     2   501   511 -1.679903726E+02  4.173961796E+01  4.875379753E+01  1.798329607E+02  1.168007728E-06  0.00000E+00  9.000E+00
#rwgt            1           1   2.6595185385156529E-002           5      318407           0
</event>
<event>
      5   9999  3.19816E-02  2.50688E+02 -1.00000E+00  1.08189E-01
       2    -1     0     0   502     0  0.000000000E+00  0.000000000E+00  1.060925881E+02  1.060925881E+02  0.000000000E+00  0.00000E+00  9.000E+00
      21    -1     0     0   501   502  0.000000000E+00  0.000000000E+00 -1.368181110E+03  1.368181110E+03  0.000000000E+00  0.00000E+00  9.000E+00
      25     1     1     2     0     0  2.099471344E+02 -8.472401584E+01 -9.196126271E+02  9.552844299E+02  1.250000000E+02  0.00000E+00  9.000E+00
      25     1     1     2     0     0  1.643582368E+01 -2.295824481E+01 -6.057222919E+01  1.417434734E+02  1.250000000E+02  0.00000E+00  9.000E+00
       2     1     1     2   501     0 -2.263829581E+02  1.076822606E+02 -2.819036659E+02  3.772457950E+02  0.000000000E+00  0.00000E+00  9.000E+00
#rwgt            1           1   3.4188791609729138E-002           5      318469           0
</event>
<event>
      5   9999  3.19816E-02  3.30512E+01 -1.00000E+00  1.50174E-01
      21    -1     0     0   511   501  0.000000000E+00  0.000000000E+00  2.917475310E+02  2.917475310E+02  0.000000000E+00  0.00000E+00  9.000E+00
      21    -1     0     0   501   502  0.000000000E+00  0.000000000E+00 -1.238423702E+03  1.238423702E+03  0.000000000E+00  0.00000E+00  9.000E+00
      25     1     1     2     0     0  3.509229803E+02 -1.862214376E+02 -6.571221099E+02  7.779844660E+02  1.250000000E+02  0.00000E+00  9.000E+00
      25     1     1     2     0     0 -3.180993458E+02  1.823499407E+02 -4.468897482E+02  5.914170624E+02  1.250000000E+02  0.00000E+00  9.000E+00
      21     1     1     2   511   502 -3.282363455E+01  3.871496867E+00  1.573356871E+02  1.607697046E+02  0.000000000E+00  0.00000E+00  9.000E+00
#rwgt            1           1   2.8385041270500011E-002           5      318501           0
</event>
<event>
      5   9999  3.19816E-02  4.11221E+01 -1.00000E+00  1.44099E-01
      21    -1     0     0   502   501  0.000000000E+00  0.000000000E+00  5.540162961E+02  5.540162961E+02  0.000000000E+00  0.00000E+00  9.000E+00
      21    -1     0     0   512   502  0.000000000E+00  0.000000000E+00 -3.575863405E+02  3.575863405E+02  0.000000000E+00  0.00000E+00  9.000E+00
      25     1     1     2     0     0  3.489796402E+02  2.774653465E+01  2.878483041E+02  4.701471107E+02  1.250000000E+02  0.00000E+00  9.000E+00
      25     1     1     2     0     0 -3.638282077E+02 -6.609428276E+01 -8.839396142E+01  4.002223274E+02  1.250000000E+02  0.00000E+00  9.000E+00
      21     1     1     2   512   501  1.484856753E+01  3.834774811E+01 -3.024387090E+00  4.123319852E+01  5.885487097E-07  0.00000E+00  9.000E+00
#rwgt            1           1   3.1727810670676031E-002           5      318625           0
</event>
<event>
      5   9999  3.19816E-02  2.24813E+02 -1.00000E+00  1.09830E-01
      21    -1     0     0   502   501  0.000000000E+00  0.000000000E+00  1.912884212E+03  1.912884212E+03  0.000000000E+00  0.00000E+00  9.000E+00
       2    -1     0     0   501     0  0.000000000E+00  0.000000000E+00 -8.714259592E+02  8.714259592E+02  0.000000000E+00  0.00000E+00  9.000E+00
      25     1     1     2     0     0  3.061130630E+02  3.796894532E+02  1.605372450E+03  1.682472880E+03  1.250000000E+02  0.00000E+00  9.000E+00
      25     1     1     2     0     0 -8.181110858E+01 -3.645398929E+02  9.531409773E+01  4.053297031E+02  1.250000000E+02  0.00000E+00  9.000E+00
       2     1     1     2   502     0 -2.243019544E+02 -1.514956031E+01 -6.592282949E+02  6.965075884E+02  7.629394531E-06  0.00000E+00  9.000E+00
#rwgt            1           1   2.8623810573004456E-002           5      318804           0
</event>
<event>
      5   9999  3.19816E-02  1.70950E+02 -1.00000E+00  1.14187E-01
      21    -1     0     0   502   501  0.000000000E+00  0.000000000E+00  9.012679796E+02  9.012679796E+02  0.000000000E+00  0.00000E+00  9.000E+00
       1    -1     0     0   501     0  0.000000000E+00  0.000000000E+00 -2.081199334E+02  2.081199334E+02  0.000000000E+00  0.00000E+00  9.000E+00
      25     1     1     2     0     0 -1.959636201E+02  3.318545316E+02  2.366024948E+02  4.691853696E+02  1.250000000E+02  0.00000E+00  9.000E+00
      25     1     1     2     0     0  7.157993801E+01 -2.145825314E+02  3.621788714E+02  4.449358215E+02  1.250000000E+02  0.00000E+00  9.000E+00
       1     1     1     2   502     0  1.243836820E+02 -1.172720002E+02  9.436667994E+01  1.952667219E+02  3.015782986E-06  0.00000E+00  9.000E+00
#rwgt            1           1   2.8091495081409727E-002           5      318876           0
</event>
<event>
      5   9999  3.19816E-02  3.52003E+02 -1.00000E+00  1.03384E-01
      -2    -1     0     0     0   501  0.000000000E+00  0.000000000E+00  2.816447290E+03  2.816447290E+03  0.000000000E+00  0.00000E+00  9.000E+00
      21    -1     0     0   501   502  0.000000000E+00  0.000000000E+00 -8.393207316E+02  8.393207316E+02  0.000000000E+00  0.00000E+00  9.000E+00
      25     1     1     2     0     0 -2.408991991E+02  7.645270991E+02 -2.952798461E+02  8.633361436E+02  1.250000000E+02  0.00000E+00  9.000E+00
      25     1     1     2     0     0  5.914493523E+02 -7.964707746E+02  8.058139813E+02  1.284188150E+03  1.250000000E+02  0.00000E+00  9.000E+00
      -2     1     1     2     0   502 -3.505501533E+02  3.194367555E+01  1.466592423E+03  1.508243728E+03  2.157918644E-05  0.00000E+00  9.000E+00
#rwgt            1           1   3.4623402517569263E-002           5      318950           0
</event>
<event>
      5   9999  3.19816E-02  7.68777E+01 -1.00000E+00  1.29192E-01
      21    -1     0     0   502   501  0.000000000E+00  0.000000000E+00  3.714075990E+02  3.714075990E+02  0.000000000E+00  0.00000E+00  9.000E+00
      21    -1     0     0   501   511  0.000000000E+00  0.000000000E+00 -1.490476188E+02  1.490476188E+02  0.000000000E+00  0.00000E+00  9.000E+00
      25     1     1     2     0     0  1.129126820E+02 -1.403707420E+02  1.136805685E+02  2.469847983E+02  1.250000000E+02  0.00000E+00  9.000E+00
      25     1     1     2     0     0 -6.799311113E+01  7.798158446E+01  1.109347483E+02  1.965596832E+02  1.250000000E+02  0.00000E+00  9.000E+00
      21     1     1     2   502   511 -4.491957086E+01  6.238915752E+01 -2.255336531E+00  7.691073635E+01  1.530981009E-06  0.00000E+00  9.000E+00
#rwgt            1           1   3.2759086155040126E-002           5      319021           0
</event>
<event>
      5   9999  3.19816E-02  2.20671E+02 -1.00000E+00  1.10115E-01
       4    -1     0     0   502     0  0.000000000E+00  0.000000000E+00  1.749284356E+03  1.749284356E+03  0.000000000E+00  0.00000E+00  9.000E+00
      21    -1     0     0   501   502  0.000000000E+00  0.000000000E+00 -5.857938688E+02  5.857938688E+02  0.000000000E+00  0.00000E+00  9.000E+00
      25     1     1     2     0     0 -2.265020956E+02 -1.088866353E+02 -4.215134808E+02  5.064169361E+02  1.250000000E+02  0.00000E+00  9.000E+00
      25     1     1     2     0     0  2.129404997E+02  3.291404583E+02  2.629297492E+02  4.882971951E+02  1.250000000E+02  0.00000E+00  9.000E+00
       4     1     1     2   501     0  1.356159589E+01 -2.202538230E+02  1.322074218E+03  1.340364093E+03  2.157918644E-05  0.00000E+00  9.000E+00
#rwgt            1           1   2.9108618257574024E-002           5      319167           0
</event>
<event>
      5   9999  3.19816E-02  1.74327E+01 -1.00000E+00  1.71447E-01
      21    -1     0     0   502   501  0.000000000E+00  0.000000000E+00  3.439803492E+02  3.439803492E+02  0.000000000E+00  0.00000E+00  9.000E+00
      21    -1     0     0   501   511  0.000000000E+00  0.000000000E+00 -3.249314091E+02  3.249314091E+02  0.000000000E+00  0.00000E+00  9.000E+00
      25     1     1     2     0     0 -1.999622727E+02  1.168861325E+02  1.963383915E+02  3.283611464E+02  1.250000000E+02  0.00000E+00  9.000E+00
      25     1     1     2     0     0  1.999479999E+02 -1.343188538E+02 -1.559490748E+02  3.129950017E+02  1.250000000E+02  0.00000E+00  9.000E+00
      21     1     1     2   502   511  1.427278687E-02  1.743272126E+01 -2.134037665E+01  2.755561013E+01  2.384185791E-07  0.00000E+00  9.000E+00
#rwgt            1           1   2.8175279755921295E-002           5      319213           0
</event>
<event>
      5   9999  3.19816E-02  5.85871E+01 -1.00000E+00  1.35259E-01
      21    -1     0     0   502   512  0.000000000E+00  0.000000000E+00  7.860822898E+02  7.860822898E+02  0.000000000E+00  0.00000E+00  9.000E+00
      21    -1     0     0   501   502  0.000000000E+00  0.000000000E+00 -1.200980433E+02  1.200980433E+02  0.000000000E+00  0.00000E+00  9.000E+00
      25     1     1     2     0     0  2.281876838E+01  1.684286872E+02  5.392657048E+02  5.790694425E+02  1.250000000E+02  0.00000E+00  9.000E+00
      25     1     1     2     0     0 -7.220764047E+01 -1.369137281E+02  1.323657500E+01  1.993978917E+02  1.250000000E+02  0.00000E+00  9.000E+00
      21     1     1     2   501   512  4.938887209E+01 -3.151495908E+01  1.134819666E+02  1.277129989E+02  1.348699152E-06  0.00000E+00  9.000E+00
#rwgt            1           1   3.3271316742137104E-002           5      319377           0
</event>
<event>
      5   9999  3.19816E-02  4.33448E+01 -1.00000E+00  1.42710E-01
      21    -1     0     0   502   511  0.000000000E+00  0.000000000E+00  3.706949638E+02  3.706949638E+02  0.000000000E+00  0.00000E+00  9.000E+00
      21    -1     0     0   501   502  0.000000000E+00  0.000000000E+00 -1.359248015E+02  1.359248015E+02  0.000000000E+00  0.00000E+00  9.000E+00
      25     1     1     2     0     0 -5.805451523E+01 -1.284132383E+02  2.286720284E+01  1.897582553E+02  1.250000000E+02  0.00000E+00  9.000E+00
      25     1     1     2     0     0  4.802674787E+01  8.624436630E+01  8.044227818E+01  1.784393997E+02  1.250000000E+02  0.00000E+00  9.000E+00
      21     1     1     2   501   511  1.002776736E+01  4.216887198E+01  1.314606813E+02  1.384221103E+02  2.697398305E-06  0.00000E+00  9.000E+00
#rwgt            1           1   2.9860352072323758E-002           5      319447           0
</event>
<event>
      5   9999  3.59229E-02  5.73618E+01 -1.00000E+00  1.35755E-01
      21    -1     0     0   512   501  0.000000000E+00  0.000000000E+00  5.231289103E+01  5.231289103E+01  0.000000000E+00  0.00000E+00  9.000E+00
      21    -1     0     0   501   502  0.000000000E+00  0.000000000E+00 -1.631287865E+03  1.631287865E+03  0.000000000E+00  0.00000E+00  9.000E+00
      25     1     1     2     0     0 -7.655154904E+01 -1.856212129E+00 -6.803795627E+02  6.959920506E+02  1.250000000E+02  0.00000E+00  9.000E+00
      25     1     1     2     0     0  2.175888300E+01  1.883073622E+01 -9.181034344E+02  9.270204754E+02  1.250000000E+02  0.00000E+00  9.000E+00
      21     1     1     2   512   502  5.479266603E+01 -1.697452409E+01  1.950802267E+01  6.058823044E+01  2.223820461E-06  0.00000E+00  9.000E+00
#rwgt            1           1   7.9356343412008826E-002           5      319539           0
</event>
<event>
      5   9999  3.19816E-02  1.67784E+02 -1.00000E+00  1.14497E-01
      21    -1     0     0   511   501  0.000000000E+00  0.000000000E+00  8.525370607E+01  8.525370607E+01  0.000000000E+00  0.00000E+00  9.000E+00
      21    -1     0     0   501   502  0.000000000E+00  0.000000000E+00 -1.138004866E+03  1.138004866E+03  0.000000000E+00  0.00000E+00  9.000E+00
      25     1     1     2     0     0  2.992392371E+01  2.057438807E+02 -7.559666709E+02  7.939373988E+02  1.250000000E+02  0.00000E+00  9.000E+00
      25     1     1     2     0     0 -4.928567943E+01 -3.908037655E+01 -1.622696392E+02  2.142726997E+02  1.250000000E+02  0.00000E+00  9.000E+00
      21     1     1     2   511   502  1.936175573E+01 -1.666635042E+02 -1.345148501E+02  2.150484739E+02  2.697398305E-06  0.00000E+00  9.000E+00
#rwgt            1           1   3.0281453452273684E-002           5      319576           0
</event>
<event>
      5   9999  3.19816E-02  9.66158E+01 -1.00000E+00  1.24504E-01
      21    -1     0     0   502   501  0.000000000E+00  0.000000000E+00  2.369576400E+03  2.369576400E+03  0.000000000E+00  0.00000E+00  9.000E+00
      21    -1     0     0   512   502  0.000000000E+00  0.000000000E+00 -1.363108273E+02  1.363108273E+02  0.000000000E+00  0.00000E+00  9.000E+00
      25     1     1     2     0     0 -2.227838644E+02 -7.440545464E+01  8.296677031E+01  2.787064888E+02  1.250000000E+02  0.00000E+00  9.000E+00
      25     1     1     2     0     0  2.066581939E+02  1.696659774E+02  2.095341383E+03  2.116028040E+03  1.250000000E+02  0.00000E+00  9.000E+00
      21     1     1     2   512   501  1.612567053E+01 -9.526052278E+01  5.495741853E+01  1.111526981E+02  2.861022949E-06  0.00000E+00  9.000E+00
#rwgt            1           1   2.9929089602637876E-002           5      319609           0
</event>
<event>
      5   9999  3.19816E-02  5.17304E+01 -1.00000E+00  1.38238E-01
      21    -1     0     0   502   501  0.000000000E+00  0.000000000E+00  9.558195073E+02  9.558195073E+02  0.000000000E+00  0.00000E+00  9.000E+00
      21    -1     0     0   501   511  0.000000000E+00  0.000000000E+00 -1.051167092E+02  1.051167092E+02  0.000000000E+00  0.00000E+00  9.000E+00
      25     1     1     2     0     0  1.503142483E+02  1.703155178E+02  3.705654774E+02  4.522670913E+02  1.250000000E+02  0.00000E+00  9.000E+00
      25     1     1     2     0     0 -1.060220164E+02 -1.970406061E+02  4.927515012E+02  5.554230013E+02  1.250000000E+02  0.00000E+00  9.000E+00
      21     1     1     2   502   511 -4.429223198E+01  2.672508825E+01 -1.261418048E+01  5.324612385E+01  7.907449699E-07  0.00000E+00  9.000E+00
#rwgt            1           1   2.9356452178810041E-002           5      319687           0
</event>
<event>
      5   9999  3.19816E-02  1.10710E+01 -1.00000E+00  1.90784E-01
      21    -1     0     0   502   501  0.000000000E+00  0.000000000E+00  6.755296433E+01  6.755296433E+01  0.000000000E+00  0.00000E+00  9.000E+00
      21    -1     0     0   512   502  0.000000000E+00  0.000000000E+00 -1.049053829E+03  1.049053829E+03  0.000000000E+00  0.00000E+00  9.000E+00
      25     1     1     2     0     0  7.081840638E+01 -6.552309699E+01 -4.243589202E+02  4.527847348E+02  1.250000000E+02  0.00000E+00  9.000E+00
      25     1     1     2     0     0 -6.129649785E+01  5.987505609E+01 -5.448961356E+01  1.610478220E+02  1.250000000E+02  0.00000E+00  9.000E+00
      21     1     1     2   512   501 -9.521908527E+00  5.648040891E+00 -5.026523311E+02  5.027742367E+02  0.000000000E+00  0.00000E+00  9.000E+00
#rwgt            1           1   2.8386994549083472E-002           5      319787           0
</event>
<event>
      5   9999  3.19816E-02  1.10191E+01 -1.00000E+00  1.91008E-01
      21    -1     0     0   511   501  0.000000000E+00  0.000000000E+00  1.826563702E+02  1.826563702E+02  0.000000000E+00  0.00000E+00  9.000E+00
      21    -1     0     0   501   502  0.000000000E+00  0.000000000E+00 -4.137457080E+02  4.137457080E+02  0.000000000E+00  0.00000E+00  9.000E+00
      25     1     1     2     0     0  1.686444440E+02  1.644719707E+02 -1.711616139E+02  3.168805386E+02  1.250000000E+02  0.00000E+00  9.000E+00
      25     1     1     2     0     0 -1.710127242E+02 -1.537103765E+02 -5.996902922E+01  2.685023578E+02  1.250000000E+02  0.00000E+00  9.000E+00
      21     1     1     2   511   502  2.368280251E+00 -1.076159426E+01  4.130541409E-02  1.101918184E+01  6.255826214E-08  0.00000E+00  9.000E+00
#rwgt            1           1   2.6827446876962063E-002           5      319925           0
</event>
<event>
      5   9999  3.19816E-02  1.93988E+02 -1.00000E+00  1.12133E-01
      21    -1     0     0   502   501  0.000000000E+00  0.000000000E+00  7.722539336E+02  7.722539336E+02  0.000000000E+00  0.00000E+00  9.000E+00
      21    -1     0     0   512   502  0.000000000E+00  0.000000000E+00 -4.425192271E+02  4.425192271E+02  0.000000000E+00  0.00000E+00  9.000E+00
      25     1     1     2     0     0 -1.796576281E+00 -7.054096737E+01 -2.709313082E+02  3.066072888E+02  1.250000000E+02  0.00000E+00  9.000E+00
      25     1     1     2     0     0  1.392054080E+02 -6.639077832E+01  6.725878212E+02  7.012740251E+02  1.250000000E+02  0.00000E+00  9.000E+00
      21     1     1     2   512   501 -1.374088317E+02  1.369317457E+02 -7.192180651E+01  2.068918468E+02  3.814697266E-06  0.00000E+00  9.000E+00
#rwgt            1           1   2.3349571670867552E-002           5      320126           0
</event>
<event>
      5   9999  3.19816E-02  4.88170E+01 -1.00000E+00  1.39671E-01
      21    -1     0     0   502   501  0.000000000E+00  0.000000000E+00  1.511758765E+03  1.511758765E+03  0.000000000E+00  0.00000E+00  9.000E+00
      21    -1     0     0   501   511  0.000000000E+00  0.000000000E+00 -1.727928889E+02  1.727928889E+02  0.000000000E+00  0.00000E+00  9.000E+00
      25     1     1     2     0     0  3.490964869E+01 -1.579762953E+02  3.936444128E+02  4.435719977E+02  1.250000000E+02  0.00000E+00  9.000E+00
      25     1     1     2     0     0  3.545645852E+00  1.880476670E+02  1.077063383E+03  1.100483997E+03  1.250000000E+02  0.00000E+00  9.000E+00
      21     1     1     2   502   511 -3.845529455E+01 -3.007137178E+01 -1.317419193E+02  1.404956596E+02  2.697398305E-06  0.00000E+00  9.000E+00
#rwgt            1           1   5.2275254227421450E-002           5      320223           0
</event>
<event>
      5   9999  3.19816E-02  1.22100E+01 -1.00000E+00  1.86239E-01
      21    -1     0     0   512   501  0.000000000E+00  0.000000000E+00  4.717018542E+02  4.717018542E+02  0.000000000E+00  0.00000E+00  9.000E+00
      21    -1     0     0   501   502  0.000000000E+00  0.000000000E+00 -2.807760967E+02  2.807760967E+02  0.000000000E+00  0.00000E+00  9.000E+00
      25     1     1     2     0     0  7.422973114E+01 -2.274850952E+02  4.526550255E+01  2.737398167E+02  1.250000000E+02  0.00000E+00  9.000E+00
      25     1     1     2     0     0 -6.204051897E+01  2.267721164E+02 -5.981076337E+01  2.729046467E+02  1.250000000E+02  0.00000E+00  9.000E+00
      21     1     1     2   512   502 -1.218921217E+01  7.129787359E-01  2.054710183E+02  2.058334876E+02  2.697398305E-06  0.00000E+00  9.000E+00
#rwgt            1           1   2.8402250920239687E-002           5      320310           0
</event>
<event>
      5   9999  3.19816E-02  1.03091E+02 -1.00000E+00  1.23236E-01
      21    -1     0     0   502   511  0.000000000E+00  0.000000000E+00  1.407059642E+02  1.407059642E+02  0.000000000E+00  0.00000E+00  9.000E+00
      21    -1     0     0   501   502  0.000000000E+00  0.000000000E+00 -1.108586950E+03  1.108586950E+03  0.000000000E+00  0.00000E+00  9.000E+00
      25     1     1     2     0     0 -1.314791421E+02 -9.172607532E+01 -5.128933296E+02  5.517109798E+02  1.250000000E+02  0.00000E+00  9.000E+00
      25     1     1     2     0     0  1.330468275E+02 -1.135329985E+01 -5.360760885E+02  5.664211582E+02  1.250000000E+02  0.00000E+00  9.000E+00
      21     1     1     2   501   511 -1.567685437E+00  1.030793752E+02  8.108843265E+01  1.311607759E+02  3.015782986E-06  0.00000E+00  9.000E+00
#rwgt            1           1   3.3901914618333702E-002           5      320526           0
</event>
<event>
      5   9999  3.19816E-02  3.80600E+02 -1.00000E+00  1.02339E-01
      -4    -1     0     0     0   501  0.000000000E+00  0.000000000E+00  1.184920429E+03  1.184920429E+03  0.000000000E+00  0.00000E+00  9.000E+00
      21    -1     0     0   501   502  0.000000000E+00  0.000000000E+00 -3.254512017E+02  3.254512017E+02  0.000000000E+00  0.00000E+00  9.000E+00
      25     1     1     2     0     0  3.447771628E+02  1.949876995E+02  2.242753999E+01  4.159561148E+02  1.250000000E+02  0.00000E+00  9.000E+00
      25     1     1     2     0     0 -9.575964184E+01  9.284295707E+01  6.404799154E+02  6.660549870E+02  1.250000000E+02  0.00000E+00  9.000E+00
      -4     1     1     2     0   502 -2.490175209E+02 -2.878306566E+02  1.965617719E+02  4.283605290E+02  3.814697266E-06  0.00000E+00  9.000E+00
#rwgt            1           1   3.0206592187700901E-002           5      320579           0
</event>
<event>
      5   9999  3.19816E-02  7.56948E+01 -1.00000E+00  1.29523E-01
      21    -1     0     0   502   501  0.000000000E+00  0.000000000E+00  3.695982715E+02  3.695982715E+02  0.000000000E+00  0.00000E+00  9.000E+00
      21    -1     0     0   501   511  0.000000000E+00  0.000000000E+00 -5.197049727E+02  5.197049727E+02  0.000000000E+00  0.00000E+00  9.000E+00
      25     1     1     2     0     0  2.298789797E+02 -3.520751901E+01  2.078739122E+02  3.360364237E+02  1.250000000E+02  0.00000E+00  9.000E+00
      25     1     1     2     0     0 -1.929590550E+02 -3.087288637E+01 -5.155792683E+01  2.376332297E+02  1.250000000E+02  0.00000E+00  9.000E+00
      21     1     1     2   502   511 -3.691992466E+01  6.608040538E+01 -3.064226865E+02  3.156335908E+02  6.607249480E-06  0.00000E+00  9.000E+00
#rwgt            1           1   2.9513399150191241E-002           5      320615           0
</event>
<event>
      5   9999  3.19816E-02  3.91637E+01 -1.00000E+00  1.45412E-01
      21    -1     0     0   502   501  0.000000000E+00  0.000000000E+00  2.486569525E+02  2.486569525E+02  0.000000000E+00  0.00000E+00  9.000E+00
      21    -1     0     0   501   512  0.000000000E+00  0.000000000E+00 -6.846529169E+02  6.846529169E+02  0.000000000E+00  0.00000E+00  9.000E+00
      25     1     1     2     0     0 -2.548374490E+01 -8.961200187E+01 -1.972127049E+02  2.513912948E+02  1.250000000E+02  0.00000E+00  9.000E+00
      25     1     1     2     0     0  1.718739476E+01  5.133712775E+01  1.996749876E+02  2.417147242E+02  1.250000000E+02  0.00000E+00  9.000E+00
      21     1     1     2   502   512  8.296350132E+00  3.827487411E+01 -4.384582471E+02  4.402038504E+02  0.000000000E+00  0.00000E+00  9.000E+00
#rwgt            1           1   2.7492224909812922E-002           5      320706           0
</event>
<event>
      5   9999  3.19816E-02  1.44715E+01 -1.00000E+00  1.78864E-01
      21    -1     0     0   502   511  0.000000000E+00  0.000000000E+00  8.860319468E+02  8.860319468E+02  0.000000000E+00  0.00000E+00  9.000E+00
      21    -1     0     0   501   502  0.000000000E+00  0.000000000E+00 -5.207940823E+02  5.207940823E+02  0.000000000E+00  0.00000E+00  9.000E+00
      25     1     1     2     0     0 -2.402757150E+02  1.046609928E+02 -4.061156151E+02  4.992406589E+02  1.250000000E+02  0.00000E+00  9.000E+00
      25     1     1     2     0     0  2.291895112E+02 -1.139626296E+02  2.302065028E+02  3.662449275E+02  1.250000000E+02  0.00000E+00  9.000E+00
      21     1     1     2   501   511  1.108620385E+01  9.301636767E+00  5.411469768E+02  5.413404426E+02  7.629394531E-06  0.00000E+00  9.000E+00
#rwgt            1           1   2.5627998101103500E-002           5      320808           0
</event>
<event>
      5   9999  3.19816E-02  1.65751E+01 -1.00000E+00  1.73393E-01
      21    -1     0     0   502   501  0.000000000E+00  0.000000000E+00  6.107181960E+02  6.107181960E+02  0.000000000E+00  0.00000E+00  9.000E+00
      21    -1     0     0   512   502  0.000000000E+00  0.000000000E+00 -8.237060087E+01  8.237060087E+01  0.000000000E+00  0.00000E+00  9.000E+00
      25     1     1     2     0     0 -5.037092268E+01 -1.084670155E+02  1.943602559E+02  2.601984480E+02  1.250000000E+02  0.00000E+00  9.000E+00
      25     1     1     2     0     0  6.174416536E+01  1.205245125E+02  3.586190180E+02  4.032010666E+02  1.250000000E+02  0.00000E+00  9.000E+00
      21     1     1     2   512   501 -1.137324267E+01 -1.205749695E+01 -2.463167871E+01  2.968928221E+01  5.840038640E-07  0.00000E+00  9.000E+00
#rwgt            1           1   2.6150845854787958E-002           5      321089           0
</event>
<event>
      5   9999  3.19816E-02  2.31309E+02 -1.00000E+00  1.09396E-01
      21    -1     0     0   502   501  0.000000000E+00  0.000000000E+00  9.574698270E+02  9.574698270E+02  0.000000000E+00  0.00000E+00  9.000E+00
      21    -1     0     0   511   502  0.000000000E+00  0.000000000E+00 -3.403502347E+02  3.403502347E+02  0.000000000E+00  0.00000E+00  9.000E+00
      25     1     1     2     0     0 -8.201292555E+01 -3.407360061E+02  2.157143802E+02  4.300986394E+02  1.250000000E+02  0.00000E+00  9.000E+00
      25     1     1     2     0     0 -7.015224149E+01  5.149471291E+02  3.172338182E+02  6.215739523E+02  1.250000000E+02  0.00000E+00  9.000E+00
      21     1     1     2   511   501  1.521651670E+02 -1.742111230E+02  8.417139396E+01  2.461474700E+02  3.162979880E-06  0.00000E+00  9.000E+00
#rwgt            1           1   2.7200997629853153E-002           5      321287           0
</event>
<event>
      5   9999  3.19816E-02  1.04911E+02 -1.00000E+00  1.22899E-01
      21    -1     0     0   512   501  0.000000000E+00  0.000000000E+00  9.216812340E+02  9.216812340E+02  0.000000000E+00  0.00000E+00  9.000E+00
      21    -1     0     0   501   502  0.000000000E+00  0.000000000E+00 -3.762154981E+02  3.762154981E+02  0.000000000E+00  0.00000E+00  9.000E+00
      25     1     1     2     0     0  4.725742532E+02 -5.779754523E+01  5.444086673E+01  4.952330653E+02  1.250000000E+02  0.00000E+00  9.000E+00
      25     1     1     2     0     0 -4.827031766E+02 -4.662360033E+01  2.974175805E+02  5.824588689E+02  1.250000000E+02  0.00000E+00  9.000E+00
      21     1     1     2   512   502  1.012892338E+01  1.044211456E+02  1.936072887E+02  2.202047978E+02  0.000000000E+00  0.00000E+00  9.000E+00
#rwgt            1           1   2.3350501772515905E-002           5      321361           0
</event>
<event>
      5   9999  3.19816E-02  2.42283E+01 -1.00000E+00  1.59778E-01
      21    -1     0     0   511   501  0.000000000E+00  0.000000000E+00  2.155485779E+03  2.155485779E+03  0.000000000E+00  0.00000E+00  9.000E+00
      21    -1     0     0   501   502  0.000000000E+00  0.000000000E+00 -5.269633446E+01  5.269633446E+01  0.000000000E+00  0.00000E+00  9.000E+00
      25     1     1     2     0     0 -1.235524528E+02 -1.073016941E+02  2.937126503E+02  3.587073781E+02  1.250000000E+02  0.00000E+00  9.000E+00
      25     1     1     2     0     0  1.050405656E+02  9.167086256E+01  4.161401386E+02  4.563273851E+02  1.250000000E+02  0.00000E+00  9.000E+00
      21     1     1     2   511   502  1.851188719E+01  1.563083157E+01  1.392936655E+03  1.393147350E+03  1.525878906E-05  0.00000E+00  9.000E+00
#rwgt            1           1   3.0877049204177203E-002           5      321449           0
</event>
<event>
      5   9999  3.19816E-02  7.68657E+00 -1.00000E+00  2.09966E-01
      21    -1     0     0   502   501  0.000000000E+00  0.000000000E+00  6.706329442E+02  6.706329442E+02  0.000000000E+00  0.00000E+00  9.000E+00
      21    -1     0     0   501   512  0.000000000E+00  0.000000000E+00 -2.153209578E+02  2.153209578E+02  0.000000000E+00  0.00000E+00  9.000E+00
      25     1     1     2     0     0  1.003825701E+02  2.084641300E+02  5.252912992E+02  5.874435316E+02  1.250000000E+02  0.00000E+00  9.000E+00
      25     1     1     2     0     0 -1.065439783E+02 -2.130598199E+02 -4.548324950E+01  2.728366400E+02  1.250000000E+02  0.00000E+00  9.000E+00
      21     1     1     2   502   512  6.161408207E+00  4.595689865E+00 -2.449606321E+01  2.567373033E+01  3.371747881E-07  0.00000E+00  9.000E+00
#rwgt            1           1   2.8038534180534203E-002           5      321574           0
</event>
<event>
      5   9999  3.19816E-02  5.53802E+02 -1.00000E+00  9.76072E-02
      21    -1     0     0   502   501  0.000000000E+00  0.000000000E+00  1.394726356E+03  1.394726356E+03  0.000000000E+00  0.00000E+00  9.000E+00
      21    -1     0     0   511   502  0.000000000E+00  0.000000000E+00 -3.800790093E+02  3.800790093E+02  0.000000000E+00  0.00000E+00  9.000E+00
      25     1     1     2     0     0  2.221433877E+01  2.330337302E+01 -8.252491093E+01  1.532053686E+02  1.250000000E+02  0.00000E+00  9.000E+00
      25     1     1     2     0     0  5.295526124E+02  2.413345178E+01  8.626316052E+02  1.020179729E+03  1.250000000E+02  0.00000E+00  9.000E+00
      21     1     1     2   511   501 -5.517669512E+02 -4.743682481E+01  2.345406522E+02  6.014202676E+02  1.265191952E-05  0.00000E+00  9.000E+00
#rwgt            2          11   2.1234706780470496E-003           5      321931           0
</event>
<event>
      5   9999  3.19816E-02  5.95345E+01 -1.00000E+00  1.34884E-01
      21    -1     0     0   502   501  0.000000000E+00  0.000000000E+00  1.559437113E+02  1.559437113E+02  0.000000000E+00  0.00000E+00  9.000E+00
      21    -1     0     0   501   512  0.000000000E+00  0.000000000E+00 -5.177740303E+02  5.177740303E+02  0.000000000E+00  0.00000E+00  9.000E+00
      25     1     1     2     0     0 -2.652932115E+01  1.006654828E+02  4.492417831E+01  1.687617436E+02  1.250000000E+02  0.00000E+00  9.000E+00
      25     1     1     2     0     0  3.827585251E+01 -1.590296593E+02 -1.898934101E+02  2.800713849E+02  1.250000000E+02  0.00000E+00  9.000E+00
      21     1     1     2   502   512 -1.174653136E+01  5.836417648E+01 -2.168610871E+02  2.248846131E+02  3.814697266E-06  0.00000E+00  9.000E+00
#rwgt            1           1   2.6136360957856739E-002           5      321951           0
</event>
<event>
      5   9999  3.19816E-02  2.92232E+01 -1.00000E+00  1.53835E-01
      21    -1     0     0   502   511  0.000000000E+00  0.000000000E+00  6.443916058E+02  6.443916058E+02  0.000000000E+00  0.00000E+00  9.000E+00
      21    -1     0     0   501   502  0.000000000E+00  0.000000000E+00 -6.242292450E+02  6.242292450E+02  0.000000000E+00  0.00000E+00  9.000E+00
      25     1     1     2     0     0 -2.775186124E+02  6.795358357E+01 -5.130807292E+02  6.004257693E+02  1.250000000E+02  0.00000E+00  9.000E+00
      25     1     1     2     0     0  2.863056250E+02 -4.008268947E+01  3.061803653E+02  4.392595463E+02  1.250000000E+02  0.00000E+00  9.000E+00
      21     1     1     2   501   511 -8.787012592E+00 -2.787089410E+01  2.270627247E+02  2.289355352E+02  3.814697266E-06  0.00000E+00  9.000E+00
#rwgt            1           1   2.7421801484131057E-002           5      322017           0
</event>
<event>
      5   9999  3.19816E-02  1.49252E+02 -1.00000E+00  1.16480E-01
      21    -1     0     0   512   501  0.000000000E+00  0.000000000E+00  7.706531676E+02  7.706531676E+02  0.000000000E+00  0.00000E+00  9.000E+00
      21    -1     0     0   501   502  0.000000000E+00  0.000000000E+00 -5.499243345E+02  5.499243345E+02  0.000000000E+00  0.00000E+00  9.000E+00
      25     1     1     2     0     0 -1.412420248E+02 -3.828688016E+02  7.618319851E+01  4.335512755E+02  1.250000000E+02  0.00000E+00  9.000E+00
      25     1     1     2     0     0  8.851023321E+01  2.432422990E+02 -3.015628692E+02  4.166125796E+02  1.250000000E+02  0.00000E+00  9.000E+00
      21     1     1     2   512   502  5.273179160E+01  1.396265026E+02  4.461085038E+02  4.704136470E+02  7.629394531E-06  0.00000E+00  9.000E+00
#rwgt            1           1   2.8536408487447179E-002           5      322125           0
</event>
<event>
      5   9999  3.19816E-02  1.67741E+01 -1.00000E+00  1.72929E-01
      21    -1     0     0   502   511  0.000000000E+00  0.000000000E+00  1.465617363E+03  1.465617363E+03  0.000000000E+00  0.00000E+00  9.000E+00
      21    -1     0     0   501   502  0.000000000E+00  0.000000000E+00 -1.111351122E+02  1.111351122E+02  0.000000000E+00  0.00000E+00  9.000E+00
      25     1     1     2     0     0 -1.112994291E+02 -8.579499296E+00  1.291833173E+01  1.680864481E+02  1.250000000E+02  0.00000E+00  9.000E+00
      25     1     1     2     0     0  1.279919314E+02  1.023223033E+01  2.062279522E+02  2.732061517E+02  1.250000000E+02  0.00000E+00  9.000E+00
      21     1     1     2   501   511 -1.669250229E+01 -1.652731032E+00  1.135335967E+03  1.135459876E+03  2.157918644E-05  0.00000E+00  9.000E+00
#rwgt            1           1   2.8353610608393365E-002           5      322186           0
</event>
<event>
      5   9999  3.19816E-02  3.87902E+01 -1.00000E+00  1.45672E-01
      21    -1     0     0   512   501  0.000000000E+00  0.000000000E+00  1.851041589E+03  1.851041589E+03  0.000000000E+00  0.00000E+00  9.000E+00
      21    -1     0     0   501   502  0.000000000E+00  0.000000000E+00 -3.210208367E+02  3.210208367E+02  0.000000000E+00  0.00000E+00  9.000E+00
      25     1     1     2     0     0 -6.850953817E+02 -2.548799289E+02  5.013931027E+02  8.951756831E+02  1.250000000E+02  0.00000E+00  9.000E+00
      25     1     1     2     0     0  6.463310840E+02  2.534635549E+02  9.057993891E+02  1.148078907E+03  1.250000000E+02  0.00000E+00  9.000E+00
      21     1     1     2   512   502  3.876429769E+01  1.416373918E+00  1.228282603E+02  1.288078352E+02  1.348699152E-06  0.00000E+00  9.000E+00
#rwgt            1           1   2.8240367299352309E-002           5      322354           0
</event>
<event>
      5   9999  3.19816E-02  1.38815E+02 -1.00000E+00  1.17743E-01
       2    -1     0     0   502     0  0.000000000E+00  0.000000000E+00  2.594151608E+03  2.594151608E+03  0.000000000E+00  0.00000E+00  9.000E+00
      21    -1     0     0   501   502  0.000000000E+00  0.000000000E+00 -2.772498749E+02  2.772498749E+02  0.000000000E+00  0.00000E+00  9.000E+00
      25     1     1     2     0     0 -1.927550560E+02  5.480062610E+01  1.001238358E+02  2.565295358E+02  1.250000000E+02  0.00000E+00  9.000E+00
      25     1     1     2     0     0  6.295795799E+01 -5.583632091E+00 -1.721378985E+02  2.219264237E+02  1.250000000E+02  0.00000E+00  9.000E+00
       2     1     1     2   501     0  1.297970980E+02 -4.921699401E+01  2.388915796E+03  2.392945523E+03  3.051757812E-05  0.00000E+00  9.000E+00
#rwgt            1           1   2.8938915578698536E-002           5      322508           0
</event>
<event>
      5   9999  3.19816E-02  3.43426E+02 -1.00000E+00  1.03719E-01
      21    -1     0     0   502   501  0.000000000E+00  0.000000000E+00  9.175769635E+02  9.175769635E+02  0.000000000E+00  0.00000E+00  9.000E+00
       1    -1     0     0   501     0  0.000000000E+00  0.000000000E+00 -9.138842593E+02  9.138842593E+02  0.000000000E+00  0.00000E+00  9.000E+00
      25     1     1     2     0     0  9.030994851E+01  1.488701321E+02 -4.551366206E+02  5.030830413E+02  1.250000000E+02  0.00000E+00  9.000E+00
      25     1     1     2     0     0  1.072783958E+02 -4.297616722E+02  7.487800875E+02  8.789200012E+02  1.250000000E+02  0.00000E+00  9.000E+00
       1     1     1     2   502     0 -1.975883443E+02  2.808915400E+02 -2.899507627E+02  4.494581803E+02  3.814697266E-06  0.00000E+00  9.000E+00
#rwgt            2          12   3.6626583992673835E-004           5      322555           0
</event>
<event>
      5   9999  3.19816E-02  7.18375E+01 -1.00000E+00  1.30653E-01
      21    -1     0     0   502   501  0.000000000E+00  0.000000000E+00  9.926381321E+01  9.926381321E+01  0.000000000E+00  0.00000E+00  9.000E+00
      21    -1     0     0   501   511  0.000000000E+00  0.000000000E+00 -1.089025398E+03  1.089025398E+03  0.000000000E+00  0.00000E+00  9.000E+00
      25     1     1     2     0     0 -1.656318006E+02  1.493458378E+02 -4.005657746E+02  4.752010231E+02  1.250000000E+02  0.00000E+00  9.000E+00
      25     1     1     2     0     0  2.341404890E+02 -1.709601914E+02 -3.926999844E+02  5.038724377E+02  1.250000000E+02  0.00000E+00  9.000E+00
      21     1     1     2   502   511 -6.850868842E+01  2.161435366E+01 -1.964958257E+02  2.092157503E+02  0.000000000E+00  0.00000E+00  9.000E+00
#rwgt            1           1   2.1885690876751598E-002           5      322619           0
</event>
<event>
      5   9999  3.19816E-02  4.30238E+01 -1.00000E+00  1.42904E-01
      21    -1     0     0   502   512  0.000000000E+00  0.000000000E+00  3.614570014E+01  3.614570014E+01  0.000000000E+00  0.00000E+00  9.000E+00
      21    -1     0     0   501   502  0.000000000E+00  0.000000000E+00 -1.536311588E+03  1.536311588E+03  0.000000000E+00  0.00000E+00  9.000E+00
      25     1     1     2     0     0 -2.498400833E-01  1.731193782E+00 -1.136060033E+02  1.689212344E+02  1.250000000E+02  0.00000E+00  9.000E+00
      25     1     1     2     0     0  3.922542510E+01  1.648835443E+01 -1.301823044E+03  1.308502479E+03  1.250000000E+02  0.00000E+00  9.000E+00
      21     1     1     2   501   512 -3.897558502E+01 -1.821954821E+01 -8.473684054E+01  9.503357464E+01  1.348699152E-06  0.00000E+00  9.000E+00
#rwgt            1           1   3.1184425551563769E-002           5      322770           0
</event>
<event>
      5   9999  3.19816E-02  1.29248E+02 -1.00000E+00  1.19015E-01
      21    -1     0     0   502   511  0.000000000E+00  0.000000000E+00  6.036466405E+02  6.036466405E+02  0.000000000E+00  0.00000E+00  9.000E+00
      21    -1     0     0   501   502  0.000000000E+00  0.000000000E+00 -6.481645890E+02  6.481645890E+02  0.000000000E+00  0.00000E+00  9.000E+00
      25     1     1     2     0     0  2.535254253E+01  3.097712300E+02  1.614275446E+02  3.718666677E+02  1.250000000E+02  0.00000E+00  9.000E+00
      25     1     1     2     0     0 -8.100768349E+01 -4.264227505E+02 -4.284856582E+02  6.225942228E+02  1.250000000E+02  0.00000E+00  9.000E+00
      21     1     1     2   501   511  5.565514096E+01  1.166515205E+02  2.225401651E+02  2.573503391E+02  3.814697266E-06  0.00000E+00  9.000E+00
#rwgt            1           1   2.7095050137112633E-002           5      322903           0
</event>
<event>
      5   9999  3.19816E-02  2.08389E+01 -1.00000E+00  1.64910E-01
      21    -1     0     0   502   501  0.000000000E+00  0.000000000E+00  1.253321789E+02  1.253321789E+02  0.000000000E+00  0.00000E+00  9.000E+00
      21    -1     0     0   501   512  0.000000000E+00  0.000000000E+00 -7.254814965E+02  7.254814965E+02  0.000000000E+00  0.00000E+00  9.000E+00
      25     1     1     2     0     0 -1.913425268E+02  8.214358629E+01 -7.771711104E+01  2.549989817E+02  1.250000000E+02  0.00000E+00  9.000E+00
      25     1     1     2     0     0  1.759907768E+02 -9.623554893E+01 -3.512102146E+02  4.233292444E+02  1.250000000E+02  0.00000E+00  9.000E+00
      21     1     1     2   502   512  1.535175001E+01  1.409196264E+01 -1.712219920E+02  1.724854492E+02  2.697398305E-06  0.00000E+00  9.000E+00
#rwgt            1           1   3.2573813773041631E-002           5      323027           0
</event>
<event>
      5   9999  3.19816E-02  6.00447E+02 -1.00000E+00  9.66447E-02
       2    -1     0     0   502     0  0.000000000E+00  0.000000000E+00  1.984600395E+03  1.984600395E+03  0.000000000E+00  0.00000E+00  9.000E+00
      21    -1     0     0   501   502  0.000000000E+00  0.000000000E+00 -6.873581988E+02  6.873581988E+02  0.000000000E+00  0.00000E+00  9.000E+00
      25     1     1     2     0     0 -3.635463465E+02 -6.724258049E+02 -2.864776280E+02  8.258431089E+02  1.250000000E+02  0.00000E+00  9.000E+00
      25     1     1     2     0     0  1.624143886E+01  1.826143022E+02  9.595420828E+01  2.417518931E+02  1.250000000E+02  0.00000E+00  9.000E+00
       2     1     1     2   501     0  3.473049076E+02  4.898115027E+02  1.487765616E+03  1.604363592E+03  3.051757812E-05  0.00000E+00  9.000E+00
#rwgt            2          18   2.0553369434635330E-003           5      323174           0
</event>
<event>
      5   9999  3.19816E-02  1.59940E+02 -1.00000E+00  1.15300E-01
      21    -1     0     0   502   501  0.000000000E+00  0.000000000E+00  5.987644543E+02  5.987644543E+02  0.000000000E+00  0.00000E+00  9.000E+00
       2    -1     0     0   501     0  0.000000000E+00  0.000000000E+00 -2.455167701E+02  2.455167701E+02  0.000000000E+00  0.00000E+00  9.000E+00
      25     1     1     2     0     0  1.119647561E+02 -1.238094964E+02  4.246162321E+02  4.730632543E+02  1.250000000E+02  0.00000E+00  9.000E+00
      25     1     1     2     0     0 -9.702383011E+01 -3.543120470E+01  5.083487668E+01  1.699358072E+02  1.250000000E+02  0.00000E+00  9.000E+00
       2     1     1     2   502     0 -1.494092602E+01  1.592407011E+02 -1.222034245E+02  2.012821629E+02  0.000000000E+00  0.00000E+00  9.000E+00
#rwgt            2          13   2.9493533443525620E-004           5      323223           0
</event>
<event>
      5   9999  3.19816E-02  4.52411E+02 -1.00000E+00  1.00102E-01
      21    -1     0     0   502   511  0.000000000E+00  0.000000000E+00  1.291926372E+03  1.291926372E+03  0.000000000E+00  0.00000E+00  9.000E+00
      21    -1     0     0   501   502  0.000000000E+00  0.000000000E+00 -4.708956819E+02  4.708956819E+02  0.000000000E+00  0.00000E+00  9.000E+00
      25     1     1     2     0     0 -6.333067949E+02 -1.640023352E+02  5.184727956E+02  8.440457939E+02  1.250000000E+02  0.00000E+00  9.000E+00
      25     1     1     2     0     0  1.819451487E+02  1.332022458E+02 -1.335803789E+02  2.903714742E+02  1.250000000E+02  0.00000E+00  9.000E+00
      21     1     1     2   501   511  4.513616462E+02  3.080008943E+01  4.361382729E+02  6.284047853E+02  5.394796609E-06  0.00000E+00  9.000E+00
#rwgt            1           1   2.9080536880225900E-002           5      323242           0
</event>
<event>
      5   9999  3.19816E-02  1.91288E+01 -1.00000E+00  1.67981E-01
      21    -1     0     0   502   501  0.000000000E+00  0.000000000E+00  5.486563045E+02  5.486563045E+02  0.000000000E+00  0.00000E+00  9.000E+00
      21    -1     0     0   501   512  0.000000000E+00  0.000000000E+00 -4.802015940E+01  4.802015940E+01  0.000000000E+00  0.00000E+00  9.000E+00
      25     1     1     2     0     0  3.704360248E+01  4.579356109E+01  3.646284596E+02  3.899335741E+02  1.250000000E+02  0.00000E+00  9.000E+00
      25     1     1     2     0     0 -2.019935029E+01 -3.672806516E+01  1.331904137E+02  1.874077128E+02  1.250000000E+02  0.00000E+00  9.000E+00
      21     1     1     2   502   512 -1.684425219E+01 -9.065495933E+00  2.817271900E+00  1.933517700E+01  2.384185791E-07  0.00000E+00  9.000E+00
#rwgt            1           1   3.5001207870886779E-002           5      323280           0
</event>
<event>
      5   9999  3.19816E-02  1.67725E+02 -1.00000E+00  1.14503E-01
      21    -1     0     0   502   501  0.000000000E+00  0.000000000E+00  6.078134243E+02  6.078134243E+02  0.000000000E+00  0.00000E+00  9.000E+00
       2    -1     0     0   501     0  0.000000000E+00  0.000000000E+00 -1.268938916E+03  1.268938916E+03  0.000000000E+00  0.00000E+00  9.000E+00
      25     1     1     2     0     0  1.758859137E+02  2.406474359E+02  1.212184764E+02  3.452042324E+02  1.250000000E+02  0.00000E+00  9.000E+00
      25     1     1     2     0     0 -3.103384879E+02 -3.409175246E+02  2.124053484E+02  5.227578481E+02  1.250000000E+02  0.00000E+00  9.000E+00
       2     1     1     2   502     0  1.344525742E+02  1.002700887E+02 -9.947493166E+02  1.008790260E+03  1.078959322E-05  0.00000E+00  9.000E+00
#rwgt            2          13   2.2913453531042093E-003           5      323374           0
</event>
<event>
      5   9999  3.19816E-02  6.27782E+01 -1.00000E+00  1.33661E-01
      21    -1     0     0   511   501  0.000000000E+00  0.000000000E+00  2.280063818E+02  2.280063818E+02  0.000000000E+00  0.00000E+00  9.000E+00
      21    -1     0     0   501   502  0.000000000E+00  0.000000000E+00 -1.288149154E+03  1.288149154E+03  0.000000000E+00  0.00000E+00  9.000E+00
      25     1     1     2     0     0  3.105150624E+02  2.210570528E+02 -9.935346078E+02  1.071457811E+03  1.250000000E+02  0.00000E+00  9.000E+00
      25     1     1     2     0     0 -3.180721124E+02 -1.587353997E+02 -6.014470089E+01  3.815877105E+02  1.250000000E+02  0.00000E+00  9.000E+00
      21     1     1     2   511   502  7.557050027E+00 -6.232165310E+01 -6.463462974E+00  6.311001350E+01  1.579241908E-06  0.00000E+00  9.000E+00
#rwgt            1           1   2.8155254614479111E-002           5      323393           0
</event>
<event>
      5   9999  3.19816E-02  3.49749E+01 -1.00000E+00  1.48551E-01
      21    -1     0     0   502   501  0.000000000E+00  0.000000000E+00  1.777694824E+03  1.777694824E+03  0.000000000E+00  0.00000E+00  9.000E+00
      21    -1     0     0   512   502  0.000000000E+00  0.000000000E+00 -4.279757550E+01  4.279757550E+01  0.000000000E+00  0.00000E+00  9.000E+00
      25     1     1     2     0     0  9.122929306E+01  1.477935775E+02  6.050946319E+02  6.418179173E+02  1.250000000E+02  0.00000E+00  9.000E+00
      25     1     1     2     0     0 -1.245337026E+02 -1.584733729E+02  1.116248185E+03  1.141164959E+03  1.250000000E+02  0.00000E+00  9.000E+00
      21     1     1     2   512   501  3.330440955E+01  1.067979537E+01  1.355443179E+01  3.750952340E+01  6.078504936E-07  0.00000E+00  9.000E+00
#rwgt            1           1   2.8741724736103518E-002           5      323524           0
</event>
<event>
      5   9999  3.19816E-02  1.06488E+02 -1.00000E+00  1.22612E-01
      21    -1     0     0   502   501  0.000000000E+00  0.000000000E+00  3.518087200E+02  3.518087200E+02  0.000000000E+00  0.00000E+00  9.000E+00
      21    -1     0     0   501   511  0.000000000E+00  0.000000000E+00 -5.250075220E+02  5.250075220E+02  0.000000000E+00  0.00000E+00  9.000E+00
      25     1     1     2     0     0  1.013750886E+02 -3.021502238E+02 -6.874250342E+01  3.491735931E+02  1.250000000E+02  0.00000E+00  9.000E+00
      25     1     1     2     0     0 -3.847784249E+01  3.880777711E+02 -6.827551206E+01  4.151764039E+02  1.250000000E+02  0.00000E+00  9.000E+00
      21     1     1     2   502   511 -6.289724610E+01 -8.592754727E+01 -3.618078647E+01  1.124662450E+02  1.430511475E-06  0.00000E+00  9.000E+00
#rwgt            1           1   2.6013867758559680E-002           5      323624           0
</event>
<event>
      5   9999  3.19816E-02  1.36065E+01 -1.00000E+00  1.81468E-01
      21    -1     0     0   502   512  0.000000000E+00  0.000000000E+00  5.313937122E+02  5.313937122E+02  0.000000000E+00  0.00000E+00  9.000E+00
      21    -1     0     0   501   502  0.000000000E+00  0.000000000E+00 -2.880290772E+02  2.880290772E+02  0.000000000E+00  0.00000E+00  9.000E+00
      25     1     1     2     0     0 -2.237584666E+02 -2.120530484E+02 -1.459665489E+01  3.329750878E+02  1.250000000E+02  0.00000E+00  9.000E+00
      25     1     1     2     0     0  2.170308482E+02  2.238800178E+02  1.338857559E+02  3.616283273E+02  1.250000000E+02  0.00000E+00  9.000E+00
      21     1     1     2   501   512  6.727618421E+00 -1.182696939E+01  1.240755341E+02  1.248193743E+02  0.000000000E+00  0.00000E+00  9.000E+00
#rwgt            1           1   2.7645546513003043E-002           5      323709           0
</event>
<event>
      5   9999  3.19816E-02  4.87313E+01 -1.00000E+00  1.39715E-01
      21    -1     0     0   502   511  0.000000000E+00  0.000000000E+00  1.376951197E+03  1.376951197E+03  0.000000000E+00  0.00000E+00  9.000E+00
      21    -1     0     0   501   502  0.000000000E+00  0.000000000E+00 -2.545894468E+01  2.545894468E+01  0.000000000E+00  0.00000E+00  9.000E+00
      25     1     1     2     0     0 -1.056873577E+01  1.081653479E+02  8.383036155E+02  8.545112008E+02  1.250000000E+02  0.00000E+00  9.000E+00
      25     1     1     2     0     0  3.101349807E+00 -6.000953233E+01  3.220316107E+02  3.506281801E+02  1.250000000E+02  0.00000E+00  9.000E+00
      21     1     1     2   501   511  7.467385959E+00 -4.815581555E+01  1.911570263E+02  1.972707610E+02  0.000000000E+00  0.00000E+00  9.000E+00
#rwgt            1           1   2.4462058004177424E-002           5      323888           0
</event>
<event>
      5   9999  3.19816E-02  1.02182E+02 -1.00000E+00  1.23408E-01
       1    -1     0     0   502     0  0.000000000E+00  0.000000000E+00  1.284713360E+03  1.284713360E+03  0.000000000E+00  0.00000E+00  9.000E+00
      21    -1     0     0   501   502  0.000000000E+00  0.000000000E+00 -1.647467502E+02  1.647467502E+02  0.000000000E+00  0.00000E+00  9.000E+00
      25     1     1     2     0     0 -1.781387605E+02 -1.039708804E+02  8.910530623E+01  2.571149890E+02  1.250000000E+02  0.00000E+00  9.000E+00
      25     1     1     2     0     0  1.234539697E+02  1.902884566E+02  1.376287524E+02  2.932869803E+02  1.250000000E+02  0.00000E+00  9.000E+00
       1     1     1     2   501     0  5.468479072E+01 -8.631757618E+01  8.932325510E+02  8.990581407E+02  1.525878906E-05  0.00000E+00  9.000E+00
#rwgt            1           1   2.5244086448090213E-002           5      324009           0
</event>
<event>
      5   9999  3.19816E-02  8.32082E+01 -1.00000E+00  1.27528E-01
      21    -1     0     0   511   501  0.000000000E+00  0.000000000E+00  1.447465951E+03  1.447465951E+03  0.000000000E+00  0.00000E+00  9.000E+00
      21    -1     0     0   501   502  0.000000000E+00  0.000000000E+00 -2.251169629E+02  2.251169629E+02  0.000000000E+00  0.00000E+00  9.000E+00
      25     1     1     2     0     0  4.519995211E+02  2.680942535E+01  1.479826772E+02  4.924897817E+02  1.250000000E+02  0.00000E+00  9.000E+00
      25     1     1     2     0     0 -3.715484826E+02 -4.805177422E+01  9.648422645E+02  1.042546327E+03  1.250000000E+02  0.00000E+00  9.000E+00
      21     1     1     2   511   502 -8.045103848E+01  2.124234887E+01  1.095240467E+02  1.375468058E+02  2.697398305E-06  0.00000E+00  9.000E+00
#rwgt            1           1   3.0446484885186791E-002           5      324078           0
</event>
<event>
      5   9999  3.19816E-02  8.21517E+01 -1.00000E+00  1.27794E-01
      21    -1     0     0   502   501  0.000000000E+00  0.000000000E+00  2.335785381E+02  2.335785381E+02  0.000000000E+00  0.00000E+00  9.000E+00
      21    -1     0     0   512   502  0.000000000E+00  0.000000000E+00 -2.574208334E+02  2.574208334E+02  0.000000000E+00  0.00000E+00  9.000E+00
      25     1     1     2     0     0 -3.472217549E+01  1.008503569E+02  8.990858958E+01  1.873098461E+02  1.250000000E+02  0.00000E+00  9.000E+00
      25     1     1     2     0     0 -3.189537928E+01 -1.489231715E+02 -6.181681706E+01  2.064987775E+02  1.250000000E+02  0.00000E+00  9.000E+00
      21     1     1     2   512   501  6.661755477E+01  4.807281460E+01 -5.193406781E+01  9.719074805E+01  1.507891493E-06  0.00000E+00  9.000E+00
#rwgt            1           1   2.9599794815471373E-002           5      324153           0
</event>
<event>
      5   9999  3.19816E-02  3.22413E+01 -1.00000E+00  1.50898E-01
      21    -1     0     0   502   501  0.000000000E+00  0.000000000E+00  2.164621949E+02  2.164621949E+02  0.000000000E+00  0.00000E+00  9.000E+00
       2    -1     0     0   501     0  0.000000000E+00  0.000000000E+00 -7.225026272E+02  7.225026272E+02  0.000000000E+00  0.00000E+00  9.000E+00
      25     1     1     2     0     0 -1.288292280E+01  6.304755012E+01 -1.074308348E+02  1.769388243E+02  1.250000000E+02  0.00000E+00  9.000E+00
      25     1     1     2     0     0  3.497400642E+00 -9.389251314E+01  1.475012135E+02  2.149642850E+02  1.250000000E+02  0.00000E+00  9.000E+00
       2     1     1     2   502     0  9.385522161E+00  3.084496302E+01 -5.461108109E+02  5.470617128E+02  7.629394531E-06  0.00000E+00  9.000E+00
#rwgt            1           1   2.7020055286653345E-002           5      324229           0
</event>
<event>
      5   9999  3.19816E-02  4.91749E+01 -1.00000E+00  1.39489E-01
      21    -1     0     0   502   511  0.000000000E+00  0.000000000E+00  1.174924403E+03  1.174924403E+03  0.000000000E+00  0.00000E+00  9.000E+00
      21    -1     0     0   501   502  0.000000000E+00  0.000000000E+00 -6.429292695E+02  6.429292695E+02  0.000000000E+00  0.00000E+00  9.000E+00
      25     1     1     2     0     0  1.158063554E+02 -8.015970768E+02  1.834226276E+02  8.397844044E+02  1.250000000E+02  0.00000E+00  9.000E+00
      25     1     1     2     0     0 -1.500558393E+02  7.663105466E+02  1.917545397E+02  8.137219502E+02  1.250000000E+02  0.00000E+00  9.000E+00
      21     1     1     2   501   511  3.424948396E+01  3.528653021E+01  1.568179658E+02  1.643473175E+02  1.907348633E-06  0.00000E+00  9.000E+00
#rwgt            1           1   2.2539143132307610E-002           5      324359           0
</event>
<event>
      5   9999  3.19816E-02  3.09476E+02 -1.00000E+00  1.05155E-01
      21    -1     0     0   502   501  0.000000000E+00  0.000000000E+00  4.489635355E+02  4.489635355E+02  0.000000000E+00  0.00000E+00  9.000E+00
      21    -1     0     0   501   512  0.000000000E+00  0.000000000E+00 -3.808940206E+02  3.808940206E+02  0.000000000E+00  0.00000E+00  9.000E+00
      25     1     1     2     0     0 -1.656697079E+01 -1.967008195E+02 -1.148954594E+01  2.339288067E+02  1.250000000E+02  0.00000E+00  9.000E+00
      25     1     1     2     0     0  1.223222669E+02 -9.414528777E+01  1.825455080E+02  2.697664447E+02  1.250000000E+02  0.00000E+00  9.000E+00
      21     1     1     2   502   512 -1.057552961E+02  2.908461073E+02 -1.029864470E+02  3.261623048E+02  7.008046368E-06  0.00000E+00  9.000E+00
#rwgt            1           1   2.4766859824207552E-002           5      324477           0
</event>
<event>
      5   9999  3.19816E-02  2.66403E+02 -1.00000E+00  1.07296E-01
       2    -1     0     0   502     0  0.000000000E+00  0.000000000E+00  1.164477225E+03  1.164477225E+03  0.000000000E+00  0.00000E+00  9.000E+00
      21    -1     0     0   501   502  0.000000000E+00  0.000000000E+00 -2.064312674E+02  2.064312674E+02  0.000000000E+00  0.00000E+00  9.000E+00
      25     1     1     2     0     0  1.498988894E+02 -3.338640258E+01  2.881021902E+02  3.495886167E+02  1.250000000E+02  0.00000E+00  9.000E+00
      25     1     1     2     0     0 -3.975594567E+02 -6.477061817E+01  6.206624741E+02  7.503970025E+02  1.250000000E+02  0.00000E+00  9.000E+00
       2     1     1     2   501     0  2.476605674E+02  9.815702075E+01  4.928129320E+01  2.709228732E+02  2.023048729E-06  0.00000E+00  9.000E+00
#rwgt            2          18   3.3718059871485284E-004           5      324509           0
</event>
<event>
      5   9999  3.19816E-02  1.28375E+02 -1.00000E+00  1.19138E-01
      21    -1     0     0   511   501  0.000000000E+00  0.000000000E+00  2.486391383E+03  2.486391383E+03  0.000000000E+00  0.00000E+00  9.000E+00
      21    -1     0     0   501   502  0.000000000E+00  0.000000000E+00 -8.348083451E+02  8.348083451E+02  0.000000000E+00  0.00000E+00  9.000E+00
      25     1     1     2     0     0 -7.785181020E+02 -2.183088783E+02 -3.448728911E+02  8.878690852E+02  1.250000000E+02  0.00000E+00  9.000E+00
      25     1     1     2     0     0  9.025339611E+02  1.851413393E+02  7.900161655E+02  1.220080083E+03  1.250000000E+02  0.00000E+00  9.000E+00
      21     1     1     2   511   502 -1.240158591E+02  3.316753902E+01  1.206439763E+03  1.213250560E+03  1.525878906E-05  0.00000E+00  9.000E+00
#rwgt            1           1   2.2996865869246107E-002           5      324573           0
</event>
<event>
      5   9999  3.19816E-02  1.38791E+02 -1.00000E+00  1.17746E-01
       2    -1     0     0   502     0  0.000000000E+00  0.000000000E+00  5.165251665E+02  5.165251665E+02  0.000000000E+00  0.00000E+00  9.000E+00
      21    -1     0     0   501   502  0.000000000E+00  0.000000000E+00 -3.141952234E+02  3.141952234E+02  0.000000000E+00  0.00000E+00  9.000E+00
      25     1     1     2     0     0 -2.048842834E+02 -9.475951953E+00  2.421927698E+02  3.411007198E+02  1.250000000E+02  0.00000E+00  9.000E+00
      25     1     1     2     0     0  7.280538903E+01  5.211450962E+01 -2.161467066E+02  2.652563770E+02  1.250000000E+02  0.00000E+00  9.000E+00
       2     1     1     2   501     0  1.320788944E+02 -4.263855766E+01  1.762838799E+02  2.243632930E+02  2.697398305E-06  0.00000E+00  9.000E+00
#rwgt            1           1   2.6381703634507512E-002           5      324653           0
</event>
<event>
      5   9999  3.19816E-02  4.44044E+01 -1.00000E+00  1.42082E-01
      21    -1     0     0   502   501  0.000000000E+00  0.000000000E+00  1.134785409E+03  1.134785409E+03  0.000000000E+00  0.00000E+00  9.000E+00
      21    -1     0     0   511   502  0.000000000E+00  0.000000000E+00 -1.877271541E+02  1.877271541E+02  0.000000000E+00  0.00000E+00  9.000E+00
      25     1     1     2     0     0  1.975922781E+02 -3.205673271E+02  7.092412226E+02  8.126833524E+02  1.250000000E+02  0.00000E+00  9.000E+00
      25     1     1     2     0     0 -1.562560684E+02  3.367867254E+02  2.488121756E+02  4.640837813E+02  1.250000000E+02  0.00000E+00  9.000E+00
      21     1     1     2   511   501 -4.133620965E+01 -1.621939832E+01 -1.099514341E+01  4.574542915E+01  5.057621821E-07  0.00000E+00  9.000E+00
#rwgt            1           1   2.8494349129830360E-002           5      324737           0
</event>
<event>
      5   9999  3.19816E-02  4.04988E+01 -1.00000E+00  1.44507E-01
      21    -1     0     0   502   501  0.000000000E+00  0.000000000E+00  8.454866719E+01  8.454866719E+01  0.000000000E+00  0.00000E+00  9.000E+00
      -1    -1     0     0     0   502  0.000000000E+00  0.000000000E+00 -8.078548383E+02  8.078548383E+02  0.000000000E+00  0.00000E+00  9.000E+00
      25     1     1     2     0     0 -7.660765747E+01  9.309811940E+01 -5.223094888E+02  5.504254673E+02  1.250000000E+02  0.00000E+00  9.000E+00
      25     1     1     2     0     0  4.661696703E+01 -6.588212216E+01 -1.265083239E+01  1.493272889E+02  1.250000000E+02  0.00000E+00  9.000E+00
      -1     1     1     2     0   501  2.999069045E+01 -2.721599724E+01 -1.883458500E+02  1.926507493E+02  0.000000000E+00  0.00000E+00  9.000E+00
#rwgt            1           1   2.6926613492809549E-002           5      324839           0
</event>
<event>
      5   9999  3.19816E-02  7.00526E+00 -1.00000E+00  2.15508E-01
      21    -1     0     0   502   511  0.000000000E+00  0.000000000E+00  1.426656158E+02  1.426656158E+02  0.000000000E+00  0.00000E+00  9.000E+00
      21    -1     0     0   501   502  0.000000000E+00  0.000000000E+00 -6.912311387E+02  6.912311387E+02  0.000000000E+00  0.00000E+00  9.000E+00
      25     1     1     2     0     0 -2.113930813E+02 -1.354390175E+02 -1.123384667E+02  3.021186743E+02  1.250000000E+02  0.00000E+00  9.000E+00
      25     1     1     2     0     0  2.183918375E+02  1.357409211E+02 -4.392850313E+02  5.241344590E+02  1.250000000E+02  0.00000E+00  9.000E+00
      21     1     1     2   501   511 -6.998756201E+00 -3.019035975E-01  3.057975089E+00  7.643621249E+00  1.032382731E-07  0.00000E+00  9.000E+00
#rwgt            1           1   2.6681602632367442E-002           5      324974           0
</event>
<event>
      5   9999  3.19816E-02  1.44611E+02 -1.00000E+00  1.17027E-01
      21    -1     0     0   502   512  0.000000000E+00  0.000000000E+00  1.410367029E+02  1.410367029E+02  0.000000000E+00  0.00000E+00  9.000E+00
      21    -1     0     0   501   502  0.000000000E+00  0.000000000E+00 -9.551116424E+02  9.551116424E+02  0.000000000E+00  0.00000E+00  9.000E+00
      25     1     1     2     0     0 -9.184603235E+01  1.245167305E+02 -2.800449718E+02  3.434971558E+02  1.250000000E+02  0.00000E+00  9.000E+00
      25     1     1     2     0     0  1.669657075E+01 -2.480684450E+02 -5.404598801E+02  6.078968752E+02  1.250000000E+02  0.00000E+00  9.000E+00
      21     1     1     2   501   512  7.514946159E+01  1.235517145E+02  6.429912447E+00  1.447543143E+02  2.479152005E-06  0.00000E+00  9.000E+00
#rwgt            1           1   2.7469883857516832E-002           5      325330           0
</event>
<event>
      5   9999  3.19816E-02  4.13514E+01 -1.00000E+00  1.43951E-01
      21    -1     0     0   511   501  0.000000000E+00  0.000000000E+00  4.183112166E+02  4.183112166E+02  0.000000000E+00  0.00000E+00  9.000E+00
      21    -1     0     0   501   502  0.000000000E+00  0.000000000E+00 -1.034784698E+03  1.034784698E+03  0.000000000E+00  0.00000E+00  9.000E+00
      25     1     1     2     0     0  5.515665108E+01 -1.896047526E+02  1.386497837E+02  2.717369700E+02  1.250000000E+02  0.00000E+00  9.000E+00
      25     1     1     2     0     0 -3.894332085E+01  2.276450608E+02 -9.482050903E+02  9.838987495E+02  1.250000000E+02  0.00000E+00  9.000E+00
      21     1     1     2   511   502 -1.621333023E+01 -3.804030820E+01  1.930818256E+02  1.974601948E+02  3.814697266E-06  0.00000E+00  9.000E+00
#rwgt            1           1   2.9146125154966791E-002           5      325403           0
</event>
<event>
      5   9999  3.19816E-02  2.01062E+01 -1.00000E+00  1.66179E-01
      21    -1     0     0   502   501  0.000000000E+00  0.000000000E+00  3.281601563E+02  3.281601563E+02  0.000000000E+00  0.00000E+00  9.000E+00
      21    -1     0     0   501   512  0.000000000E+00  0.000000000E+00 -2.030369576E+03  2.030369576E+03  0.000000000E+00  0.00000E+00  9.000E+00
      25     1     1     2     0     0  5.307669276E+02  4.411981102E+02 -2.964938934E+02  7.615135801E+02  1.250000000E+02  0.00000E+00  9.000E+00
      25     1     1     2     0     0 -5.322709094E+02 -4.211481934E+02 -1.154917919E+03  1.345413885E+03  1.250000000E+02  0.00000E+00  9.000E+00
      21     1     1     2   502   512  1.503981844E+00 -2.004991676E+01 -2.507976074E+02  2.516022675E+02  4.672030912E-06  0.00000E+00  9.000E+00
#rwgt            1           1   3.1207079847717718E-002           5      325533           0
</event>
<event>
      5   9999  3.19816E-02  3.14086E+02 -1.00000E+00  1.04949E-01
      21    -1     0     0   502   511  0.000000000E+00  0.000000000E+00  2.526948783E+03  2.526948783E+03  0.000000000E+00  0.00000E+00  9.000E+00
      21    -1     0     0   501   502  0.000000000E+00  0.000000000E+00 -7.458432904E+02  7.458432904E+02  0.000000000E+00  0.00000E+00  9.000E+00
      25     1     1     2     0     0 -6.457947981E+01  4.476914287E+01 -2.761185400E+02  3.131153677E+02  1.250000000E+02  0.00000E+00  9.000E+00
      25     1     1     2     0     0  3.247423967E+02  1.311998118E+02 -3.626921151E+02  5.194627852E+02  1.250000000E+02  0.00000E+00  9.000E+00
      21     1     1     2   501   511 -2.601629168E+02 -1.759689547E+02  2.419916148E+03  2.440213921E+03  4.315837288E-05  0.00000E+00  9.000E+00
#rwgt            2          11   1.6965294840685870E-002           5      325794           0
</event>
<event>
      5   9999  3.19816E-02  2.31724E+02 -1.00000E+00  1.09369E-01
      21    -1     0     0   502   501  0.000000000E+00  0.000000000E+00  3.207103023E+02  3.207103023E+02  0.000000000E+00  0.00000E+00  9.000E+00
      21    -1     0     0   512   502  0.000000000E+00  0.000000000E+00 -2.366556973E+03  2.366556973E+03  0.000000000E+00  0.00000E+00  9.000E+00
      25     1     1     2     0     0  3.404265045E+02 -1.254225333E+02 -1.680555735E+02  4.189137054E+02  1.250000000E+02  0.00000E+00  9.000E+00
      25     1     1     2     0     0 -1.195743555E+02  1.955662434E+02  9.810560313E+01  2.789155633E+02  1.250000000E+02  0.00000E+00  9.000E+00
      21     1     1     2   512   501 -2.208521489E+02 -7.014371016E+01 -1.975896701E+03  1.989438007E+03  3.737624730E-05  0.00000E+00  9.000E+00
#rwgt            1           1   2.8741867152528754E-002           5      325844           0
</event>
<event>
      5   9999  3.19816E-02  7.47184E+01 -1.00000E+00  1.29802E-01
      21    -1     0     0   502   501  0.000000000E+00  0.000000000E+00  2.916657228E+02  2.916657228E+02  0.000000000E+00  0.00000E+00  9.000E+00
      21    -1     0     0   501   511  0.000000000E+00  0.000000000E+00 -2.169028817E+02  2.169028817E+02  0.000000000E+00  0.00000E+00  9.000E+00
      25     1     1     2     0     0 -1.017194941E+02 -3.920667221E+01  1.385874341E+02  2.161376773E+02  1.250000000E+02  0.00000E+00  9.000E+00
      25     1     1     2     0     0  1.300384118E+02  1.083506112E+02 -4.172723853E+01  2.145134166E+02  1.250000000E+02  0.00000E+00  9.000E+00
      21     1     1     2   502   511 -2.831891770E+01 -6.914393894E+01 -2.209735447E+01  7.791751065E+01  5.840038640E-07  0.00000E+00  9.000E+00
#rwgt            1           1   2.3977142478162707E-002           5      325882           0
</event>
<event>
      5   9999  3.19816E-02  1.53760E+02 -1.00000E+00  1.15969E-01
      21    -1     0     0   502   501  0.000000000E+00  0.000000000E+00  2.064298745E+02  2.064298745E+02  0.000000000E+00  0.00000E+00  9.000E+00
      21    -1     0     0   501   512  0.000000000E+00  0.000000000E+00 -7.443962325E+02  7.443962325E+02  0.000000000E+00  0.00000E+00  9.000E+00
      25     1     1     2     0     0 -1.667362411E+02  1.983983977E+01 -2.435399229E+02  3.211406038E+02  1.250000000E+02  0.00000E+00  9.000E+00
      25     1     1     2     0     0  4.745550750E+01 -1.168671707E+02  1.017861487E+02  2.046836116E+02  1.250000000E+02  0.00000E+00  9.000E+00
      21     1     1     2   502   512  1.192807336E+02  9.702733095E+01 -3.962125838E+02  4.250018916E+02  0.000000000E+00  0.00000E+00  9.000E+00
#rwgt            1           1   2.9325257441675610E-002           5      326017           0
</event>
<event>
      5   9999  3.19816E-02  6.81773E+01 -1.00000E+00  1.31804E-01
      21    -1     0     0   511   501  0.000000000E+00  0.000000000E+00  4.179018692E+02  4.179018692E+02  0.000000000E+00  0.00000E+00  9.000E+00
      21    -1     0     0   501   502  0.000000000E+00  0.000000000E+00 -1.673032814E+02  1.673032814E+02  0.000000000E+00  0.00000E+00  9.000E+00
      25     1     1     2     0     0  1.274909630E+02  3.145067043E+01 -4.022713353E+01  1.857049073E+02  1.250000000E+02  0.00000E+00  9.000E+00
      25     1     1     2     0     0 -9.274441212E+01  2.720781479E+01  7.837592146E+01  1.763790697E+02  1.250000000E+02  0.00000E+00  9.000E+00
      21     1     1     2   511   502 -3.474655085E+01 -5.865848522E+01  2.124497998E+02  2.231211737E+02  0.000000000E+00  0.00000E+00  9.000E+00
#rwgt            1           1   2.8653033576648827E-002           5      326063           0
</event>
<event>
      5   9999  3.19816E-02  7.32100E+01 -1.00000E+00  1.30242E-01
      21    -1     0     0   502   501  0.000000000E+00  0.000000000E+00  6.595428394E+02  6.595428394E+02  0.000000000E+00  0.00000E+00  9.000E+00
       2    -1     0     0   501     0  0.000000000E+00  0.000000000E+00 -2.666151422E+03  2.666151422E+03  0.000000000E+00  0.00000E+00  9.000E+00
      25     1     1     2     0     0  8.343495389E+02 -6.433795731E+02 -8.923056599E+01  1.064736363E+03  1.250000000E+02  0.00000E+00  9.000E+00
      25     1     1     2     0     0 -9.017708368E+02  6.148475508E+02 -1.638990217E+03  1.973104681E+03  1.250000000E+02  0.00000E+00  9.000E+00
       2     1     1     2   502     0  6.742129792E+01  2.853202232E+01 -2.783878004E+02  2.878532180E+02  3.814697266E-06  0.00000E+00  9.000E+00
#rwgt            1           1   6.8611167735823042E-002           5      326120           0
</event>
<event>
      5   9999  3.19816E-02  9.82841E+00 -1.00000E+00  1.96630E-01
      21    -1     0     0   502   501  0.000000000E+00  0.000000000E+00  1.039245835E+03  1.039245835E+03  0.000000000E+00  0.00000E+00  9.000E+00
      21    -1     0     0   511   502  0.000000000E+00  0.000000000E+00 -8.945556963E+01  8.945556963E+01  0.000000000E+00  0.00000E+00  9.000E+00
      25     1     1     2     0     0 -4.350636102E+01 -6.117888312E+00  9.628679872E+02  9.719413526E+02  1.250000000E+02  0.00000E+00  9.000E+00
      25     1     1     2     0     0  4.900703824E+01  1.426283682E+01  6.157540238E+00  1.351592898E+02  1.250000000E+02  0.00000E+00  9.000E+00
      21     1     1     2   511   501 -5.500677222E+00 -8.144948511E+00 -1.923526194E+01  2.160076244E+01  8.596304120E-07  0.00000E+00  9.000E+00
#rwgt            1           1   3.8900702730425812E-002           5      326291           0
</event>
<event>
      5   9999  3.19816E-02  1.31407E+02 -1.00000E+00  1.18718E-01
      21    -1     0     0   502   501  0.000000000E+00  0.000000000E+00  8.291233356E+01  8.291233356E+01  0.000000000E+00  0.00000E+00  9.000E+00
      21    -1     0     0   501   512  0.000000000E+00  0.000000000E+00 -7.767017036E+02  7.767017036E+02  0.000000000E+00  0.00000E+00  9.000E+00
      25     1     1     2     0     0  1.886722262E+01  3.564472210E+01 -1.644374227E+02  2.104547084E+02  1.250000000E+02  0.00000E+00  9.000E+00
      25     1     1     2     0     0 -9.664618417E+01 -1.415614545E+02 -1.882661526E+02  2.836358132E+02  1.250000000E+02  0.00000E+00  9.000E+00
      21     1     1     2   502   512  7.777896155E+01  1.059167324E+02 -3.410857947E+02  3.655235155E+02  3.814697266E-06  0.00000E+00  9.000E+00
#rwgt            2          11   4.7927417373618631E-003           5      326566           0
</event>
<event>
      5   9999  3.19816E-02  5.29745E+02 -1.00000E+00  9.81442E-02
      21    -1     0     0   502   501  0.000000000E+00  0.000000000E+00  3.769841457E+02  3.769841457E+02  0.000000000E+00  0.00000E+00  9.000E+00
      21    -1     0     0   501   511  0.000000000E+00  0.000000000E+00 -1.916822414E+03  1.916822414E+03  0.000000000E+00  0.00000E+00  9.000E+00
      25     1     1     2     0     0 -8.959226321E+01 -5.984325130E+02 -1.186723853E+02  6.291711860E+02  1.250000000E+02  0.00000E+00  9.000E+00
      25     1     1     2     0     0  1.615368916E+02  7.359551334E+01 -9.576615874E+01  2.372901685E+02  1.250000000E+02  0.00000E+00  9.000E+00
      21     1     1     2   502   511 -7.194462837E+01  5.248369997E+02 -1.325399724E+03  1.427345205E+03  1.525878906E-05  0.00000E+00  9.000E+00
#rwgt            1           1   3.3017398350910450E-002           5      326586           0
</event>
<event>
      5   9999  3.19816E-02  1.58284E+02 -1.00000E+00  1.15476E-01
       1    -1     0     0   502     0  0.000000000E+00  0.000000000E+00  1.475566751E+02  1.475566751E+02  0.000000000E+00  0.00000E+00  9.000E+00
      21    -1     0     0   501   502  0.000000000E+00  0.000000000E+00 -7.758470124E+02  7.758470124E+02  0.000000000E+00  0.00000E+00  9.000E+00
      25     1     1     2     0     0 -4.415061507E+01  1.906967362E+01 -5.752667290E+02  5.906519608E+02  1.250000000E+02  0.00000E+00  9.000E+00
      25     1     1     2     0     0 -8.693634864E+01  6.964340698E+01 -5.633428930E+00  1.675257245E+02  1.250000000E+02  0.00000E+00  9.000E+00
       1     1     1     2   501     0  1.310869637E+02 -8.871308060E+01 -4.739017938E+01  1.652260023E+02  4.317944116E-06  0.00000E+00  9.000E+00
#rwgt            2          17   8.0375205875880270E-005           5      326622           0
</event>
<event>
      5   9999  3.19816E-02  1.97680E+02 -1.00000E+00  1.11833E-01
      21    -1     0     0   502   501  0.000000000E+00  0.000000000E+00  5.562187747E+02  5.562187747E+02  0.000000000E+00  0.00000E+00  9.000E+00
      21    -1     0     0   501   511  0.000000000E+00  0.000000000E+00 -1.467940697E+03  1.467940697E+03  0.000000000E+00  0.00000E+00  9.000E+00
      25     1     1     2     0     0 -5.803972799E+01 -5.518594965E+01 -4.289789076E+02  4.539405272E+02  1.250000000E+02  0.00000E+00  9.000E+00
      25     1     1     2     0     0 -1.243907975E+02  1.313195288E+02  5.113739367E+02  5.566382957E+02  1.250000000E+02  0.00000E+00  9.000E+00
      21     1     1     2   502   511  1.824305254E+02 -7.613357913E+01 -9.941169511E+02  1.013580649E+03  1.078959322E-05  0.00000E+00  9.000E+00
#rwgt            1           1   2.8903446032683397E-002           5      326641           0
</event>
<event>
      5   9999  3.19816E-02  2.91664E+01 -1.00000E+00  1.53895E-01
      21    -1     0     0   502   512  0.000000000E+00  0.000000000E+00  2.262346495E+02  2.262346495E+02  0.000000000E+00  0.00000E+00  9.000E+00
      21    -1     0     0   501   502  0.000000000E+00  0.000000000E+00 -4.693848114E+02  4.693848114E+02  0.000000000E+00  0.00000E+00  9.000E+00
      25     1     1     2     0     0  1.647253986E+02  1.893419203E+02 -1.877477063E+02  3.374300238E+02  1.250000000E+02  0.00000E+00  9.000E+00
      25     1     1     2     0     0 -1.937401929E+02 -1.863716757E+02 -9.289941643E+01  3.106846720E+02  1.250000000E+02  0.00000E+00  9.000E+00
      21     1     1     2   501   512  2.901479429E+01 -2.970244611E+00  3.749696079E+01  4.750476512E+01  0.000000000E+00  0.00000E+00  9.000E+00
#rwgt            1           1   2.7336333489299095E-002           5      326703           0
</event>
<event>
      5   9999  3.19816E-02  3.59630E+01 -1.00000E+00  1.47765E-01
      21    -1     0     0   502   501  0.000000000E+00  0.000000000E+00  4.213346089E+01  4.213346089E+01  0.000000000E+00  0.00000E+00  9.000E+00
       1    -1     0     0   501     0  0.000000000E+00  0.000000000E+00 -1.693786645E+03  1.693786645E+03  0.000000000E+00  0.00000E+00  9.000E+00
      25     1     1     2     0     0  5.379603500E+01 -5.639275835E+01 -5.520713421E+02  5.713859670E+02  1.250000000E+02  0.00000E+00  9.000E+00
      25     1     1     2     0     0 -2.319402355E+01  7.528338521E+01 -1.376674559E+02  2.019477141E+02  1.250000000E+02  0.00000E+00  9.000E+00
       1     1     1     2   502     0 -3.060201146E+01 -1.889062686E+01 -9.619143856E+02  9.625864243E+02  0.000000000E+00  0.00000E+00  9.000E+00
#rwgt            1           1   3.4816484355593355E-002           5      326833           0
</event>
<event>
      5   9999  3.19816E-02  7.75901E+01 -1.00000E+00  1.28996E-01
      21    -1     0     0   511   501  0.000000000E+00  0.000000000E+00  1.684147967E+03  1.684147967E+03  0.000000000E+00  0.00000E+00  9.000E+00
      21    -1     0     0   501   502  0.000000000E+00  0.000000000E+00 -7.621412273E+02  7.621412273E+02  0.000000000E+00  0.00000E+00  9.000E+00
      25     1     1     2     0     0 -4.563835728E+02  6.743192746E+02 -3.202354540E+02  8.838371997E+02  1.250000000E+02  0.00000E+00  9.000E+00
      25     1     1     2     0     0  5.309264654E+02 -6.527882910E+02  1.208423874E+03  1.477812141E+03  1.250000000E+02  0.00000E+00  9.000E+00
      21     1     1     2   511   502 -7.454289264E+01 -2.153098355E+01  3.381832008E+01  8.463985390E+01  1.168007728E-06  0.00000E+00  9.000E+00
#rwgt            2          11   3.8199501553189713E-002           5      326937           0
</event>
<event>
      5   9999  3.19816E-02  2.44521E+01 -1.00000E+00  1.59475E-01
      21    -1     0     0   502   501  0.000000000E+00  0.000000000E+00  3.869171730E+01  3.869171730E+01  0.000000000E+00  0.00000E+00  9.000E+00
       1    -1     0     0   501     0  0.000000000E+00  0.000000000E+00 -1.171276704E+03  1.171276704E+03  0.000000000E+00  0.00000E+00  9.000E+00
      25     1     1     2     0     0  7.855245317E+01 -1.109583314E+01 -1.459803175E+02  2.079155081E+02  1.250000000E+02  0.00000E+00  9.000E+00
      25     1     1     2     0     0 -8.319823969E+01 -1.291087533E+01 -8.359851099E+02  8.494614422E+02  1.250000000E+02  0.00000E+00  9.000E+00
       1     1     1     2   502     0  4.645786521E+00  2.400670847E+01 -1.506195591E+02  1.525914709E+02  0.000000000E+00  0.00000E+00  9.000E+00
#rwgt            1           1   2.5190309022635457E-002           5      326972           0
</event>
<event>
      5   9999  3.19816E-02  1.11794E+02 -1.00000E+00  1.21689E-01
      21    -1     0     0   502   501  0.000000000E+00  0.000000000E+00  2.862561838E+02  2.862561838E+02  0.000000000E+00  0.00000E+00  9.000E+00
      21    -1     0     0   511   502  0.000000000E+00  0.000000000E+00 -4.704825314E+02  4.704825314E+02  0.000000000E+00  0.00000E+00  9.000E+00
      25     1     1     2     0     0 -1.558689561E+02  1.522871036E+02 -4.217626481E+01  2.547358057E+02  1.250000000E+02  0.00000E+00  9.000E+00
      25     1     1     2     0     0  7.577624651E+01 -2.302816027E+02  5.236342929E+01  2.777383388E+02  1.250000000E+02  0.00000E+00  9.000E+00
      21     1     1     2   511   501  8.009270956E+01  7.799449917E+01 -1.944135120E+02  2.242645707E+02  0.000000000E+00  0.00000E+00  9.000E+00
#rwgt            1           1   2.5828735336793144E-002           5      327113           0
</event>
<event>
      5   9999  3.19816E-02  1.00187E+02 -1.00000E+00  1.23791E-01
      21    -1     0     0   502   501  0.000000000E+00  0.000000000E+00  2.615971238E+02  2.615971238E+02  0.000000000E+00  0.00000E+00  9.000E+00
      -5    -1     0     0     0   502  0.000000000E+00  0.000000000E+00 -9.131114592E+02  9.131114592E+02  0.000000000E+00  0.00000E+00  9.000E+00
      25     1     1     2     0     0 -1.746165751E+02 -2.088496004E+01 -2.766934606E+02  3.508723429E+02  1.250000000E+02  0.00000E+00  9.000E+00
      25     1     1     2     0     0  1.029488965E+02  9.089383334E+01  1.808450919E+02  2.592105544E+02  1.250000000E+02  0.00000E+00  9.000E+00
      -5     1     1     2     0   501  7.166767859E+01 -7.000887330E+01 -5.556659666E+02  5.646256857E+02  7.629394531E-06  0.00000E+00  9.000E+00
#rwgt            2           6   1.4970282902493153E-005           5      327233           0
</event>
<event>
      5   9999  3.69743E-02  2.59620E+01 -1.00000E+00  1.57532E-01
      21    -1     0     0   502   501  0.000000000E+00  0.000000000E+00  2.288035062E+01  2.288035062E+01  0.000000000E+00  0.00000E+00  9.000E+00
       2    -1     0     0   501     0  0.000000000E+00  0.000000000E+00 -1.989075069E+03  1.989075069E+03  0.000000000E+00  0.00000E+00  9.000E+00
      25     1     1     2     0     0  1.358969251E+01  1.138772471E+02 -1.380780061E+03  1.391161847E+03  1.250000000E+02  0.00000E+00  9.000E+00
      25     1     1     2     0     0  1.235365071E+01 -1.128941314E+02 -4.092817230E+02  4.427575255E+02  1.250000000E+02  0.00000E+00  9.000E+00
       2     1     1     2   502     0 -2.594334322E+01 -9.831157325E-01 -1.761329344E+02  1.780360473E+02  1.907348633E-06  0.00000E+00  9.000E+00
#rwgt            1           1  0.11836181506698813                5      327312           0
</event>
<event>
      5   9999  3.19816E-02  1.65102E+02 -1.00000E+00  1.14766E-01
      21    -1     0     0   511   501  0.000000000E+00  0.000000000E+00  7.366351897E+01  7.366351897E+01  0.000000000E+00  0.00000E+00  9.000E+00
      21    -1     0     0   501   502  0.000000000E+00  0.000000000E+00 -3.335262503E+03  3.335262503E+03  0.000000000E+00  0.00000E+00  9.000E+00
      25     1     1     2     0     0  2.574801361E+01 -3.978135730E+02 -1.461563139E+03  1.520102104E+03  1.250000000E+02  0.00000E+00  9.000E+00
      25     1     1     2     0     0 -6.142590089E+00  2.338796103E+02 -1.631392429E+03  1.652816887E+03  1.250000000E+02  0.00000E+00  9.000E+00
      21     1     1     2   511   502 -1.960542352E+01  1.639339627E+02 -1.686434159E+02  2.360070306E+02  3.303624740E-06  0.00000E+00  9.000E+00
#rwgt            2          11   3.5494255982385613E-003           5      327497           0
</event>
<event>
      5   9999  3.19816E-02  6.13224E+01 -1.00000E+00  1.34199E-01
      21    -1     0     0   502   501  0.000000000E+00  0.000000000E+00  2.455728692E+02  2.455728692E+02  0.000000000E+00  0.00000E+00  9.000E+00
       1    -1     0     0   501     0  0.000000000E+00  0.000000000E+00 -5.165185743E+02  5.165185743E+02  0.000000000E+00  0.00000E+00  9.000E+00
      25     1     1     2     0     0  2.078365506E+02  1.665561361E+02 -4.505744386E+01  2.976443372E+02  1.250000000E+02  0.00000E+00  9.000E+00
      25     1     1     2     0     0 -2.422858681E+02 -1.158247181E+02 -8.095912158E+01  3.070784697E+02  1.250000000E+02  0.00000E+00  9.000E+00
       1     1     1     2   502     0  3.444931751E+01 -5.073141801E+01 -1.449291397E+02  1.573686366E+02  1.907348633E-06  0.00000E+00  9.000E+00
#rwgt            1           1   2.5502525450696895E-002           5      327517           0
</event>
<event>
      5   9999  3.19816E-02  3.95331E+01 -1.00000E+00  1.45157E-01
      21    -1     0     0   502   501  0.000000000E+00  0.000000000E+00  1.117442631E+02  1.117442631E+02  0.000000000E+00  0.00000E+00  9.000E+00
      21    -1     0     0   501   511  0.000000000E+00  0.000000000E+00 -1.360335295E+03  1.360335295E+03  0.000000000E+00  0.00000E+00  9.000E+00
      25     1     1     2     0     0  1.414481275E+02 -1.046285329E+02 -5.265001407E+01  2.221524851E+02  1.250000000E+02  0.00000E+00  9.000E+00
      25     1     1     2     0     0 -1.340824452E+02  1.434694113E+02 -4.858485408E+02  5.387349800E+02  1.250000000E+02  0.00000E+00  9.000E+00
      21     1     1     2   502   511 -7.365682210E+00 -3.884087844E+01 -7.100924768E+02  7.111920927E+02  0.000000000E+00  0.00000E+00  9.000E+00
#rwgt            1           1   2.8473641924812457E-002           5      327576           0
</event>
<event>
      5   9999  3.19816E-02  4.30913E+01 -1.00000E+00  1.42863E-01
      21    -1     0     0   502   501  0.000000000E+00  0.000000000E+00  7.849049465E+02  7.849049465E+02  0.000000000E+00  0.00000E+00  9.000E+00
      21    -1     0     0   512   502  0.000000000E+00  0.000000000E+00 -4.617797862E+02  4.617797862E+02  0.000000000E+00  0.00000E+00  9.000E+00
      25     1     1     2     0     0 -2.909433323E+02  4.015008134E+02  4.849132208E+02  7.047104068E+02  1.250000000E+02  0.00000E+00  9.000E+00
      25     1     1     2     0     0  2.580564259E+02 -3.736564491E+02 -1.305582403E+02  4.887562940E+02  1.250000000E+02  0.00000E+00  9.000E+00
      21     1     1     2   512   501  3.288690643E+01 -2.784436430E+01 -3.122982027E+01  5.321803183E+01  5.840038640E-07  0.00000E+00  9.000E+00
#rwgt            1           1   2.8571596604955937E-002           5      327670           0
</event>
<event>
      5   9999  3.19816E-02  6.38157E+01 -1.00000E+00  1.33288E-01
      21    -1     0     0   502   501  0.000000000E+00  0.000000000E+00  1.660281752E+02  1.660281752E+02  0.000000000E+00  0.00000E+00  9.000E+00
      21    -1     0     0   501   511  0.000000000E+00  0.000000000E+00 -3.519150772E+02  3.519150772E+02  0.000000000E+00  0.00000E+00  9.000E+00
      25     1     1     2     0     0 -3.124527230E+01 -1.267246057E+02 -1.137113654E+02  2.135197118E+02  1.250000000E+02  0.00000E+00  9.000E+00
      25     1     1     2     0     0  1.355903664E+01  1.880404661E+02 -3.061080258E+01  2.282653842E+02  1.250000000E+02  0.00000E+00  9.000E+00
      21     1     1     2   502   511  1.768623566E+01 -6.131586043E+01 -4.156473411E+01  7.615815645E+01  9.536743164E-07  0.00000E+00  9.000E+00
#rwgt            1           1   2.6111686474505805E-002           5      327804           0
</event>
<event>
      5   9999  3.19816E-02  2.55645E+01 -1.00000E+00  1.58028E-01
      21    -1     0     0   512   501  0.000000000E+00  0.000000000E+00  1.347489129E+02  1.347489129E+02  0.000000000E+00  0.00000E+00  9.000E+00
      21    -1     0     0   501   502  0.000000000E+00  0.000000000E+00 -4.893781767E+02  4.893781767E+02  0.000000000E+00  0.00000E+00  9.000E+00
      25     1     1     2     0     0 -9.735206167E+01 -1.551416593E+02 -3.780493885E+01  2.249457085E+02  1.250000000E+02  0.00000E+00  9.000E+00
      25     1     1     2     0     0  7.197885768E+01  1.582630417E+02 -2.999804319E+02  3.685666912E+02  1.250000000E+02  0.00000E+00  9.000E+00
      21     1     1     2   512   502  2.537320399E+01 -3.121382427E+00 -1.684389296E+01  3.061468992E+01  2.384185791E-07  0.00000E+00  9.000E+00
#rwgt            1           1   2.7958822049075696E-002           5      327893           0
</event>
<event>
      5   9999  3.19816E-02  6.57115E+01 -1.00000E+00  1.32626E-01
      21    -1     0     0   502   501  0.000000000E+00  0.000000000E+00  4.122584177E+02  4.122584177E+02  0.000000000E+00  0.00000E+00  9.000E+00
       1    -1     0     0   501     0  0.000000000E+00  0.000000000E+00 -1.078969145E+03  1.078969145E+03  0.000000000E+00  0.00000E+00  9.000E+00
      25     1     1     2     0     0 -2.388626284E+02 -3.950638731E+01 -1.759550583E+01  2.730397621E+02  1.250000000E+02  0.00000E+00  9.000E+00
      25     1     1     2     0     0  3.039977919E+02  3.082254136E+01  1.870506732E+02  3.794438574E+02  1.250000000E+02  0.00000E+00  9.000E+00
       1     1     1     2   502     0 -6.513516355E+01  8.683845951E+00 -8.361658944E+02  8.387439428E+02  1.078959322E-05  0.00000E+00  9.000E+00
#rwgt            1           1   2.6653834932742444E-002           5      328005           0
</event>
<event>
      5   9999  3.19816E-02  2.23424E+02 -1.00000E+00  1.09925E-01
       1    -1     0     0   502     0  0.000000000E+00  0.000000000E+00  6.906072622E+02  6.906072622E+02  0.000000000E+00  0.00000E+00  9.000E+00
      21    -1     0     0   501   502  0.000000000E+00  0.000000000E+00 -5.092517690E+02  5.092517690E+02  0.000000000E+00  0.00000E+00  9.000E+00
      25     1     1     2     0     0 -1.571054466E+02 -1.704899459E+01  1.528915587E+02  2.529300660E+02  1.250000000E+02  0.00000E+00  9.000E+00
      25     1     1     2     0     0  2.686859888E+02  2.106159608E+02 -3.517879365E+02  5.058962303E+02  1.250000000E+02  0.00000E+00  9.000E+00
       1     1     1     2   501     0 -1.115805422E+02 -1.935669663E+02  3.802518710E+02  4.410327349E+02  9.344061824E-06  0.00000E+00  9.000E+00
#rwgt            1           1   2.7659899703327034E-002           5      328064           0
</event>
<event>
      5   9999  3.19816E-02  2.06686E+01 -1.00000E+00  1.65199E-01
      21    -1     0     0   502   501  0.000000000E+00  0.000000000E+00  7.351971713E+02  7.351971713E+02  0.000000000E+00  0.00000E+00  9.000E+00
      -1    -1     0     0     0   502  0.000000000E+00  0.000000000E+00 -5.590299099E+02  5.590299099E+02  0.000000000E+00  0.00000E+00  9.000E+00
      25     1     1     2     0     0  2.550777087E+01 -8.999121443E+01  7.052372211E+02  7.223112924E+02  1.250000000E+02  0.00000E+00  9.000E+00
      25     1     1     2     0     0 -8.209072191E+00  7.867981642E+01 -2.387686685E+02  2.808796530E+02  1.250000000E+02  0.00000E+00  9.000E+00
      -1     1     1     2     0   501 -1.729869868E+01  1.131139800E+01 -2.903012912E+02  2.910361358E+02  3.814697266E-06  0.00000E+00  9.000E+00
#rwgt            1           1   2.9625482940559715E-002           5      328116           0
</event>
<event>
      5   9999  3.19816E-02  6.93961E+01 -1.00000E+00  1.31412E-01
      21    -1     0     0   502   501  0.000000000E+00  0.000000000E+00  6.169056004E+02  6.169056004E+02  0.000000000E+00  0.00000E+00  9.000E+00
      21    -1     0     0   511   502  0.000000000E+00  0.000000000E+00 -2.803474309E+02  2.803474309E+02  0.000000000E+00  0.00000E+00  9.000E+00
      25     1     1     2     0     0 -3.481788322E+01 -3.505990376E+02  6.942485023E+01  3.802325341E+02  1.250000000E+02  0.00000E+00  9.000E+00
      25     1     1     2     0     0 -3.394876194E+01  3.412736103E+02  2.580576108E+02  4.470334730E+02  1.250000000E+02  0.00000E+00  9.000E+00
      21     1     1     2   511   501  6.876664516E+01  9.325427348E+00  9.075708461E+00  6.998702427E+01  6.951036328E-07  0.00000E+00  9.000E+00
#rwgt            1           1   2.7032925490008953E-002           5      328278           0
</event>
<event>
      5   9999  3.19816E-02  4.05761E+01 -1.00000E+00  1.44456E-01
      21    -1     0     0   512   501  0.000000000E+00  0.000000000E+00  4.324697150E+02  4.324697150E+02  0.000000000E+00  0.00000E+00  9.000E+00
      21    -1     0     0   501   502  0.000000000E+00  0.000000000E+00 -2.411295085E+02  2.411295085E+02  0.000000000E+00  0.00000E+00  9.000E+00
      25     1     1     2     0     0 -1.778283247E+02  1.261096147E+02 -8.968315781E+01  2.668231939E+02  1.250000000E+02  0.00000E+00  9.000E+00
      25     1     1     2     0     0  1.950560595E+02 -8.937241803E+01  2.110335174E+02  3.258748854E+02  1.250000000E+02  0.00000E+00  9.000E+00
      21     1     1     2   512   502 -1.722773473E+01 -3.673719667E+01  6.998984696E+01  8.090114425E+01  1.651812370E-06  0.00000E+00  9.000E+00
#rwgt            1           1   2.7896332635539187E-002           5      328422           0
</event>
<event>
      5   9999  3.19816E-02  9.59957E+01 -1.00000E+00  1.24631E-01
       1    -1     0     0   502     0  0.000000000E+00  0.000000000E+00  4.187289185E+03  4.187289185E+03  0.000000000E+00  0.00000E+00  9.000E+00
      21    -1     0     0   501   502  0.000000000E+00  0.000000000E+00 -9.271717680E+02  9.271717680E+02  0.000000000E+00  0.00000E+00  9.000E+00
      25     1     1     2     0     0  4.259150079E+02  9.781678261E+02 -4.842346448E+02  1.178271650E+03  1.250000000E+02  0.00000E+00  9.000E+00
      25     1     1     2     0     0 -3.471046491E+02 -9.233581111E+02  2.535032617E+03  2.723065773E+03  1.250000000E+02  0.00000E+00  9.000E+00
       1     1     1     2   501     0 -7.881035877E+01 -5.480971503E+01  1.209319445E+03  1.213123529E+03  2.157918644E-05  0.00000E+00  9.000E+00
#rwgt            1           1   2.5142136350622946E-002           5      328534           0
</event>
<event>
      5   9999  3.19816E-02  4.44150E+01 -1.00000E+00  1.42075E-01
       1    -1     0     0   502     0  0.000000000E+00  0.000000000E+00  1.674138140E+03  1.674138140E+03  0.000000000E+00  0.00000E+00  9.000E+00
      21    -1     0     0   501   502  0.000000000E+00  0.000000000E+00 -6.030519736E+01  6.030519736E+01  0.000000000E+00  0.00000E+00  9.000E+00
      25     1     1     2     0     0 -8.231528428E+00  1.714034450E+02  2.283750561E+02  3.118125483E+02  1.250000000E+02  0.00000E+00  9.000E+00
      25     1     1     2     0     0  4.502563010E+01 -1.962808356E+02  7.719664892E+02  8.075337357E+02  1.250000000E+02  0.00000E+00  9.000E+00
       1     1     1     2   501     0 -3.679410167E+01  2.487739054E+01  6.134913973E+02  6.150970534E+02  0.000000000E+00  0.00000E+00  9.000E+00
#rwgt            1           1   3.1114502918470389E-002           5      328720           0
</event>
<event>
      5   9999  3.19816E-02  1.52802E+02 -1.00000E+00  1.16076E-01
      21    -1     0     0   502   501  0.000000000E+00  0.000000000E+00  1.534667708E+02  1.534667708E+02  0.000000000E+00  0.00000E+00  9.000E+00
      21    -1     0     0   501   511  0.000000000E+00  0.000000000E+00 -1.048330598E+03  1.048330598E+03  0.000000000E+00  0.00000E+00  9.000E+00
      25     1     1     2     0     0  2.245816644E+02 -1.237597205E+02 -8.701097735E+01  2.982436966E+02  1.250000000E+02  0.00000E+00  9.000E+00
      25     1     1     2     0     0 -1.342020755E+02  5.528729562E-01 -1.785306327E+02  2.559466537E+02  1.250000000E+02  0.00000E+00  9.000E+00
      21     1     1     2   502   511 -9.037958885E+01  1.232068475E+02 -6.293222175E+02  6.476070188E+02  0.000000000E+00  0.00000E+00  9.000E+00
#rwgt            1           1   3.0070373827153048E-002           5      328795           0
</event>
<event>
      5   9999  3.19816E-02  1.11425E+01 -1.00000E+00  1.90478E-01
      21    -1     0     0   512   501  0.000000000E+00  0.000000000E+00  7.128425241E+01  7.128425241E+01  0.000000000E+00  0.00000E+00  9.000E+00
      21    -1     0     0   501   502  0.000000000E+00  0.000000000E+00 -7.397288835E+02  7.397288835E+02  0.000000000E+00  0.00000E+00  9.000E+00
      25     1     1     2     0     0 -3.909341665E+01  1.287575558E+02 -1.389240623E+02  2.302861231E+02  1.250000000E+02  0.00000E+00  9.000E+00
      25     1     1     2     0     0  4.660949294E+01 -1.369832994E+02 -5.351202724E+02  5.682566102E+02  1.250000000E+02  0.00000E+00  9.000E+00
      21     1     1     2   512   502 -7.516076292E+00  8.225743637E+00  5.599703598E+00  1.247040262E+01  3.674277069E-07  0.00000E+00  9.000E+00
#rwgt            1           1   2.6554256079478485E-002           5      328857           0
</event>
<event>
      5   9999  3.19816E-02  5.08576E+01 -1.00000E+00  1.38655E-01
      21    -1     0     0   502   511  0.000000000E+00  0.000000000E+00  1.310528845E+03  1.310528845E+03  0.000000000E+00  0.00000E+00  9.000E+00
      21    -1     0     0   501   502  0.000000000E+00  0.000000000E+00 -5.133599963E+02  5.133599963E+02  0.000000000E+00  0.00000E+00  9.000E+00
      25     1     1     2     0     0 -3.404103466E+02  9.749180663E+01 -3.481492861E+02  5.120710711E+02  1.250000000E+02  0.00000E+00  9.000E+00
      25     1     1     2     0     0  3.907405524E+02 -9.018673629E+01  4.535334636E+02  6.181661826E+02  1.250000000E+02  0.00000E+00  9.000E+00
      21     1     1     2   501   511 -5.033020580E+01 -7.305070342E+00  6.917846715E+02  6.936515879E+02  1.078959322E-05  0.00000E+00  9.000E+00
#rwgt            1           1   3.1006644234242122E-002           5      329009           0
</event>
<event>
      5   9999  3.33679E-02  4.56823E+01 -1.00000E+00  1.41351E-01
      21    -1     0     0   502   501  0.000000000E+00  0.000000000E+00  2.380119422E+03  2.380119422E+03  0.000000000E+00  0.00000E+00  9.000E+00
      21    -1     0     0   501   512  0.000000000E+00  0.000000000E+00 -8.575653547E+01  8.575653547E+01  0.000000000E+00  0.00000E+00  9.000E+00
      25     1     1     2     0     0  9.488517756E+01 -3.642489455E+02  1.076953577E+03  1.147664802E+03  1.250000000E+02  0.00000E+00  9.000E+00
      25     1     1     2     0     0 -1.405225625E+02  3.662749359E+02  1.201087133E+03  1.269700446E+03  1.250000000E+02  0.00000E+00  9.000E+00
      21     1     1     2   502   512  4.563738499E+01 -2.025990316E+00  1.632217639E+01  4.851071003E+01  1.430511475E-06  0.00000E+00  9.000E+00
#rwgt            1           1   9.8009287185525165E-002           5      329124           0
</event>
<event>
      5   9999  3.19816E-02  3.28997E+01 -1.00000E+00  1.50308E-01
      21    -1     0     0   502   501  0.000000000E+00  0.000000000E+00  4.676755801E+01  4.676755801E+01  0.000000000E+00  0.00000E+00  9.000E+00
      21    -1     0     0   511   502  0.000000000E+00  0.000000000E+00 -2.576468661E+03  2.576468661E+03  0.000000000E+00  0.00000E+00  9.000E+00
      25     1     1     2     0     0 -1.056179175E+02 -7.986961046E+01 -1.859610336E+02  2.602706384E+02  1.250000000E+02  0.00000E+00  9.000E+00
      25     1     1     2     0     0  1.210113447E+02  1.089459420E+02 -1.112122392E+03  1.130908563E+03  1.250000000E+02  0.00000E+00  9.000E+00
      21     1     1     2   511   501 -1.539342719E+01 -2.907633156E+01 -1.231617677E+03  1.232057017E+03  2.642899792E-05  0.00000E+00  9.000E+00
#rwgt            1           1   2.3933823841385624E-002           5      329214           0
</event>
<event>
      5   9999  3.19816E-02  5.78173E+02 -1.00000E+00  9.70922E-02
      21    -1     0     0   502   501  0.000000000E+00  0.000000000E+00  1.123060643E+03  1.123060643E+03  0.000000000E+00  0.00000E+00  9.000E+00
       2    -1     0     0   501     0  0.000000000E+00  0.000000000E+00 -1.027141239E+03  1.027141239E+03  0.000000000E+00  0.00000E+00  9.000E+00
      25     1     1     2     0     0 -1.160284233E+02 -3.081160084E+02  5.758534054E+02  6.750038623E+02  1.250000000E+02  0.00000E+00  9.000E+00
      25     1     1     2     0     0  6.942005817E+02  3.089846224E+02 -8.441590511E+01  7.746850906E+02  1.250000000E+02  0.00000E+00  9.000E+00
       2     1     1     2   502     0 -5.781721585E+02 -8.686140432E-01 -3.955180957E+02  7.005129288E+02  5.394796609E-06  0.00000E+00  9.000E+00
#rwgt            2          13   6.9011766933300273E-004           5      329731           0
</event>
<event>
      5   9999  3.19816E-02  7.96799E+01 -1.00000E+00  1.28434E-01
      21    -1     0     0   502   511  0.000000000E+00  0.000000000E+00  5.836272938E+02  5.836272938E+02  0.000000000E+00  0.00000E+00  9.000E+00
      21    -1     0     0   501   502  0.000000000E+00  0.000000000E+00 -1.352802241E+03  1.352802241E+03  0.000000000E+00  0.00000E+00  9.000E+00
      25     1     1     2     0     0  7.421347177E+02  1.469637635E+02 -8.696245334E+02  1.159411107E+03  1.250000000E+02  0.00000E+00  9.000E+00
      25     1     1     2     0     0 -6.625077776E+02 -1.440580849E+02  7.557401967E+01  6.935457589E+02  1.250000000E+02  0.00000E+00  9.000E+00
      21     1     1     2   501   511 -7.962694010E+01 -2.905678585E+00  2.487556655E+01  8.347266839E+01  3.371747881E-07  0.00000E+00  9.000E+00
#rwgt            2          11   9.1867502505380959E-003           5      330020           0
</event>
<event>
      5   9999  3.19816E-02  6.99283E+01 -1.00000E+00  1.31243E-01
      21    -1     0     0   502   501  0.000000000E+00  0.000000000E+00  4.481084539E+02  4.481084539E+02  0.000000000E+00  0.00000E+00  9.000E+00
      21    -1     0     0   501   512  0.000000000E+00  0.000000000E+00 -6.094515700E+02  6.094515700E+02  0.000000000E+00  0.00000E+00  9.000E+00
      25     1     1     2     0     0 -1.341653348E+02 -3.841171339E+02 -1.682067584E+02  4.576732712E+02  1.250000000E+02  0.00000E+00  9.000E+00
      25     1     1     2     0     0  2.000268724E+02  4.076166526E+02  1.019538777E+02  4.818523408E+02  1.250000000E+02  0.00000E+00  9.000E+00
      21     1     1     2   502   512 -6.586153756E+01 -2.349951872E+01 -9.509023535E+01  1.180344118E+02  1.907348633E-06  0.00000E+00  9.000E+00
#rwgt            1           1   3.1126337411643491E-002           5      330040           0
</event>
<event>
      5   9999  3.19816E-02  7.46552E+00 -1.00000E+00  2.11676E-01
      21    -1     0     0   502   511  0.000000000E+00  0.000000000E+00  1.081907511E+02  1.081907511E+02  0.000000000E+00  0.00000E+00  9.000E+00
      21    -1     0     0   501   502  0.000000000E+00  0.000000000E+00 -2.351700740E+02  2.351700740E+02  0.000000000E+00  0.00000E+00  9.000E+00
      25     1     1     2     0     0  7.964204796E+01 -2.515106855E+01 -2.786483411E+01  1.528950000E+02  1.250000000E+02  0.00000E+00  9.000E+00
      25     1     1     2     0     0 -7.893258241E+01  1.771933197E+01 -1.039330467E+02  1.815803004E+02  1.250000000E+02  0.00000E+00  9.000E+00
      21     1     1     2   501   511 -7.094655570E-01  7.431736580E+00  4.818557844E+00  8.885524727E+00  1.576990671E-07  0.00000E+00  9.000E+00
#rwgt            1           1   4.7567526712520944E-002           5      330154           0
</event>
<event>
      5   9999  3.19816E-02  1.68218E+02 -1.00000E+00  1.14454E-01
      21    -1     0     0   512   501  0.000000000E+00  0.000000000E+00  1.767035561E+03  1.767035561E+03  0.000000000E+00  0.00000E+00  9.000E+00
      21    -1     0     0   501   502  0.000000000E+00  0.000000000E+00 -5.175741387E+02  5.175741387E+02  0.000000000E+00  0.00000E+00  9.000E+00
      25     1     1     2     0     0  6.680656367E+02 -4.475107766E+02  3.190797892E+02  8.740792310E+02  1.250000000E+02  0.00000E+00  9.000E+00
      25     1     1     2     0     0 -6.020384619E+02  6.022292974E+02  6.312656746E+02  1.067357385E+03  1.250000000E+02  0.00000E+00  9.000E+00
      21     1     1     2   512   502 -6.602717488E+01 -1.547185208E+02  2.991159588E+02  3.431730836E+02  5.394796609E-06  0.00000E+00  9.000E+00
#rwgt            1           1   2.2870297127632267E-002           5      330324           0
</event>
<event>
      5   9999  3.19816E-02  4.59430E+02 -1.00000E+00  9.99074E-02
      21    -1     0     0   502   501  0.000000000E+00  0.000000000E+00  1.732347420E+03  1.732347420E+03  0.000000000E+00  0.00000E+00  9.000E+00
      21    -1     0     0   511   502  0.000000000E+00  0.000000000E+00 -3.749285008E+03  3.749285008E+03  0.000000000E+00  0.00000E+00  9.000E+00
      25     1     1     2     0     0 -9.013481931E+02  3.444336735E+02 -7.322161885E+02  1.217714526E+03  1.250000000E+02  0.00000E+00  9.000E+00
      25     1     1     2     0     0  4.999391321E+02 -5.679207898E+02  1.369840550E+03  1.569892128E+03  1.250000000E+02  0.00000E+00  9.000E+00
      21     1     1     2   511   501  4.014090610E+02  2.234871164E+02 -2.654561950E+03  2.694025774E+03  0.000000000E+00  0.00000E+00  9.000E+00
#rwgt            1           1   5.9354034635297342E-002           5      330368           0
</event>
<event>
      5   9999  3.19816E-02  5.51181E+01 -1.00000E+00  1.36703E-01
      21    -1     0     0   512   501  0.000000000E+00  0.000000000E+00  3.499949949E+01  3.499949949E+01  0.000000000E+00  0.00000E+00  9.000E+00
      21    -1     0     0   501   502  0.000000000E+00  0.000000000E+00 -1.319641802E+03  1.319641802E+03  0.000000000E+00  0.00000E+00  9.000E+00
      25     1     1     2     0     0  5.974099175E+01  1.113430760E+01 -6.147175786E+02  6.302346074E+02  1.250000000E+02  0.00000E+00  9.000E+00
      25     1     1     2     0     0 -3.480398923E+01 -6.028867771E+01 -6.503707983E+02  6.659228316E+02  1.250000000E+02  0.00000E+00  9.000E+00
      21     1     1     2   512   502 -2.493700252E+01  4.915437010E+01 -1.955392591E+01  5.848386285E+01  1.066240300E-06  0.00000E+00  9.000E+00
#rwgt            1           1   1.6097141982350686E-002           5      330442           0
</event>
<event>
      5   9999  3.19816E-02  4.45270E+01 -1.00000E+00  1.42010E-01
       1    -1     0     0   502     0  0.000000000E+00  0.000000000E+00  2.248166262E+03  2.248166262E+03  0.000000000E+00  0.00000E+00  9.000E+00
      21    -1     0     0   501   502  0.000000000E+00  0.000000000E+00 -4.062316331E+01  4.062316331E+01  0.000000000E+00  0.00000E+00  9.000E+00
      25     1     1     2     0     0  5.419955893E+01  1.529054999E+02  5.121637098E+02  5.515925577E+02  1.250000000E+02  0.00000E+00  9.000E+00
      25     1     1     2     0     0 -1.349344193E+01 -1.709518086E+02  5.291137101E+02  5.700814960E+02  1.250000000E+02  0.00000E+00  9.000E+00
       1     1     1     2   501     0 -4.070611700E+01  1.804630869E+01  1.166265679E+03  1.167115371E+03  0.000000000E+00  0.00000E+00  9.000E+00
#rwgt            1           1   2.8480439760678131E-002           5      330480           0
</event>
<event>
      5   9999  3.19816E-02  1.09331E+02 -1.00000E+00  1.22110E-01
      21    -1     0     0   502   501  0.000000000E+00  0.000000000E+00  1.985708895E+02  1.985708895E+02  0.000000000E+00  0.00000E+00  9.000E+00
      21    -1     0     0   501   511  0.000000000E+00  0.000000000E+00 -2.458481465E+03  2.458481465E+03  0.000000000E+00  0.00000E+00  9.000E+00
      25     1     1     2     0     0 -5.313519937E+02  7.521755976E+01 -6.620847200E+02  8.613790101E+02  1.250000000E+02  0.00000E+00  9.000E+00
      25     1     1     2     0     0  6.357803754E+02 -4.284490187E+01 -1.031424831E+03  1.218816866E+03  1.250000000E+02  0.00000E+00  9.000E+00
      21     1     1     2   502   511 -1.044283816E+02 -3.237265789E+01 -5.664010248E+02  5.768564784E+02  1.078959322E-05  0.00000E+00  9.000E+00
#rwgt            1           1   3.5507163784224867E-002           5      330568           0
</event>
<event>
      5   9999  3.19816E-02  5.57983E+01 -1.00000E+00  1.36410E-01
      21    -1     0     0   512   501  0.000000000E+00  0.000000000E+00  3.406021632E+02  3.406021632E+02  0.000000000E+00  0.00000E+00  9.000E+00
      21    -1     0     0   501   502  0.000000000E+00  0.000000000E+00 -1.085336811E+03  1.085336811E+03  0.000000000E+00  0.00000E+00  9.000E+00
      25     1     1     2     0     0  3.630708049E+02 -8.923493966E+01  1.113248909E+02  4.096358324E+02  1.250000000E+02  0.00000E+00  9.000E+00
      25     1     1     2     0     0 -4.186275273E+02  8.404811406E+01 -8.509939274E+02  9.602753546E+02  1.250000000E+02  0.00000E+00  9.000E+00
      21     1     1     2   512   502  5.555672242E+01  5.186825602E+00 -5.065611547E+00  5.602778762E+01  8.637533633E-07  0.00000E+00  9.000E+00
#rwgt            1           1   3.1053535704271527E-002           5      330702           0
</event>
<event>
      5   9999  3.19816E-02  2.87816E+01 -1.00000E+00  1.54301E-01
      21    -1     0     0   511   501  0.000000000E+00  0.000000000E+00  1.209324183E+02  1.209324183E+02  0.000000000E+00  0.00000E+00  9.000E+00
      21    -1     0     0   501   502  0.000000000E+00  0.000000000E+00 -9.556408632E+02  9.556408632E+02  0.000000000E+00  0.00000E+00  9.000E+00
      25     1     1     2     0     0 -8.793654001E+01  1.599646219E+02 -7.479435197E+02  7.799782202E+02  1.250000000E+02  0.00000E+00  9.000E+00
      25     1     1     2     0     0  7.970040130E+01 -1.875426506E+02 -1.064878544E+02  2.617041515E+02  1.250000000E+02  0.00000E+00  9.000E+00
      21     1     1     2   511   502  8.236138703E+00  2.757802875E+01  1.972292916E+01  3.489090978E+01  3.371747881E-07  0.00000E+00  9.000E+00
#rwgt            1           1   2.7168397913607249E-002           5      330831           0
</event>
<event>
      5   9999  3.19816E-02  3.55430E+01 -1.00000E+00  1.48096E-01
      21    -1     0     0   502   512  0.000000000E+00  0.000000000E+00  2.147239659E+02  2.147239659E+02  0.000000000E+00  0.00000E+00  9.000E+00
      21    -1     0     0   501   502  0.000000000E+00  0.000000000E+00 -3.797024534E+02  3.797024534E+02  0.000000000E+00  0.00000E+00  9.000E+00
      25     1     1     2     0     0 -1.591554071E+02 -1.552933300E+02 -3.773229734E+01  2.578666094E+02  1.250000000E+02  0.00000E+00  9.000E+00
      25     1     1     2     0     0  1.542123282E+02  1.904909587E+02 -1.206228445E+02  3.004049236E+02  1.250000000E+02  0.00000E+00  9.000E+00
      21     1     1     2   501   512  4.943078940E+00 -3.519762871E+01 -6.623345629E+00  3.615488630E+01  1.018524616E-06  0.00000E+00  9.000E+00
#rwgt            1           1   2.8338717616335437E-002           5      330935           0
</event>
<event>
      5   9999  3.19816E-02  1.05532E+01 -1.00000E+00  1.93092E-01
      21    -1     0     0   502   511  0.000000000E+00  0.000000000E+00  2.553883608E+03  2.553883608E+03  0.000000000E+00  0.00000E+00  9.000E+00
      21    -1     0     0   501   502  0.000000000E+00  0.000000000E+00 -4.223303679E+01  4.223303679E+01  0.000000000E+00  0.00000E+00  9.000E+00
      25     1     1     2     0     0 -2.736952919E+02 -4.530783779E+01  7.792196759E+02  8.365226932E+02  1.250000000E+02  0.00000E+00  9.000E+00
      25     1     1     2     0     0  2.649733722E+02  5.124903170E+01  1.674770976E+03  1.700976241E+03  1.250000000E+02  0.00000E+00  9.000E+00
      21     1     1     2   501   511  8.721919740E+00 -5.941193910E+00  5.765991975E+01  5.861771076E+01  6.743495762E-07  0.00000E+00  9.000E+00
#rwgt            1           1   6.0251540488250731E-002           5      331087           0
</event>
<event>
      5   9999  3.19816E-02  4.19261E+01 -1.00000E+00  1.43585E-01
      21    -1     0     0   502   501  0.000000000E+00  0.000000000E+00  5.866039244E+02  5.866039244E+02  0.000000000E+00  0.00000E+00  9.000E+00
       1    -1     0     0   501     0  0.000000000E+00  0.000000000E+00 -7.690044062E+02  7.690044062E+02  0.000000000E+00  0.00000E+00  9.000E+00
      25     1     1     2     0     0 -2.394691434E+02 -2.210128612E+01  3.010902548E+02  4.051102060E+02  1.250000000E+02  0.00000E+00  9.000E+00
      25     1     1     2     0     0  2.521648758E+02 -1.785644422E+01  1.474038346E+02  3.182119854E+02  1.250000000E+02  0.00000E+00  9.000E+00
       1     1     1     2   502     0 -1.269573238E+01  3.995773034E+01 -6.308945712E+02  6.322861392E+02  1.078959322E-05  0.00000E+00  9.000E+00
#rwgt            2          12   1.0448697624758127E-003           5      331395           0
</event>
<event>
      5   9999  3.19816E-02  3.11339E+01 -1.00000E+00  1.51929E-01
      21    -1     0     0   502   511  0.000000000E+00  0.000000000E+00  5.294339168E+02  5.294339168E+02  0.000000000E+00  0.00000E+00  9.000E+00
      21    -1     0     0   501   502  0.000000000E+00  0.000000000E+00 -9.106003381E+02  9.106003381E+02  0.000000000E+00  0.00000E+00  9.000E+00
      25     1     1     2     0     0 -5.889751492E+02  3.428159799E+01 -1.617156160E+01  6.032855656E+02  1.250000000E+02  0.00000E+00  9.000E+00
      25     1     1     2     0     0  6.188580103E+02 -4.301858318E+01 -4.297154917E+02  7.649289113E+02  1.250000000E+02  0.00000E+00  9.000E+00
      21     1     1     2   501   511 -2.988286117E+01  8.736985184E+00  6.472063204E+01  7.181977801E+01  9.536743164E-07  0.00000E+00  9.000E+00
#rwgt            1           1   3.0653431738517832E-002           5      331414           0
</event>
<event>
      5   9999  3.19816E-02  6.44071E+01 -1.00000E+00  1.33079E-01
      21    -1     0     0   502   512  0.000000000E+00  0.000000000E+00  2.941059524E+02  2.941059524E+02  0.000000000E+00  0.00000E+00  9.000E+00
      21    -1     0     0   501   502  0.000000000E+00  0.000000000E+00 -6.376708237E+02  6.376708237E+02  0.000000000E+00  0.00000E+00  9.000E+00
      25     1     1     2     0     0  2.799271094E+02 -1.081443382E+02 -4.743277433E+02  5.750358185E+02  1.250000000E+02  0.00000E+00  9.000E+00
      25     1     1     2     0     0 -2.214124180E+02  8.123131441E+01  9.683137691E+01  2.839424252E+02  1.250000000E+02  0.00000E+00  9.000E+00
      21     1     1     2   501   512 -5.851469138E+01  2.691302382E+01  3.393149511E+01  7.279853240E+01  1.430511475E-06  0.00000E+00  9.000E+00
#rwgt            1           1   2.7958210928021626E-002           5      331558           0
</event>
<event>
      5   9999  3.19816E-02  2.85067E+01 -1.00000E+00  1.54596E-01
      21    -1     0     0   502   511  0.000000000E+00  0.000000000E+00  2.017691838E+02  2.017691838E+02  0.000000000E+00  0.00000E+00  9.000E+00
      21    -1     0     0   501   502  0.000000000E+00  0.000000000E+00 -7.852195240E+02  7.852195240E+02  0.000000000E+00  0.00000E+00  9.000E+00
      25     1     1     2     0     0  1.463527212E+02 -1.739871121E+02 -1.989797764E+02  3.269687838E+02  1.250000000E+02  0.00000E+00  9.000E+00
      25     1     1     2     0     0 -1.711282335E+02  1.880869107E+02 -4.816123944E+02  5.587817613E+02  1.250000000E+02  0.00000E+00  9.000E+00
      21     1     1     2   501   511  2.477551234E+01 -1.409979854E+01  9.714183061E+01  1.012381627E+02  1.907348633E-06  0.00000E+00  9.000E+00
#rwgt            1           1   2.7944296640829053E-002           5      331641           0
</event>
<event>
      5   9999  3.19816E-02  3.29128E+01 -1.00000E+00  1.50296E-01
      21    -1     0     0   502   501  0.000000000E+00  0.000000000E+00  1.776389441E+02  1.776389441E+02  0.000000000E+00  0.00000E+00  9.000E+00
      21    -1     0     0   501   512  0.000000000E+00  0.000000000E+00 -7.180082763E+02  7.180082763E+02  0.000000000E+00  0.00000E+00  9.000E+00
      25     1     1     2     0     0 -2.829278493E+02 -9.672517023E+01 -1.769294291E+02  3.692329202E+02  1.250000000E+02  0.00000E+00  9.000E+00
      25     1     1     2     0     0  3.133179016E+02  8.408793249E+01 -3.264225589E+02  4.768810908E+02  1.250000000E+02  0.00000E+00  9.000E+00
      21     1     1     2   502   512 -3.039005229E+01  1.263723773E+01 -3.701734424E+01  4.953320937E+01  8.259061849E-07  0.00000E+00  9.000E+00
#rwgt            1           1   3.3020872389717765E-002           5      331749           0
</event>
<event>
      5   9999  3.19816E-02  5.80368E+02 -1.00000E+00  9.70471E-02
       1    -1     0     0   502     0  0.000000000E+00  0.000000000E+00  3.985482448E+03  3.985482448E+03  0.000000000E+00  0.00000E+00  9.000E+00
      21    -1     0     0   501   502  0.000000000E+00  0.000000000E+00 -3.270188604E+02  3.270188604E+02  0.000000000E+00  0.00000E+00  9.000E+00
      25     1     1     2     0     0  4.040448469E+02  6.987586724E+02  1.005914509E+03  1.295764222E+03  1.250000000E+02  0.00000E+00  9.000E+00
      25     1     1     2     0     0  1.482228198E+02 -5.203569649E+02  2.231935358E+03  2.299978656E+03  1.250000000E+02  0.00000E+00  9.000E+00
       1     1     1     2   501     0 -5.522676667E+02 -1.784017075E+02  4.206137203E+02  7.167584298E+02  9.344061824E-06  0.00000E+00  9.000E+00
#rwgt            1           1   6.6513341321457212E-002           5      331852           0
</event>
<event>
      5   9999  3.19816E-02  1.54635E+02 -1.00000E+00  1.15872E-01
      21    -1     0     0   502   511  0.000000000E+00  0.000000000E+00  2.117090241E+02  2.117090241E+02  0.000000000E+00  0.00000E+00  9.000E+00
      21    -1     0     0   501   502  0.000000000E+00  0.000000000E+00 -6.392750619E+02  6.392750619E+02  0.000000000E+00  0.00000E+00  9.000E+00
      25     1     1     2     0     0 -2.287818462E+02 -9.942065480E+01 -7.758486142E+01  2.896031949E+02  1.250000000E+02  0.00000E+00  9.000E+00
      25     1     1     2     0     0  1.030607696E+02  9.385770807E+00 -3.713655851E+02  4.052739971E+02  1.250000000E+02  0.00000E+00  9.000E+00
      21     1     1     2   501   511  1.257210766E+02  9.003488399E+01  2.138440865E+01  1.561068941E+02  1.581489940E-06  0.00000E+00  9.000E+00
#rwgt            1           1   3.1075655766447618E-002           5      331887           0
</event>
<event>
      5   9999  3.19816E-02  8.43916E+01 -1.00000E+00  1.27236E-01
      21    -1     0     0   502   501  0.000000000E+00  0.000000000E+00  1.172558932E+03  1.172558932E+03  0.000000000E+00  0.00000E+00  9.000E+00
      21    -1     0     0   512   502  0.000000000E+00  0.000000000E+00 -2.100834216E+02  2.100834216E+02  0.000000000E+00  0.00000E+00  9.000E+00
      25     1     1     2     0     0  2.640602634E+02  6.311736388E+00  8.697656827E+02  9.175429164E+02  1.250000000E+02  0.00000E+00  9.000E+00
      25     1     1     2     0     0 -3.401207660E+02 -4.287318569E+01  4.367198870E+01  3.674948818E+02  1.250000000E+02  0.00000E+00  9.000E+00
      21     1     1     2   512   501  7.606050262E+01  3.656144930E+01  4.903783949E+01  9.760455592E+01  1.348699152E-06  0.00000E+00  9.000E+00
#rwgt            2          11   4.8103545484018580E-003           5      332180           0
</event>
<event>
      5   9999  3.19816E-02  4.43586E+01 -1.00000E+00  1.42108E-01
      21    -1     0     0   502   501  0.000000000E+00  0.000000000E+00  5.065554572E+02  5.065554572E+02  0.000000000E+00  0.00000E+00  9.000E+00
      21    -1     0     0   501   511  0.000000000E+00  0.000000000E+00 -1.072400361E+03  1.072400361E+03  0.000000000E+00  0.00000E+00  9.000E+00
      25     1     1     2     0     0  1.214729179E+02  5.581914624E+02 -6.726368045E+02  8.912904405E+02  1.250000000E+02  0.00000E+00  9.000E+00
      25     1     1     2     0     0 -1.552222729E+02 -5.869780282E+02  1.358976885E+02  6.346103855E+02  1.250000000E+02  0.00000E+00  9.000E+00
      21     1     1     2   502   511  3.374935503E+01  2.878656585E+01 -2.910578807E+01  5.305499258E+01  5.840038640E-07  0.00000E+00  9.000E+00
#rwgt            1           1   2.2383965868180814E-002           5      332200           0
</event>
<event>
      5   9999  3.19816E-02  6.90776E+01 -1.00000E+00  1.31513E-01
      21    -1     0     0   512   501  0.000000000E+00  0.000000000E+00  3.268330658E+03  3.268330658E+03  0.000000000E+00  0.00000E+00  9.000E+00
      21    -1     0     0   501   502  0.000000000E+00  0.000000000E+00 -1.332757532E+02  1.332757532E+02  0.000000000E+00  0.00000E+00  9.000E+00
      25     1     1     2     0     0 -3.015467115E+01  1.065034921E+02  9.185399938E+02  9.335914621E+02  1.250000000E+02  0.00000E+00  9.000E+00
      25     1     1     2     0     0 -2.159560785E+00 -1.675567981E+02 -3.796538970E+01  2.124766225E+02  1.250000000E+02  0.00000E+00  9.000E+00
      21     1     1     2   512   502  3.231423194E+01  6.105330604E+01  2.254480301E+03  2.255538326E+03  0.000000000E+00  0.00000E+00  9.000E+00
#rwgt            1           1   2.9949559855987684E-002           5      332358           0
</event>
<event>
      5   9999  3.19816E-02  6.94261E+01 -1.00000E+00  1.31402E-01
      21    -1     0     0   502   511  0.000000000E+00  0.000000000E+00  1.099758617E+02  1.099758617E+02  0.000000000E+00  0.00000E+00  9.000E+00
      21    -1     0     0   501   502  0.000000000E+00  0.000000000E+00 -1.109937129E+03  1.109937129E+03  0.000000000E+00  0.00000E+00  9.000E+00
      25     1     1     2     0     0  1.395114937E+02  2.152669835E+02 -3.010370732E+02  4.147910926E+02  1.250000000E+02  0.00000E+00  9.000E+00
      25     1     1     2     0     0 -7.012812421E+01 -2.128313200E+02 -6.886993597E+02  7.349468910E+02  1.250000000E+02  0.00000E+00  9.000E+00
      21     1     1     2   501   511 -6.938336952E+01 -2.435663447E+00 -1.022483479E+01  7.017500743E+01  9.078709013E-07  0.00000E+00  9.000E+00
#rwgt            1           1   3.6905244982204384E-002           5      332474           0
</event>
<event>
      5   9999  3.19816E-02  1.48394E+02 -1.00000E+00  1.16579E-01
       2    -1     0     0   502     0  0.000000000E+00  0.000000000E+00  3.185663629E+03  3.185663629E+03  0.000000000E+00  0.00000E+00  9.000E+00
      21    -1     0     0   501   502  0.000000000E+00  0.000000000E+00 -2.695844687E+02  2.695844687E+02  0.000000000E+00  0.00000E+00  9.000E+00
      25     1     1     2     0     0  2.718853129E+02 -5.023687140E+02  2.414692547E+03  2.484484060E+03  1.250000000E+02  0.00000E+00  9.000E+00
      25     1     1     2     0     0 -4.191642055E+02  5.205253881E+02  3.789386429E+02  7.783731791E+02  1.250000000E+02  0.00000E+00  9.000E+00
       2     1     1     2   501     0  1.472788927E+02 -1.815667411E+01  1.224479708E+02  1.923908589E+02  2.336015456E-06  0.00000E+00  9.000E+00
#rwgt            1           1   1.3302758602351635E-002           5      332531           0
</event>
<event>
      5   9999  3.19816E-02  1.27000E+02 -1.00000E+00  1.19332E-01
      21    -1     0     0   502   501  0.000000000E+00  0.000000000E+00  1.321472134E+03  1.321472134E+03  0.000000000E+00  0.00000E+00  9.000E+00
      21    -1     0     0   511   502  0.000000000E+00  0.000000000E+00 -1.588570768E+02  1.588570768E+02  0.000000000E+00  0.00000E+00  9.000E+00
      25     1     1     2     0     0  2.091754687E+02 -1.607689490E+01  9.704150258E+02  1.000671357E+03  1.250000000E+02  0.00000E+00  9.000E+00
      25     1     1     2     0     0 -2.427206161E+02  1.385662204E+02  1.716622113E+02  3.510082759E+02  1.250000000E+02  0.00000E+00  9.000E+00
      21     1     1     2   511   501  3.354514741E+01 -1.224893255E+02  2.053782016E+01  1.286495777E+02  2.654916936E-06  0.00000E+00  9.000E+00
#rwgt            1           1   2.7372170471248101E-002           5      332653           0
</event>
<event>
      5   9999  3.19816E-02  2.20049E+02 -1.00000E+00  1.10158E-01
      21    -1     0     0   512   501  0.000000000E+00  0.000000000E+00  2.201847046E+03  2.201847046E+03  0.000000000E+00  0.00000E+00  9.000E+00
      21    -1     0     0   501   502  0.000000000E+00  0.000000000E+00 -1.341100662E+02  1.341100662E+02  0.000000000E+00  0.00000E+00  9.000E+00
      25     1     1     2     0     0  1.105638215E+02  9.304923992E+01  1.238941556E+01  1.914706695E+02  1.250000000E+02  0.00000E+00  9.000E+00
      25     1     1     2     0     0 -2.862668158E+02 -2.255250365E+02  1.151731443E+03  1.214463070E+03  1.250000000E+02  0.00000E+00  9.000E+00
      21     1     1     2   512   502  1.757029943E+02  1.324757966E+02  9.036161210E+02  9.300233723E+02  0.000000000E+00  0.00000E+00  9.000E+00
#rwgt            1           1   1.8820816402151736E-002           5      332772           0
</event>
<event>
      5   9999  3.19816E-02  1.63638E+01 -1.00000E+00  1.73896E-01
      21    -1     0     0   502   511  0.000000000E+00  0.000000000E+00  2.469426553E+03  2.469426553E+03  0.000000000E+00  0.00000E+00  9.000E+00
      21    -1     0     0   501   502  0.000000000E+00  0.000000000E+00 -7.705396356E+01  7.705396356E+01  0.000000000E+00  0.00000E+00  9.000E+00
      25     1     1     2     0     0 -2.618579881E+02 -5.228185701E+01  3.237357004E+02  4.378730435E+02  1.250000000E+02  0.00000E+00  9.000E+00
      25     1     1     2     0     0  2.756136393E+02  4.341871722E+01  1.153656986E+03  1.193481254E+03  1.250000000E+02  0.00000E+00  9.000E+00
      21     1     1     2   501   511 -1.375565122E+01  8.863139791E+00  9.149799033E+02  9.151262189E+02  1.078959322E-05  0.00000E+00  9.000E+00
#rwgt            1           1   3.2331702265522580E-002           5      332827           0
</event>
<event>
      5   9999  3.19816E-02  2.48513E+01 -1.00000E+00  1.58945E-01
      21    -1     0     0   502   501  0.000000000E+00  0.000000000E+00  6.649671739E+02  6.649671739E+02  0.000000000E+00  0.00000E+00  9.000E+00
      21    -1     0     0   501   512  0.000000000E+00  0.000000000E+00 -4.573507668E+01  4.573507668E+01  0.000000000E+00  0.00000E+00  9.000E+00
      25     1     1     2     0     0  2.393400849E+01 -1.051745311E+02  3.326125981E+02  3.713363154E+02  1.250000000E+02  0.00000E+00  9.000E+00
      25     1     1     2     0     0 -3.676871808E+01  8.389406073E+01  2.619022910E+02  3.043155633E+02  1.250000000E+02  0.00000E+00  9.000E+00
      21     1     1     2   502   512  1.283470958E+01  2.128047033E+01  2.471720817E+01  3.505037186E+01  5.840038640E-07  0.00000E+00  9.000E+00
#rwgt            1           1   2.0986951609407421E-002           5      332960           0
</event>
<event>
      5   9999  3.19816E-02  2.66450E+01 -1.00000E+00  1.56705E-01
      21    -1     0     0   502   501  0.000000000E+00  0.000000000E+00  6.651236422E+02  6.651236422E+02  0.000000000E+00  0.00000E+00  9.000E+00
      21    -1     0     0   511   502  0.000000000E+00  0.000000000E+00 -3.291966955E+02  3.291966955E+02  0.000000000E+00  0.00000E+00  9.000E+00
      25     1     1     2     0     0 -1.252729952E+02  1.447128847E+02  1.959486243E+02  3.010913577E+02  1.250000000E+02  0.00000E+00  9.000E+00
      25     1     1     2     0     0  1.450949420E+02 -1.269071479E+02  3.841491302E+02  4.476086690E+02  1.250000000E+02  0.00000E+00  9.000E+00
      21     1     1     2   511   501 -1.982194679E+01 -1.780573682E+01 -2.441708078E+02  2.456203111E+02  0.000000000E+00  0.00000E+00  9.000E+00
#rwgt            1           1   2.6727838030691033E-002           5      333090           0
</event>
<event>
      5   9999  3.19816E-02  8.65430E+01 -1.00000E+00  1.26718E-01
      21    -1     0     0   502   501  0.000000000E+00  0.000000000E+00  1.570009721E+03  1.570009721E+03  0.000000000E+00  0.00000E+00  9.000E+00
      21    -1     0     0   501   512  0.000000000E+00  0.000000000E+00 -4.616908848E+02  4.616908848E+02  0.000000000E+00  0.00000E+00  9.000E+00
      25     1     1     2     0     0 -3.233981412E+02 -3.126048000E+02  1.275193487E+03  1.357958596E+03  1.250000000E+02  0.00000E+00  9.000E+00
      25     1     1     2     0     0  3.751328461E+02  3.819821078E+02 -1.940658250E+02  5.830278959E+02  1.250000000E+02  0.00000E+00  9.000E+00
      21     1     1     2   502   512 -5.173470489E+01 -6.937730778E+01  2.719117411E+01  9.071411397E+01  1.784161275E-06  0.00000E+00  9.000E+00
#rwgt            1           1   3.1205986703355136E-002           5      333178           0
</event>
<event>
      5   9999  3.19816E-02  9.52353E+01 -1.00000E+00  1.24789E-01
      21    -1     0     0   502   501  0.000000000E+00  0.000000000E+00  3.831723947E+02  3.831723947E+02  0.000000000E+00  0.00000E+00  9.000E+00
       3    -1     0     0   501     0  0.000000000E+00  0.000000000E+00 -1.751880504E+03  1.751880504E+03  0.000000000E+00  0.00000E+00  9.000E+00
      25     1     1     2     0     0  3.041133784E+00  2.927866984E+02 -1.916419648E+02  3.715978229E+02  1.250000000E+02  0.00000E+00  9.000E+00
      25     1     1     2     0     0  1.495294196E+01 -3.863065705E+02  1.499028523E+02  4.330729985E+02  1.250000000E+02  0.00000E+00  9.000E+00
       3     1     1     2   502     0 -1.799407574E+01  9.351987205E+01 -1.326968997E+03  1.330382078E+03  2.157918644E-05  0.00000E+00  9.000E+00
#rwgt            1           1   2.8468674303276313E-002           5      333287           0
</event>
<event>
      5   9999  3.19816E-02  2.58192E+01 -1.00000E+00  1.57709E-01
      21    -1     0     0   502   501  0.000000000E+00  0.000000000E+00  2.350480732E+02  2.350480732E+02  0.000000000E+00  0.00000E+00  9.000E+00
      -2    -1     0     0     0   502  0.000000000E+00  0.000000000E+00 -5.565429972E+02  5.565429972E+02  0.000000000E+00  0.00000E+00  9.000E+00
      25     1     1     2     0     0  2.725335467E+01 -1.085628887E+02 -8.593661657E+01  1.885172359E+02  1.250000000E+02  0.00000E+00  9.000E+00
      25     1     1     2     0     0 -3.673028648E+01  8.454578258E+01  1.504314690E+02  2.162214840E+02  1.250000000E+02  0.00000E+00  9.000E+00
      -2     1     1     2     0   501  9.476931812E+00  2.401710616E+01 -3.859897764E+02  3.868523505E+02  5.394796609E-06  0.00000E+00  9.000E+00
#rwgt            1           1   2.4028511625014581E-002           5      333365           0
</event>
<event>
      5   9999  3.19816E-02  9.47663E+00 -1.00000E+00  1.98495E-01
      21    -1     0     0   502   501  0.000000000E+00  0.000000000E+00  2.187844582E+03  2.187844582E+03  0.000000000E+00  0.00000E+00  9.000E+00
      21    -1     0     0   501   511  0.000000000E+00  0.000000000E+00 -2.163060550E+01  2.163060550E+01  0.000000000E+00  0.00000E+00  9.000E+00
      25     1     1     2     0     0  6.605088427E+01 -8.767622051E+01  4.713757478E+02  4.998699176E+02  1.250000000E+02  0.00000E+00  9.000E+00
      25     1     1     2     0     0 -6.724562285E+01  9.707723766E+01  1.690429049E+03  1.699153122E+03  1.250000000E+02  0.00000E+00  9.000E+00
      21     1     1     2   502   511  1.194738579E+00 -9.401017148E+00  4.409180045E+00  1.045214774E+01  8.429369702E-08  0.00000E+00  9.000E+00
#rwgt            1           1   6.4276264975052150E-002           5      333460           0
</event>
<event>
      5   9999  3.19816E-02  2.71609E+02 -1.00000E+00  1.07014E-01
      21    -1     0     0   512   501  0.000000000E+00  0.000000000E+00  4.389119790E+02  4.389119790E+02  0.000000000E+00  0.00000E+00  9.000E+00
      21    -1     0     0   501   502  0.000000000E+00  0.000000000E+00 -1.459746544E+03  1.459746544E+03  0.000000000E+00  0.00000E+00  9.000E+00
      25     1     1     2     0     0 -4.073269020E+02  2.513420306E+02 -8.725694613E+02  1.003040620E+03  1.250000000E+02  0.00000E+00  9.000E+00
      25     1     1     2     0     0  5.924848083E+02 -5.262600930E+01 -1.408064421E+02  6.239064025E+02  1.250000000E+02  0.00000E+00  9.000E+00
      21     1     1     2   512   502 -1.851579063E+02 -1.987160213E+02 -7.458661238E+00  2.717114996E+02  5.160536962E-06  0.00000E+00  9.000E+00
#rwgt            1           1   3.1563620021571627E-002           5      333745           0
</event>
<event>
      5   9999  3.19816E-02  1.38819E+02 -1.00000E+00  1.17743E-01
       2    -1     0     0   502     0  0.000000000E+00  0.000000000E+00  3.111928501E+03  3.111928501E+03  0.000000000E+00  0.00000E+00  9.000E+00
      21    -1     0     0   501   502  0.000000000E+00  0.000000000E+00 -1.546026049E+02  1.546026049E+02  0.000000000E+00  0.00000E+00  9.000E+00
      25     1     1     2     0     0  5.195836426E+01  1.893395554E+02  1.071349047E+03  1.096340695E+03  1.250000000E+02  0.00000E+00  9.000E+00
      25     1     1     2     0     0  8.635619066E+01 -1.775214698E+02 -4.184603048E+01  2.373759764E+02  1.250000000E+02  0.00000E+00  9.000E+00
       2     1     1     2   501     0 -1.383145549E+02 -1.181808566E+01  1.927822879E+03  1.932814434E+03  3.051757812E-05  0.00000E+00  9.000E+00
#rwgt            1           1   2.5123546795726322E-002           5      333783           0
</event>
<event>
      5   9999  3.19816E-02  3.51375E+01 -1.00000E+00  1.48420E-01
      21    -1     0     0   502   511  0.000000000E+00  0.000000000E+00  1.054406738E+02  1.054406738E+02  0.000000000E+00  0.00000E+00  9.000E+00
      21    -1     0     0   501   502  0.000000000E+00  0.000000000E+00 -5.412161351E+02  5.412161351E+02  0.000000000E+00  0.00000E+00  9.000E+00
      25     1     1     2     0     0 -3.405966097E+01  7.149672394E+01 -3.869150907E+02  4.142464598E+02  1.250000000E+02  0.00000E+00  9.000E+00
      25     1     1     2     0     0  1.360210016E+01 -1.000647710E+02 -8.518029393E+01  1.818753914E+02  1.250000000E+02  0.00000E+00  9.000E+00
      21     1     1     2   501   511  2.045756081E+01  2.856804711E+01  3.631992337E+01  5.053495764E+01  1.261592536E-06  0.00000E+00  9.000E+00
#rwgt            1           1   2.5859238205201095E-002           5      333830           0
</event>
<event>
      5   9999  3.19816E-02  5.01758E+01 -1.00000E+00  1.38989E-01
      21    -1     0     0   502   501  0.000000000E+00  0.000000000E+00  5.797444004E+02  5.797444004E+02  0.000000000E+00  0.00000E+00  9.000E+00
      21    -1     0     0   512   502  0.000000000E+00  0.000000000E+00 -4.298335902E+02  4.298335902E+02  0.000000000E+00  0.00000E+00  9.000E+00
      25     1     1     2     0     0  1.643629955E+02 -3.468005261E+02  3.427607999E+02  5.295240931E+02  1.250000000E+02  0.00000E+00  9.000E+00
      25     1     1     2     0     0 -1.882567789E+02  3.026791147E+02 -1.296573278E+02  3.993635987E+02  1.250000000E+02  0.00000E+00  9.000E+00
      21     1     1     2   512   501  2.389378342E+01  4.412141143E+01 -6.319266184E+01  8.069029894E+01  0.000000000E+00  0.00000E+00  9.000E+00
#rwgt            1           1   3.3493072108170749E-002           5      333983           0
</event>
<event>
      5   9999  3.19816E-02  1.98611E+01 -1.00000E+00  1.66619E-01
      21    -1     0     0   502   501  0.000000000E+00  0.000000000E+00  1.233453347E+02  1.233453347E+02  0.000000000E+00  0.00000E+00  9.000E+00
      21    -1     0     0   501   511  0.000000000E+00  0.000000000E+00 -1.202046836E+03  1.202046836E+03  0.000000000E+00  0.00000E+00  9.000E+00
      25     1     1     2     0     0 -2.094206922E+02 -1.701096292E+02 -2.925938682E+02  4.171696106E+02  1.250000000E+02  0.00000E+00  9.000E+00
      25     1     1     2     0     0  2.188507981E+02  1.875891926E+02 -3.448198364E+02  4.664880455E+02  1.250000000E+02  0.00000E+00  9.000E+00
      21     1     1     2   502   511 -9.430105889E+00 -1.747956340E+01 -4.412877970E+02  4.417345151E+02  7.629394531E-06  0.00000E+00  9.000E+00
#rwgt            1           1   2.6770660908532973E-002           5      334089           0
</event>
<event>
      5   9999  3.19816E-02  3.08934E+01 -1.00000E+00  1.52160E-01
      21    -1     0     0   502   501  0.000000000E+00  0.000000000E+00  2.728601062E+03  2.728601062E+03  0.000000000E+00  0.00000E+00  9.000E+00
      -5    -1     0     0     0   502  0.000000000E+00  0.000000000E+00 -3.270657984E+01  3.270657984E+01  0.000000000E+00  0.00000E+00  9.000E+00
      25     1     1     2     0     0  1.811339362E+02  1.744461522E+02  1.275532803E+03  1.306081887E+03  1.250000000E+02  0.00000E+00  9.000E+00
      25     1     1     2     0     0 -2.044708326E+02 -1.542029056E+02  1.308768158E+03  1.339434936E+03  1.250000000E+02  0.00000E+00  9.000E+00
      -5     1     1     2     0   501  2.333689638E+01 -2.024324661E+01  1.115935209E+02  1.157908186E+02  1.348699152E-06  0.00000E+00  9.000E+00
#rwgt            1           1   4.8746891139973589E-002           5      334271           0
</event>
<event>
      5   9999  3.19816E-02  6.94728E+01 -1.00000E+00  1.31387E-01
       2    -1     0     0   502     0  0.000000000E+00  0.000000000E+00  2.624712648E+03  2.624712648E+03  0.000000000E+00  0.00000E+00  9.000E+00
      21    -1     0     0   501   502  0.000000000E+00  0.000000000E+00 -1.096339752E+02  1.096339752E+02  0.000000000E+00  0.00000E+00  9.000E+00
      25     1     1     2     0     0  2.296511419E+02 -1.378458739E+02  1.608574097E+02  3.365133551E+02  1.250000000E+02  0.00000E+00  9.000E+00
      25     1     1     2     0     0 -1.763912904E+02  1.824537671E+02  9.337113673E+02  9.756255336E+02  1.250000000E+02  0.00000E+00  9.000E+00
       2     1     1     2   501     0 -5.325985152E+01 -4.460789320E+01  1.420509896E+03  1.422207735E+03  3.051757812E-05  0.00000E+00  9.000E+00
#rwgt            1           1   3.1440981354395048E-002           5      334476           0
</event>
<event>
      5   9999  3.19816E-02  9.33409E+01 -1.00000E+00  1.25189E-01
      21    -1     0     0   502   501  0.000000000E+00  0.000000000E+00  3.374144883E+02  3.374144883E+02  0.000000000E+00  0.00000E+00  9.000E+00
      21    -1     0     0   501   511  0.000000000E+00  0.000000000E+00 -1.312465560E+03  1.312465560E+03  0.000000000E+00  0.00000E+00  9.000E+00
      25     1     1     2     0     0 -7.598234346E+01  1.280476694E+02 -4.911233997E+02  5.282013971E+02  1.250000000E+02  0.00000E+00  9.000E+00
      25     1     1     2     0     0  1.236550900E+01 -1.963515789E+02  2.730259959E+02  3.589917029E+02  1.250000000E+02  0.00000E+00  9.000E+00
      21     1     1     2   502   511  6.361683447E+01  6.830390959E+01 -7.569536683E+02  7.626869486E+02  1.078959322E-05  0.00000E+00  9.000E+00
#rwgt            1           1   3.1313193733172567E-002           5      334580           0
</event>
<event>
      5   9999  4.13757E-02  2.36329E+02 -1.00000E+00  1.09071E-01
       1    -1     0     0   502     0  0.000000000E+00  0.000000000E+00  2.987784465E+03  2.987784465E+03  0.000000000E+00  0.00000E+00  9.000E+00
      21    -1     0     0   501   502  0.000000000E+00  0.000000000E+00 -2.237053978E+03  2.237053978E+03  0.000000000E+00  0.00000E+00  9.000E+00
      25     1     1     2     0     0 -1.178832637E+02 -1.310015294E+02 -1.140823036E+03  1.161102952E+03  1.250000000E+02  0.00000E+00  9.000E+00
      25     1     1     2     0     0  2.466062442E+02 -6.719494594E+01 -1.062656334E+03  1.100087853E+03  1.250000000E+02  0.00000E+00  9.000E+00
       1     1     1     2   501     0 -1.287229806E+02  1.981964753E+02  2.954209856E+03  2.963647638E+03  0.000000000E+00  0.00000E+00  9.000E+00
#rwgt            2          17  0.10519194108477956                5      334696           0
</event>
<event>
      5   9999  3.19816E-02  1.07095E+02 -1.00000E+00  1.22504E-01
       2    -1     0     0   502     0  0.000000000E+00  0.000000000E+00  2.427332911E+03  2.427332911E+03  0.000000000E+00  0.00000E+00  9.000E+00
      21    -1     0     0   501   502  0.000000000E+00  0.000000000E+00 -1.128350119E+03  1.128350119E+03  0.000000000E+00  0.00000E+00  9.000E+00
      25     1     1     2     0     0 -3.483805114E+02  8.677236855E+02  9.959376501E+01  9.486080820E+02  1.250000000E+02  0.00000E+00  9.000E+00
      25     1     1     2     0     0  2.555464678E+02 -8.143268600E+02 -4.371501139E+02  9.670353945E+02  1.250000000E+02  0.00000E+00  9.000E+00
       2     1     1     2   501     0  9.283404354E+01 -5.339682550E+01  1.636539141E+03  1.640039554E+03  2.157918644E-05  0.00000E+00  9.000E+00
#rwgt            1           1   2.6083438249129197E-002           5      334715           0
</event>
<event>
      5   9999  3.19816E-02  5.11140E+01 -1.00000E+00  1.38532E-01
      21    -1     0     0   511   501  0.000000000E+00  0.000000000E+00  4.322898782E+02  4.322898782E+02  0.000000000E+00  0.00000E+00  9.000E+00
      21    -1     0     0   501   502  0.000000000E+00  0.000000000E+00 -5.807517153E+02  5.807517153E+02  0.000000000E+00  0.00000E+00  9.000E+00
      25     1     1     2     0     0 -2.122232060E+02  2.813670359E+02 -5.149136263E+01  3.774684867E+02  1.250000000E+02  0.00000E+00  9.000E+00
      25     1     1     2     0     0  1.711378790E+02 -2.509591467E+02 -2.885989473E+02  4.372448048E+02  1.250000000E+02  0.00000E+00  9.000E+00
      21     1     1     2   511   502  4.108532698E+01 -3.040788921E+01  1.916284728E+02  1.983283021E+02  0.000000000E+00  0.00000E+00  9.000E+00
#rwgt            1           1   2.8621492984732037E-002           5      334806           0
</event>
<event>
      5   9999  3.19816E-02  4.66387E+01 -1.00000E+00  1.40822E-01
       2    -1     0     0   502     0  0.000000000E+00  0.000000000E+00  1.679783857E+03  1.679783857E+03  0.000000000E+00  0.00000E+00  9.000E+00
      21    -1     0     0   501   502  0.000000000E+00  0.000000000E+00 -6.307809301E+02  6.307809301E+02  0.000000000E+00  0.00000E+00  9.000E+00
      25     1     1     2     0     0  4.067183629E+02  4.168042459E+02  3.903091446E+02  7.121178515E+02  1.250000000E+02  0.00000E+00  9.000E+00
      25     1     1     2     0     0 -4.188254631E+02 -4.618440933E+02 -2.538772598E+02  6.846848896E+02  1.250000000E+02  0.00000E+00  9.000E+00
       2     1     1     2   501     0  1.210710017E+01  4.503984739E+01  9.125710416E+02  9.137620455E+02  1.868812365E-05  0.00000E+00  9.000E+00
#rwgt            1           1   3.1488618475366853E-002           5      334927           0
</event>
<event>
      5   9999  3.19816E-02  5.07783E+01 -1.00000E+00  1.38694E-01
      21    -1     0     0   511   501  0.000000000E+00  0.000000000E+00  8.694969545E+02  8.694969545E+02  0.000000000E+00  0.00000E+00  9.000E+00
      21    -1     0     0   501   502  0.000000000E+00  0.000000000E+00 -1.184916514E+02  1.184916514E+02  0.000000000E+00  0.00000E+00  9.000E+00
      25     1     1     2     0     0  7.507039593E+01  1.630958980E+02  4.619392405E+02  5.111249340E+02  1.250000000E+02  0.00000E+00  9.000E+00
      25     1     1     2     0     0 -8.416275923E+01 -1.131382921E+02  5.218158652E+00  1.885096081E+02  1.250000000E+02  0.00000E+00  9.000E+00
      21     1     1     2   511   502  9.092363301E+00 -4.995760593E+01  2.838479040E+02  2.883540637E+02  0.000000000E+00  0.00000E+00  9.000E+00
#rwgt            1           1   2.9383288590765243E-002           5      335089           0
</event>
<event>
      5   9999  3.19816E-02  4.75967E+01 -1.00000E+00  1.40307E-01
      21    -1     0     0   512   501  0.000000000E+00  0.000000000E+00  2.195132961E+02  2.195132961E+02  0.000000000E+00  0.00000E+00  9.000E+00
      21    -1     0     0   501   502  0.000000000E+00  0.000000000E+00 -4.429152578E+02  4.429152578E+02  0.000000000E+00  0.00000E+00  9.000E+00
      25     1     1     2     0     0 -5.899593232E+01  6.677391141E-01 -3.692630633E+02  3.942856525E+02  1.250000000E+02  0.00000E+00  9.000E+00
      25     1     1     2     0     0  8.717996515E+01 -3.902280035E+01  5.697411743E+01  1.673145999E+02  1.250000000E+02  0.00000E+00  9.000E+00
      21     1     1     2   512   502 -2.818403283E+01  3.835506124E+01  8.888698414E+01  1.008283015E+02  2.336015456E-06  0.00000E+00  9.000E+00
#rwgt            1           1   2.7893308193773846E-002           5      335219           0
</event>
<event>
      5   9999  3.19816E-02  1.26439E+02 -1.00000E+00  1.19413E-01
      21    -1     0     0   502   501  0.000000000E+00  0.000000000E+00  4.769391177E+02  4.769391177E+02  0.000000000E+00  0.00000E+00  9.000E+00
      21    -1     0     0   511   502  0.000000000E+00  0.000000000E+00 -2.250096961E+02  2.250096961E+02  0.000000000E+00  0.00000E+00  9.000E+00
      25     1     1     2     0     0  8.141049662E+01 -3.414386136E+01 -2.356834865E+01  1.548352004E+02  1.250000000E+02  0.00000E+00  9.000E+00
      25     1     1     2     0     0 -1.854326610E+02  1.060196149E+02  3.274176932E+02  4.104299896E+02  1.250000000E+02  0.00000E+00  9.000E+00
      21     1     1     2   511   501  1.040221643E+02 -7.187575352E+01 -5.191992296E+01  1.366836238E+02  2.523185073E-06  0.00000E+00  9.000E+00
#rwgt            1           1   2.9919363820836264E-002           5      335325           0
</event>
<event>
      5   9999  3.19816E-02  5.42055E+01 -1.00000E+00  1.37103E-01
      21    -1     0     0   512   501  0.000000000E+00  0.000000000E+00  8.051322784E+02  8.051322784E+02  0.000000000E+00  0.00000E+00  9.000E+00
      21    -1     0     0   501   502  0.000000000E+00  0.000000000E+00 -1.370094575E+02  1.370094575E+02  0.000000000E+00  0.00000E+00  9.000E+00
      25     1     1     2     0     0  1.128561534E+01 -2.865660824E+02  1.860389598E+02  3.639821139E+02  1.250000000E+02  0.00000E+00  9.000E+00
      25     1     1     2     0     0 -1.671144254E+01  2.326328499E+02  4.097874244E+02  4.877991886E+02  1.250000000E+02  0.00000E+00  9.000E+00
      21     1     1     2   512   502  5.425827201E+00  5.393323241E+01  7.229643673E+01  9.036043340E+01  9.536743164E-07  0.00000E+00  9.000E+00
#rwgt            1           1   2.1635607007140713E-002           5      335365           0
</event>
<event>
      5   9999  3.19816E-02  5.08766E+00 -1.00000E+00  2.37205E-01
      21    -1     0     0   511   501  0.000000000E+00  0.000000000E+00  5.913545162E+02  5.913545162E+02  0.000000000E+00  0.00000E+00  9.000E+00
      21    -1     0     0   501   502  0.000000000E+00  0.000000000E+00 -5.542619459E+02  5.542619459E+02  0.000000000E+00  0.00000E+00  9.000E+00
      25     1     1     2     0     0 -7.449394559E+01 -1.424554388E+02 -5.148522490E+02  5.536612125E+02  1.250000000E+02  0.00000E+00  9.000E+00
      25     1     1     2     0     0  7.939933314E+01  1.438050537E+02  5.477743891E+02  5.853767410E+02  1.250000000E+02  0.00000E+00  9.000E+00
      21     1     1     2   511   502 -4.905387552E+00 -1.349614932E+00  4.170430188E+00  6.578508604E+00  1.192092896E-07  0.00000E+00  9.000E+00
#rwgt            2          11   9.6376647620233203E-004           5      335464           0
</event>
<event>
      5   9999  3.19816E-02  4.71190E+01 -1.00000E+00  1.40562E-01
      21    -1     0     0   512   501  0.000000000E+00  0.000000000E+00  1.860066178E+03  1.860066178E+03  0.000000000E+00  0.00000E+00  9.000E+00
      21    -1     0     0   501   502  0.000000000E+00  0.000000000E+00 -7.555767826E+02  7.555767826E+02  0.000000000E+00  0.00000E+00  9.000E+00
      25     1     1     2     0     0 -2.634624195E+02  1.580318255E+02 -6.190540460E+02  7.023100571E+02  1.250000000E+02  0.00000E+00  9.000E+00
      25     1     1     2     0     0  3.104695055E+02 -1.612776237E+02  2.705878924E+02  4.596135260E+02  1.250000000E+02  0.00000E+00  9.000E+00
      21     1     1     2   512   502 -4.700708605E+01  3.245798185E+00  1.452955549E+03  1.453719378E+03  0.000000000E+00  0.00000E+00  9.000E+00
#rwgt            1           1   3.4514255386671543E-002           5      335499           0
</event>
<event>
      5   9999  3.19816E-02  1.85221E+02 -1.00000E+00  1.12875E-01
      21    -1     0     0   511   501  0.000000000E+00  0.000000000E+00  7.815834473E+02  7.815834473E+02  0.000000000E+00  0.00000E+00  9.000E+00
      21    -1     0     0   501   502  0.000000000E+00  0.000000000E+00 -5.282204957E+02  5.282204957E+02  0.000000000E+00  0.00000E+00  9.000E+00
      25     1     1     2     0     0  7.364888374E+01 -3.470634317E+02  4.260964580E+02  5.683840033E+02  1.250000000E+02  0.00000E+00  9.000E+00
      25     1     1     2     0     0 -2.570819818E+02  3.727379123E+02 -2.597599812E+02  5.367727121E+02  1.250000000E+02  0.00000E+00  9.000E+00
      21     1     1     2   511   502  1.834330980E+02 -2.567448064E+01  8.702647478E+01  2.046472275E+02  4.156969970E-06  0.00000E+00  9.000E+00
#rwgt            1           1   3.0647134145310798E-002           5      335598           0
</event>
<event>
      5   9999  3.19816E-02  6.19766E+01 -1.00000E+00  1.33955E-01
      21    -1     0     0   502   512  0.000000000E+00  0.000000000E+00  2.876715520E+02  2.876715520E+02  0.000000000E+00  0.00000E+00  9.000E+00
      21    -1     0     0   501   502  0.000000000E+00  0.000000000E+00 -7.646785143E+02  7.646785143E+02  0.000000000E+00  0.00000E+00  9.000E+00
      25     1     1     2     0     0 -4.289145287E+01 -2.159716927E+01  6.410058862E+01  1.484587482E+02  1.250000000E+02  0.00000E+00  9.000E+00
      25     1     1     2     0     0 -1.301108191E+01  4.835535254E+01 -7.106921073E+02  7.233365743E+02  1.250000000E+02  0.00000E+00  9.000E+00
      21     1     1     2   501   512  5.590253477E+01 -2.675818327E+01  1.695845563E+02  1.805547438E+02  3.303624740E-06  0.00000E+00  9.000E+00
#rwgt            1           1   2.8238740101357757E-002           5      335669           0
</event>
<event>
      5   9999  3.19816E-02  8.86833E+01 -1.00000E+00  1.26220E-01
      21    -1     0     0   511   501  0.000000000E+00  0.000000000E+00  8.518916575E+02  8.518916575E+02  0.000000000E+00  0.00000E+00  9.000E+00
      21    -1     0     0   501   502  0.000000000E+00  0.000000000E+00 -4.196810877E+02  4.196810877E+02  0.000000000E+00  0.00000E+00  9.000E+00
      25     1     1     2     0     0  2.404222230E+02  3.132437358E+00 -2.594761643E+02  3.751873363E+02  1.250000000E+02  0.00000E+00  9.000E+00
      25     1     1     2     0     0 -1.666034870E+02 -5.228041344E+01  1.647534786E+01  2.153750232E+02  1.250000000E+02  0.00000E+00  9.000E+00
      21     1     1     2   511   502 -7.381873596E+01  4.914797608E+01  6.752113862E+02  6.810103857E+02  1.078959322E-05  0.00000E+00  9.000E+00
#rwgt            1           1   2.9211939581072308E-002           5      335760           0
</event>
<event>
      5   9999  3.19816E-02  2.65636E+01 -1.00000E+00  1.56802E-01
      21    -1     0     0   502   501  0.000000000E+00  0.000000000E+00  8.012093986E+01  8.012093986E+01  0.000000000E+00  0.00000E+00  9.000E+00
      21    -1     0     0   512   502  0.000000000E+00  0.000000000E+00 -5.096154882E+02  5.096154882E+02  0.000000000E+00  0.00000E+00  9.000E+00
      25     1     1     2     0     0 -7.608452277E+01 -1.937456946E+01 -2.562376323E+01  1.498192437E+02  1.250000000E+02  0.00000E+00  9.000E+00
      25     1     1     2     0     0  7.857755286E+01 -7.071810270E+00 -3.447823653E+02  3.751324056E+02  1.250000000E+02  0.00000E+00  9.000E+00
      21     1     1     2   512   501 -2.493030086E+00  2.644637973E+01 -5.908841989E+01  6.478477881E+01  0.000000000E+00  0.00000E+00  9.000E+00
#rwgt            1           1   2.6347509915144503E-002           5      335832           0
</event>
<event>
      5   9999  3.19816E-02  2.48187E+01 -1.00000E+00  1.58988E-01
      21    -1     0     0   502   501  0.000000000E+00  0.000000000E+00  2.989995726E+02  2.989995726E+02  0.000000000E+00  0.00000E+00  9.000E+00
      21    -1     0     0   511   502  0.000000000E+00  0.000000000E+00 -9.872376601E+02  9.872376601E+02  0.000000000E+00  0.00000E+00  9.000E+00
      25     1     1     2     0     0 -3.754060522E+02 -3.322368422E+02 -4.791995733E+02  7.046759925E+02  1.250000000E+02  0.00000E+00  9.000E+00
      25     1     1     2     0     0  3.535145003E+02  3.439299095E+02 -1.722298215E+02  5.371670095E+02  1.250000000E+02  0.00000E+00  9.000E+00
      21     1     1     2   511   501  2.189155185E+01 -1.169306730E+01 -3.680869264E+01  4.439423070E+01  0.000000000E+00  0.00000E+00  9.000E+00
#rwgt            1           1   2.9294806873980273E-002           5      335946           0
</event>
<event>
      5   9999  3.19816E-02  5.96026E+01 -1.00000E+00  1.34858E-01
      21    -1     0     0   502   501  0.000000000E+00  0.000000000E+00  2.875992609E+02  2.875992609E+02  0.000000000E+00  0.00000E+00  9.000E+00
      21    -1     0     0   512   502  0.000000000E+00  0.000000000E+00 -4.233119264E+02  4.233119264E+02  0.000000000E+00  0.00000E+00  9.000E+00
      25     1     1     2     0     0 -2.093833614E+02  6.215665029E+01  1.418796402E+02  2.888938794E+02  1.250000000E+02  0.00000E+00  9.000E+00
      25     1     1     2     0     0  1.685048419E+02 -1.055319744E+02 -1.433688048E+02  2.751553990E+02  1.250000000E+02  0.00000E+00  9.000E+00
      21     1     1     2   512   501  4.087851951E+01  4.337532416E+01 -1.342235009E+02  1.468619090E+02  2.697398305E-06  0.00000E+00  9.000E+00
#rwgt            1           1   2.7562282264372871E-002           5      336270           0
</event>
<event>
      5   9999  3.19816E-02  2.03222E+02 -1.00000E+00  1.11396E-01
      21    -1     0     0   511   501  0.000000000E+00  0.000000000E+00  1.386413581E+02  1.386413581E+02  0.000000000E+00  0.00000E+00  9.000E+00
      21    -1     0     0   501   502  0.000000000E+00  0.000000000E+00 -1.087145581E+03  1.087145581E+03  0.000000000E+00  0.00000E+00  9.000E+00
      25     1     1     2     0     0  1.079813247E+02 -7.372978636E+01 -1.744693973E+02  2.513177639E+02  1.250000000E+02  0.00000E+00  9.000E+00
      25     1     1     2     0     0  5.122802854E+01  2.000298865E+02 -7.267959402E+02  7.658287048E+02  1.250000000E+02  0.00000E+00  9.000E+00
      21     1     1     2   511   502 -1.592093532E+02 -1.263001001E+02 -4.723888511E+01  2.086404700E+02  3.015782986E-06  0.00000E+00  9.000E+00
#rwgt            1           1   2.5319891678421313E-002           5      336338           0
</event>
<event>
      5   9999  3.19816E-02  3.00684E+01 -1.00000E+00  1.52971E-01
      21    -1     0     0   502   501  0.000000000E+00  0.000000000E+00  1.802965104E+02  1.802965104E+02  0.000000000E+00  0.00000E+00  9.000E+00
      21    -1     0     0   512   502  0.000000000E+00  0.000000000E+00 -5.707976494E+02  5.707976494E+02  0.000000000E+00  0.00000E+00  9.000E+00
      25     1     1     2     0     0  1.023609807E+02  1.734302593E+02 -3.136615424E+02  3.931467772E+02  1.250000000E+02  0.00000E+00  9.000E+00
      25     1     1     2     0     0 -8.832350128E+01 -2.000207905E+02  2.373174571E+01  2.529773770E+02  1.250000000E+02  0.00000E+00  9.000E+00
      21     1     1     2   512   501 -1.403747943E+01  2.659053126E+01 -1.005713424E+02  1.049700056E+02  2.336015456E-06  0.00000E+00  9.000E+00
#rwgt            1           1   3.1924846618888766E-002           5      336407           0
</event>
<event>
      5   9999  3.19816E-02  3.33772E+02 -1.00000E+00  1.04108E-01
       3    -1     0     0   502     0  0.000000000E+00  0.000000000E+00  5.223197744E+02  5.223197744E+02  0.000000000E+00  0.00000E+00  9.000E+00
      21    -1     0     0   501   502  0.000000000E+00  0.000000000E+00 -1.719677927E+03  1.719677927E+03  0.000000000E+00  0.00000E+00  9.000E+00
      25     1     1     2     0     0 -8.592463543E+02  2.258930951E+02 -5.981292291E+02  1.078292893E+03  1.250000000E+02  0.00000E+00  9.000E+00
      25     1     1     2     0     0  5.453708549E+02 -3.394091156E+02 -4.703973843E+02  8.059321412E+02  1.250000000E+02  0.00000E+00  9.000E+00
       3     1     1     2   501     0  3.138754994E+02  1.135160205E+02 -1.288315393E+02  3.577726675E+02  3.303624740E-06  0.00000E+00  9.000E+00
#rwgt            2          19   3.0104093013909565E-005           5      336735           0
</event>
<event>
      5   9999  3.19816E-02  9.77627E+01 -1.00000E+00  1.24272E-01
      21    -1     0     0   502   501  0.000000000E+00  0.000000000E+00  2.642443245E+02  2.642443245E+02  0.000000000E+00  0.00000E+00  9.000E+00
      21    -1     0     0   501   511  0.000000000E+00  0.000000000E+00 -2.086517088E+03  2.086517088E+03  0.000000000E+00  0.00000E+00  9.000E+00
      25     1     1     2     0     0 -6.603682920E+01 -3.403247120E+02 -1.751413652E+03  1.789764384E+03  1.250000000E+02  0.00000E+00  9.000E+00
      25     1     1     2     0     0 -2.367587291E+01  3.791727506E+02  5.273870249E+01  4.034090883E+02  1.250000000E+02  0.00000E+00  9.000E+00
      21     1     1     2   502   511  8.971270212E+01 -3.884803868E+01 -1.235978141E+02  1.575879395E+02  3.015782986E-06  0.00000E+00  9.000E+00
#rwgt            1           1   3.1589246521272055E-002           5      336754           0
</event>
<event>
      5   9999  3.19816E-02  2.17028E+01 -1.00000E+00  1.63493E-01
      21    -1     0     0   502   501  0.000000000E+00  0.000000000E+00  2.611808398E+02  2.611808398E+02  0.000000000E+00  0.00000E+00  9.000E+00
      21    -1     0     0   501   512  0.000000000E+00  0.000000000E+00 -2.342425449E+02  2.342425449E+02  0.000000000E+00  0.00000E+00  9.000E+00
      25     1     1     2     0     0 -1.105082275E+02 -1.056317432E+02 -8.546871800E+01  2.151744299E+02  1.250000000E+02  0.00000E+00  9.000E+00
      25     1     1     2     0     0  9.918352453E+01  8.711793553E+01  1.507615499E+02  2.361799127E+02  1.250000000E+02  0.00000E+00  9.000E+00
      21     1     1     2   502   512  1.132470301E+01  1.851380768E+01 -3.835453699E+01  4.406904220E+01  9.536743164E-07  0.00000E+00  9.000E+00
#rwgt            1           1   2.6166707329678414E-002           5      336846           0
</event>
<event>
      5   9999  3.26099E-02  1.32040E+02 -1.00000E+00  1.18632E-01
      21    -1     0     0   502   511  0.000000000E+00  0.000000000E+00  6.020082738E+02  6.020082738E+02  0.000000000E+00  0.00000E+00  9.000E+00
      21    -1     0     0   501   502  0.000000000E+00  0.000000000E+00 -5.519563909E+02  5.519563909E+02  0.000000000E+00  0.00000E+00  9.000E+00
      25     1     1     2     0     0 -2.748882537E+01  9.234511349E+01 -2.105609580E+02  2.631428747E+02  1.250000000E+02  0.00000E+00  9.000E+00
      25     1     1     2     0     0  3.160417182E+01 -2.243206549E+02 -2.521807976E+02  3.613014455E+02  1.250000000E+02  0.00000E+00  9.000E+00
      21     1     1     2   501   511 -4.115346447E+00  1.319755414E+02  5.127936384E+02  5.295203445E+02  7.629394531E-06  0.00000E+00  9.000E+00
#rwgt            1           1   3.0420811601493049E-002           5      336993           0
</event>
<event>
      5   9999  3.19816E-02  4.13642E+01 -1.00000E+00  1.43943E-01
      21    -1     0     0   502   512  0.000000000E+00  0.000000000E+00  1.442097729E+02  1.442097729E+02  0.000000000E+00  0.00000E+00  9.000E+00
      21    -1     0     0   501   502  0.000000000E+00  0.000000000E+00 -2.535758596E+03  2.535758596E+03  0.000000000E+00  0.00000E+00  9.000E+00
      25     1     1     2     0     0 -1.103657077E+02  1.374285996E+02 -2.698705436E+02  3.457200019E+02  1.250000000E+02  0.00000E+00  9.000E+00
      25     1     1     2     0     0  1.488423319E+02 -1.526123413E+02 -2.216794960E+03  2.230526723E+03  1.250000000E+02  0.00000E+00  9.000E+00
      21     1     1     2   501   512 -3.847662424E+01  1.518374163E+01  9.511668031E+01  1.037216443E+02  0.000000000E+00  0.00000E+00  9.000E+00
#rwgt            1           1   5.6540487952257135E-002           5      337054           0
</event>
<event>
      5   9999  3.19816E-02  5.80982E+01 -1.00000E+00  1.35455E-01
      21    -1     0     0   502   501  0.000000000E+00  0.000000000E+00  2.842267723E+02  2.842267723E+02  0.000000000E+00  0.00000E+00  9.000E+00
      21    -1     0     0   501   511  0.000000000E+00  0.000000000E+00 -1.630718071E+03  1.630718071E+03  0.000000000E+00  0.00000E+00  9.000E+00
      25     1     1     2     0     0 -7.987775609E+01  2.377071902E+02 -1.451577328E+03  1.478373059E+03  1.250000000E+02  0.00000E+00  9.000E+00
      25     1     1     2     0     0  2.264116402E+01 -2.277387304E+02  1.977002656E+02  3.272429475E+02  1.250000000E+02  0.00000E+00  9.000E+00
      21     1     1     2   502   511  5.723659207E+01 -9.968459819E+00 -9.261423641E+01  1.093288363E+02  1.348699152E-06  0.00000E+00  9.000E+00
#rwgt            1           1   2.8612794689307164E-002           5      337167           0
</event>
<event>
      5   9999  3.19816E-02  4.56673E+00 -1.00000E+00  2.50609E-01
      21    -1     0     0   512   501  0.000000000E+00  0.000000000E+00  3.965429834E+01  3.965429834E+01  0.000000000E+00  0.00000E+00  9.000E+00
      21    -1     0     0   501   502  0.000000000E+00  0.000000000E+00 -2.828405189E+03  2.828405189E+03  0.000000000E+00  0.00000E+00  9.000E+00
      25     1     1     2     0     0 -1.832720435E+02 -9.146420522E+00 -3.874416914E+02  4.465516355E+02  1.250000000E+02  0.00000E+00  9.000E+00
      25     1     1     2     0     0  1.874228355E+02  7.242231395E+00 -2.405059553E+03  2.415598523E+03  1.250000000E+02  0.00000E+00  9.000E+00
      21     1     1     2   512   502 -4.150792049E+00  1.904189128E+00  3.750354126E+00  5.909328806E+00  2.665600750E-07  0.00000E+00  9.000E+00
#rwgt            1           1   3.9956592832857289E-002           5      337316           0
</event>
<event>
      5   9999  3.19816E-02  6.26006E+01 -1.00000E+00  1.33726E-01
      21    -1     0     0   502   501  0.000000000E+00  0.000000000E+00  7.868870357E+01  7.868870357E+01  0.000000000E+00  0.00000E+00  9.000E+00
      21    -1     0     0   501   511  0.000000000E+00  0.000000000E+00 -1.245663563E+03  1.245663563E+03  0.000000000E+00  0.00000E+00  9.000E+00
      25     1     1     2     0     0  8.435979067E+01  2.181353035E+02 -2.633153457E+02  3.737105246E+02  1.250000000E+02  0.00000E+00  9.000E+00
      25     1     1     2     0     0 -2.971374923E+01 -1.875959956E+02 -6.260662132E+02  6.660773737E+02  1.250000000E+02  0.00000E+00  9.000E+00
      21     1     1     2   502   511 -5.464604144E+01 -3.053930793E+01 -2.775933001E+02  2.845643678E+02  3.814697266E-06  0.00000E+00  9.000E+00
#rwgt            1           1   3.2171819324733876E-002           5      337809           0
</event>
<event>
      5   9999  3.19816E-02  3.33695E+01 -1.00000E+00  1.49897E-01
      -3    -1     0     0     0   501  0.000000000E+00  0.000000000E+00  1.020056856E+02  1.020056856E+02  0.000000000E+00  0.00000E+00  9.000E+00
      21    -1     0     0   501   502  0.000000000E+00  0.000000000E+00 -4.821124067E+02  4.821124067E+02  0.000000000E+00  0.00000E+00  9.000E+00
      25     1     1     2     0     0 -4.004136069E+01  7.842399296E+01 -2.135568902E+02  2.626502971E+02  1.250000000E+02  0.00000E+00  9.000E+00
      25     1     1     2     0     0  1.248645557E+01 -9.724548353E+01 -2.121026698E+02  2.650002607E+02  1.250000000E+02  0.00000E+00  9.000E+00
      -3     1     1     2     0   502  2.755490512E+01  1.882149057E+01  4.555283894E+01  5.646753438E+01  9.536743164E-07  0.00000E+00  9.000E+00
#rwgt            1           1   7.1883903044781414E-002           5      337913           0
</event>
<event>
      5   9999  3.19816E-02  3.93712E+02 -1.00000E+00  1.01893E-01
      21    -1     0     0   502   501  0.000000000E+00  0.000000000E+00  2.798255776E+02  2.798255776E+02  0.000000000E+00  0.00000E+00  9.000E+00
      -1    -1     0     0     0   502  0.000000000E+00  0.000000000E+00 -1.104424316E+03  1.104424316E+03  0.000000000E+00  0.00000E+00  9.000E+00
      25     1     1     2     0     0  2.757699521E+02  1.596258921E+02 -6.762610089E+02  7.579468610E+02  1.250000000E+02  0.00000E+00  9.000E+00
      25     1     1     2     0     0  1.160324686E+02 -1.208939431E+02 -1.106961136E+01  2.093475950E+02  1.250000000E+02  0.00000E+00  9.000E+00
      -1     1     1     2     0   501 -3.918024207E+02 -3.873194905E+01 -1.372681181E+02  4.169554376E+02  6.607249480E-06  0.00000E+00  9.000E+00
#rwgt            2          10   5.6482874255116860E-005           5      338230           0
</event>
<event>
      5   9999  3.19816E-02  7.16586E+01 -1.00000E+00  1.30708E-01
      21    -1     0     0   502   501  0.000000000E+00  0.000000000E+00  1.917652173E+02  1.917652173E+02  0.000000000E+00  0.00000E+00  9.000E+00
      21    -1     0     0   501   511  0.000000000E+00  0.000000000E+00 -4.660951898E+02  4.660951898E+02  0.000000000E+00  0.00000E+00  9.000E+00
      25     1     1     2     0     0 -5.446975537E+01 -1.496751680E+02 -1.104424998E+02  2.306342471E+02  1.250000000E+02  0.00000E+00  9.000E+00
      25     1     1     2     0     0 -8.242593212E+00  1.150035383E+02  6.903225938E+01  1.835325775E+02  1.250000000E+02  0.00000E+00  9.000E+00
      21     1     1     2   502   511  6.271234858E+01  3.467162971E+01 -2.329197321E+02  2.436935825E+02  3.814697266E-06  0.00000E+00  9.000E+00
#rwgt            1           1   2.6805597517657119E-002           5      338249           0
</event>
<event>
      5   9999  3.19816E-02  2.73406E+02 -1.00000E+00  1.06919E-01
      21    -1     0     0   502   501  0.000000000E+00  0.000000000E+00  2.121168605E+03  2.121168605E+03  0.000000000E+00  0.00000E+00  9.000E+00
      21    -1     0     0   512   502  0.000000000E+00  0.000000000E+00 -7.998473103E+01  7.998473103E+01  0.000000000E+00  0.00000E+00  9.000E+00
      25     1     1     2     0     0 -9.552494924E+00 -7.705023644E+01  6.768695711E+02  6.926798722E+02  1.250000000E+02  0.00000E+00  9.000E+00
      25     1     1     2     0     0  2.820511660E+02  9.930861081E+01  1.011303827E+03  1.061967745E+03  1.250000000E+02  0.00000E+00  9.000E+00
      21     1     1     2   512   501 -2.724986711E+02 -2.225837438E+01  3.530104756E+02  4.465057187E+02  6.607249480E-06  0.00000E+00  9.000E+00
#rwgt            2          11   3.4290553104702830E-003           5      338369           0
</event>
<event>
      5   9999  3.19816E-02  3.48508E+02 -1.00000E+00  1.03519E-01
      21    -1     0     0   502   501  0.000000000E+00  0.000000000E+00  2.402617116E+03  2.402617116E+03  0.000000000E+00  0.00000E+00  9.000E+00
      21    -1     0     0   501   511  0.000000000E+00  0.000000000E+00 -2.171297712E+02  2.171297712E+02  0.000000000E+00  0.00000E+00  9.000E+00
      25     1     1     2     0     0 -3.016347883E+02  2.916514153E+01  2.211652627E+02  3.954405448E+02  1.250000000E+02  0.00000E+00  9.000E+00
      25     1     1     2     0     0  7.939716951E+01 -2.976200646E+02  1.814940486E+03  1.845132944E+03  1.250000000E+02  0.00000E+00  9.000E+00
      21     1     1     2   502   511  2.222376188E+02  2.684549231E+02  1.493815965E+02  3.791733988E+02  2.697398305E-06  0.00000E+00  9.000E+00
#rwgt            2          11   3.6762463963015408E-003           5      338434           0
</event>
<event>
      5   9999  3.19816E-02  3.84159E+01 -1.00000E+00  1.45937E-01
      21    -1     0     0   512   501  0.000000000E+00  0.000000000E+00  7.939966875E+02  7.939966875E+02  0.000000000E+00  0.00000E+00  9.000E+00
      21    -1     0     0   501   502  0.000000000E+00  0.000000000E+00 -2.674109388E+02  2.674109388E+02  0.000000000E+00  0.00000E+00  9.000E+00
      25     1     1     2     0     0 -3.918706307E+02  1.566866835E+02  1.339114321E+02  4.600767106E+02  1.250000000E+02  0.00000E+00  9.000E+00
      25     1     1     2     0     0  3.786552841E+02 -1.206153855E+02  3.662985186E+02  5.547319174E+02  1.250000000E+02  0.00000E+00  9.000E+00
      21     1     1     2   512   502  1.321534662E+01 -3.607129803E+01  2.637579800E+01  4.659899835E+01  1.011524364E-06  0.00000E+00  9.000E+00
#rwgt            1           1   3.0943211900049828E-002           5      338454           0
</event>
<event>
      5   9999  3.19816E-02  1.34396E+02 -1.00000E+00  1.18316E-01
      21    -1     0     0   502   511  0.000000000E+00  0.000000000E+00  6.578480524E+02  6.578480524E+02  0.000000000E+00  0.00000E+00  9.000E+00
      21    -1     0     0   501   502  0.000000000E+00  0.000000000E+00 -8.699977284E+02  8.699977284E+02  0.000000000E+00  0.00000E+00  9.000E+00
      25     1     1     2     0     0 -1.838096263E+02  2.752602094E+02 -4.234381741E+02  5.517962023E+02  1.250000000E+02  0.00000E+00  9.000E+00
      25     1     1     2     0     0  3.045040273E+02 -3.343807480E+02 -2.243958994E+02  5.201073994E+02  1.250000000E+02  0.00000E+00  9.000E+00
      21     1     1     2   501   511 -1.206944009E+02  5.912053854E+01  4.356843974E+02  4.559421791E+02  5.394796609E-06  0.00000E+00  9.000E+00
#rwgt            1           1   3.4874684661354891E-002           5      338659           0
</event>
<event>
      5   9999  3.19816E-02  1.76729E+02 -1.00000E+00  1.13639E-01
       3    -1     0     0   502     0  0.000000000E+00  0.000000000E+00  4.550799355E+02  4.550799355E+02  0.000000000E+00  0.00000E+00  9.000E+00
      21    -1     0     0   501   502  0.000000000E+00  0.000000000E+00 -1.678599346E+02  1.678599346E+02  0.000000000E+00  0.00000E+00  9.000E+00
      25     1     1     2     0     0 -5.420450139E+01 -1.987786668E+01 -8.808864901E+00  1.379704811E+02  1.250000000E+02  0.00000E+00  9.000E+00
      25     1     1     2     0     0 -6.781282253E+01  1.477251204E+02  1.856101962E+02  2.765816969E+02  1.250000000E+02  0.00000E+00  9.000E+00
       3     1     1     2   501     0  1.220173239E+02 -1.278472537E+02  1.104186696E+02  2.083876921E+02  3.814697266E-06  0.00000E+00  9.000E+00
#rwgt            2          19   9.6667873506950868E-005           5      338797           0
</event>
<event>
      5   9999  3.19816E-02  3.59482E+02 -1.00000E+00  1.03101E-01
      21    -1     0     0   502   501  0.000000000E+00  0.000000000E+00  1.595261804E+02  1.595261804E+02  0.000000000E+00  0.00000E+00  9.000E+00
       2    -1     0     0   501     0  0.000000000E+00  0.000000000E+00 -1.415042459E+03  1.415042459E+03  0.000000000E+00  0.00000E+00  9.000E+00
      25     1     1     2     0     0  1.411617262E+02  6.744808647E+01 -4.231431119E+02  4.681356325E+02  1.250000000E+02  0.00000E+00  9.000E+00
      25     1     1     2     0     0  1.544108578E+02 -2.720556309E+02 -2.403796649E+02  4.138409871E+02  1.250000000E+02  0.00000E+00  9.000E+00
       2     1     1     2   502     0 -2.955725839E+02  2.046075444E+02 -5.919935020E+02  6.925920199E+02  0.000000000E+00  0.00000E+00  9.000E+00
#rwgt            2          13   1.0865587123401784E-003           5      338981           0
</event>
<event>
      5   9999  3.19816E-02  1.53244E+02 -1.00000E+00  1.16026E-01
      21    -1     0     0   511   501  0.000000000E+00  0.000000000E+00  1.393031696E+03  1.393031696E+03  0.000000000E+00  0.00000E+00  9.000E+00
      21    -1     0     0   501   502  0.000000000E+00  0.000000000E+00 -6.421406955E+02  6.421406955E+02  0.000000000E+00  0.00000E+00  9.000E+00
      25     1     1     2     0     0 -5.985503639E+02 -2.097664071E+02 -1.534019367E+02  6.643956938E+02  1.250000000E+02  0.00000E+00  9.000E+00
      25     1     1     2     0     0  4.611646171E+02  2.776560832E+02  1.120732160E+02  5.638715371E+02  1.250000000E+02  0.00000E+00  9.000E+00
      21     1     1     2   511   502  1.373857469E+02 -6.788967613E+01  7.922197212E+02  8.069051606E+02  1.078959322E-05  0.00000E+00  9.000E+00
#rwgt            1           1   2.9750111475366523E-002           5      339000           0
</event>
<event>
      5   9999  3.19816E-02  5.52850E+01 -1.00000E+00  1.36631E-01
      21    -1     0     0   502   501  0.000000000E+00  0.000000000E+00  3.751552113E+03  3.751552113E+03  0.000000000E+00  0.00000E+00  9.000E+00
      21    -1     0     0   512   502  0.000000000E+00  0.000000000E+00 -1.627218244E+02  1.627218244E+02  0.000000000E+00  0.00000E+00  9.000E+00
      25     1     1     2     0     0 -3.374954031E+02  1.087051736E+02  3.308216874E+03  3.329511052E+03  1.250000000E+02  0.00000E+00  9.000E+00
      25     1     1     2     0     0  3.895098532E+02 -8.997204711E+01  3.109897028E+02  5.216823653E+02  1.250000000E+02  0.00000E+00  9.000E+00
      21     1     1     2   512   501 -5.201445011E+01 -1.873312653E+01 -3.037628842E+01  6.308051956E+01  3.015782986E-06  0.00000E+00  9.000E+00
#rwgt            1           1   2.2510150005197807E-002           5      339100           0
</event>
<event>
      5   9999  3.19816E-02  1.25949E+02 -1.00000E+00  1.19483E-01
      21    -1     0     0   502   501  0.000000000E+00  0.000000000E+00  7.911465744E+02  7.911465744E+02  0.000000000E+00  0.00000E+00  9.000E+00
       2    -1     0     0   501     0  0.000000000E+00  0.000000000E+00 -7.135452839E+02  7.135452839E+02  0.000000000E+00  0.00000E+00  9.000E+00
      25     1     1     2     0     0 -3.607630125E+02 -1.204943489E+02  4.312261483E+02  5.884299706E+02  1.250000000E+02  0.00000E+00  9.000E+00
      25     1     1     2     0     0  3.872275725E+02  2.436319952E+02  6.536807344E+01  4.787480830E+02  1.250000000E+02  0.00000E+00  9.000E+00
       2     1     1     2   502     0 -2.646455999E+01 -1.231376463E+02 -4.189929312E+02  4.375138046E+02  5.394796609E-06  0.00000E+00  9.000E+00
#rwgt            1           1   2.9085417299110433E-002           5      339205           0
</event>
<event>
      5   9999  3.19816E-02  8.01714E+02 -1.00000E+00  9.33560E-02
      21    -1     0     0   502   501  0.000000000E+00  0.000000000E+00  1.870503213E+03  1.870503213E+03  0.000000000E+00  0.00000E+00  9.000E+00
       1    -1     0     0   501     0  0.000000000E+00  0.000000000E+00 -4.806798682E+02  4.806798682E+02  0.000000000E+00  0.00000E+00  9.000E+00
      25     1     1     2     0     0  2.646069575E+01  3.858858124E+02  8.367452832E+02  9.302557163E+02  1.250000000E+02  0.00000E+00  9.000E+00
      25     1     1     2     0     0 -1.544289723E+02  4.055489947E+02  8.377779461E+00  4.516785160E+02  1.250000000E+02  0.00000E+00  9.000E+00
       1     1     1     2   502     0  1.279682765E+02 -7.914348071E+02  5.447002819E+02  9.692488487E+02  2.412626389E-05  0.00000E+00  9.000E+00
#rwgt            2          12   8.0446891344443901E-005           5      339372           0
</event>
<event>
      5   9999  3.19816E-02  1.01076E+01 -1.00000E+00  1.95221E-01
      21    -1     0     0   511   501  0.000000000E+00  0.000000000E+00  4.243119690E+02  4.243119690E+02  0.000000000E+00  0.00000E+00  9.000E+00
      21    -1     0     0   501   502  0.000000000E+00  0.000000000E+00 -4.443085226E+02  4.443085226E+02  0.000000000E+00  0.00000E+00  9.000E+00
      25     1     1     2     0     0  1.499506083E+02  2.660779519E+02  2.681891251E+02  4.252447157E+02  1.250000000E+02  0.00000E+00  9.000E+00
      25     1     1     2     0     0 -1.418875701E+02 -2.599827656E+02 -2.901798956E+02  4.330733111E+02  1.250000000E+02  0.00000E+00  9.000E+00
      21     1     1     2   511   502 -8.063038252E+00 -6.095186301E+00  1.994216870E+00  1.030246489E+01  2.289159819E-07  0.00000E+00  9.000E+00
#rwgt            1           1   2.5432168030531131E-002           5      339421           0
</event>
<event>
      5   9999  3.19816E-02  1.00822E+01 -1.00000E+00  1.95347E-01
      21    -1     0     0   502   501  0.000000000E+00  0.000000000E+00  8.629095757E+02  8.629095757E+02  0.000000000E+00  0.00000E+00  9.000E+00
      21    -1     0     0   512   502  0.000000000E+00  0.000000000E+00 -1.199462571E+02  1.199462571E+02  0.000000000E+00  0.00000E+00  9.000E+00
      25     1     1     2     0     0 -1.401382801E+02  1.245412568E+02  7.053151587E+02  7.404348285E+02  1.250000000E+02  0.00000E+00  9.000E+00
      25     1     1     2     0     0  1.366570269E+02 -1.340034236E+02  3.999210269E+01  2.320698791E+02  1.250000000E+02  0.00000E+00  9.000E+00
      21     1     1     2   512   501  3.481253216E+00  9.462166774E+00 -2.343942747E+00  1.035112514E+01  7.884953353E-08  0.00000E+00  9.000E+00
#rwgt            1           1   2.8516523384183968E-002           5      339700           0
</event>
<event>
      5   9999  3.19816E-02  7.54958E+00 -1.00000E+00  2.11016E-01
      21    -1     0     0   511   501  0.000000000E+00  0.000000000E+00  8.037483423E+02  8.037483423E+02  0.000000000E+00  0.00000E+00  9.000E+00
      21    -1     0     0   501   502  0.000000000E+00  0.000000000E+00 -7.648046095E+02  7.648046095E+02  0.000000000E+00  0.00000E+00  9.000E+00
      25     1     1     2     0     0 -4.578936615E+02 -5.131531764E+02  3.127124448E+02  7.657720684E+02  1.250000000E+02  0.00000E+00  9.000E+00
      25     1     1     2     0     0  4.586927394E+02  5.056460064E+02 -3.140533967E+02  7.617948865E+02  1.250000000E+02  0.00000E+00  9.000E+00
      21     1     1     2   511   502 -7.990779184E-01  7.507169920E+00  4.028468464E+01  4.098599690E+01  6.743495762E-07  0.00000E+00  9.000E+00
#rwgt            1           1   2.4930886979139262E-002           5      339938           0
</event>
<event>
      5   9999  3.19816E-02  2.32553E+01 -1.00000E+00  1.61141E-01
      21    -1     0     0   502   501  0.000000000E+00  0.000000000E+00  1.992690114E+03  1.992690114E+03  0.000000000E+00  0.00000E+00  9.000E+00
      21    -1     0     0   501   512  0.000000000E+00  0.000000000E+00 -4.406046401E+02  4.406046401E+02  0.000000000E+00  0.00000E+00  9.000E+00
      25     1     1     2     0     0  1.143713968E+02  5.286764401E+02  1.348030931E+03  1.457872418E+03  1.250000000E+02  0.00000E+00  9.000E+00
      25     1     1     2     0     0 -9.705783123E+01 -5.131507110E+02  4.668741004E+02  7.115759274E+02  1.250000000E+02  0.00000E+00  9.000E+00
      21     1     1     2   502   512 -1.731356558E+01 -1.552572911E+01 -2.628195575E+02  2.638464092E+02  7.629394531E-06  0.00000E+00  9.000E+00
#rwgt            1           1   3.3737099049731961E-002           5      340259           0
</event>
<event>
      5   9999  3.19816E-02  5.33750E+01 -1.00000E+00  1.37476E-01
      21    -1     0     0   511   501  0.000000000E+00  0.000000000E+00  5.744399846E+01  5.744399846E+01  0.000000000E+00  0.00000E+00  9.000E+00
      21    -1     0     0   501   502  0.000000000E+00  0.000000000E+00 -2.158309492E+03  2.158309492E+03  0.000000000E+00  0.00000E+00  9.000E+00
      25     1     1     2     0     0 -2.041652571E+01  1.735221611E+02 -8.949850120E+02  9.204074894E+02  1.250000000E+02  0.00000E+00  9.000E+00
      25     1     1     2     0     0  6.374670100E+01 -2.046892909E+02 -1.215961517E+03  1.241027300E+03  1.250000000E+02  0.00000E+00  9.000E+00
      21     1     1     2   511   502 -4.333017529E+01  3.116712981E+01  1.008103524E+01  5.431870159E+01  1.435469935E-06  0.00000E+00  9.000E+00
#rwgt            1           1   7.3542176485169003E-002           5      340462           0
</event>
<event>
      5   9999  3.19816E-02  2.28925E+02 -1.00000E+00  1.09553E-01
      21    -1     0     0   502   512  0.000000000E+00  0.000000000E+00  6.576099624E+02  6.576099624E+02  0.000000000E+00  0.00000E+00  9.000E+00
      21    -1     0     0   501   502  0.000000000E+00  0.000000000E+00 -2.381326313E+02  2.381326313E+02  0.000000000E+00  0.00000E+00  9.000E+00
      25     1     1     2     0     0 -1.085317339E+02 -1.476552568E+02 -5.443448940E+01  2.284060546E+02  1.250000000E+02  0.00000E+00  9.000E+00
      25     1     1     2     0     0 -1.195419613E+02  1.673761693E+02  2.325769424E+02  3.346970222E+02  1.250000000E+02  0.00000E+00  9.000E+00
      21     1     1     2   501   512  2.280736951E+02 -1.972091248E+01  2.413348781E+02  3.326395169E+02  8.092194914E-06  0.00000E+00  9.000E+00
#rwgt            2          11   2.8715874891635062E-003           5      340664           0
</event>
<event>
      5   9999  3.19816E-02  7.24044E+00 -1.00000E+00  2.13501E-01
      21    -1     0     0   502   501  0.000000000E+00  0.000000000E+00  1.311237726E+02  1.311237726E+02  0.000000000E+00  0.00000E+00  9.000E+00
      21    -1     0     0   501   511  0.000000000E+00  0.000000000E+00 -4.261182326E+02  4.261182326E+02  0.000000000E+00  0.00000E+00  9.000E+00
      25     1     1     2     0     0 -6.254877532E+01 -1.499252258E+02 -2.607959031E+02  3.317068370E+02  1.250000000E+02  0.00000E+00  9.000E+00
      25     1     1     2     0     0  6.861853378E+01  1.538726371E+02 -2.145787036E+01  2.108808474E+02  1.250000000E+02  0.00000E+00  9.000E+00
      21     1     1     2   502   511 -6.069758463E+00 -3.947411241E+00 -1.274068652E+01  1.465432074E+01  0.000000000E+00  0.00000E+00  9.000E+00
#rwgt            1           1   2.8533108240514041E-002           5      340684           0
</event>
<event>
      5   9999  3.19816E-02  2.00550E+02 -1.00000E+00  1.11605E-01
      21    -1     0     0   502   501  0.000000000E+00  0.000000000E+00  3.417829771E+02  3.417829771E+02  0.000000000E+00  0.00000E+00  9.000E+00
      21    -1     0     0   501   512  0.000000000E+00  0.000000000E+00 -7.936601461E+02  7.936601461E+02  0.000000000E+00  0.00000E+00  9.000E+00
      25     1     1     2     0     0 -3.241027611E+02  5.675457999E+01 -9.821371078E+00  3.521152388E+02  1.250000000E+02  0.00000E+00  9.000E+00
      25     1     1     2     0     0  3.694101617E+02  1.386110243E+02 -1.750239820E+02  4.493720929E+02  1.250000000E+02  0.00000E+00  9.000E+00
      21     1     1     2   502   512 -4.530740068E+01 -1.953656043E+02 -2.670318159E+02  3.339557914E+02  5.394796609E-06  0.00000E+00  9.000E+00
#rwgt            1           1   2.9414550230198670E-002           5      340930           0
</event>
<event>
      5   9999  3.19816E-02  5.94972E+01 -1.00000E+00  1.34899E-01
      21    -1     0     0   511   501  0.000000000E+00  0.000000000E+00  4.907153275E+01  4.907153275E+01  0.000000000E+00  0.00000E+00  9.000E+00
      21    -1     0     0   501   502  0.000000000E+00  0.000000000E+00 -1.535941674E+03  1.535941674E+03  0.000000000E+00  0.00000E+00  9.000E+00
      25     1     1     2     0     0  2.771998394E+01  1.870875891E+02 -9.758418859E+02  1.001829601E+03  1.250000000E+02  0.00000E+00  9.000E+00
      25     1     1     2     0     0 -8.202683796E+01 -1.627835328E+02 -4.158670304E+02  4.709535727E+02  1.250000000E+02  0.00000E+00  9.000E+00
      21     1     1     2   511   502  5.430685402E+01 -2.430405628E+01 -9.516122534E+01  1.122300332E+02  1.348699152E-06  0.00000E+00  9.000E+00
#rwgt            1           1   3.4465240667430772E-002           5      340975           0
</event>
<event>
      5   9999  3.19816E-02  4.30987E+01 -1.00000E+00  1.42859E-01
       2    -1     0     0   502     0  0.000000000E+00  0.000000000E+00  1.475014710E+03  1.475014710E+03  0.000000000E+00  0.00000E+00  9.000E+00
      21    -1     0     0   501   502  0.000000000E+00  0.000000000E+00 -3.460272353E+02  3.460272353E+02  0.000000000E+00  0.00000E+00  9.000E+00
      25     1     1     2     0     0 -2.891261883E+02  1.525265845E+02 -7.880994234E+01  3.587399040E+02  1.250000000E+02  0.00000E+00  9.000E+00
      25     1     1     2     0     0  3.199029563E+02 -1.223555968E+02  1.352335515E+02  3.888726102E+02  1.250000000E+02  0.00000E+00  9.000E+00
       2     1     1     2   501     0 -3.077676800E+01 -3.017098772E+01  1.072563866E+03  1.073429431E+03  1.525878906E-05  0.00000E+00  9.000E+00
#rwgt            1           1   2.8399803239660851E-002           5      341083           0
</event>
<event>
      5   9999  3.19816E-02  3.58684E+01 -1.00000E+00  1.47839E-01
      21    -1     0     0   502   501  0.000000000E+00  0.000000000E+00  6.468794943E+02  6.468794943E+02  0.000000000E+00  0.00000E+00  9.000E+00
      21    -1     0     0   501   511  0.000000000E+00  0.000000000E+00 -3.038807254E+02  3.038807254E+02  0.000000000E+00  0.00000E+00  9.000E+00
      25     1     1     2     0     0 -1.351732248E+02  2.923466956E+02  4.594820442E+02  5.748801094E+02  1.250000000E+02  0.00000E+00  9.000E+00
      25     1     1     2     0     0  1.250295007E+02 -2.579424907E+02 -1.284477565E+02  3.380688254E+02  1.250000000E+02  0.00000E+00  9.000E+00
      21     1     1     2   502   511  1.014372410E+01 -3.440420490E+01  1.196448115E+01  3.781128486E+01  3.371747881E-07  0.00000E+00  9.000E+00
#rwgt            1           1   3.0163812407066382E-002           5      341188           0
</event>
<event>
      5   9999  3.19816E-02  2.28417E+02 -1.00000E+00  1.09587E-01
      21    -1     0     0   502   512  0.000000000E+00  0.000000000E+00  2.924450079E+03  2.924450079E+03  0.000000000E+00  0.00000E+00  9.000E+00
      21    -1     0     0   501   502  0.000000000E+00  0.000000000E+00 -1.905778954E+02  1.905778954E+02  0.000000000E+00  0.00000E+00  9.000E+00
      25     1     1     2     0     0  3.303813571E+02  2.178644343E+01  1.095541921E+03  1.151287797E+03  1.250000000E+02  0.00000E+00  9.000E+00
      25     1     1     2     0     0 -2.378840009E+02 -2.306375511E+02  4.832448132E+01  3.574111545E+02  1.250000000E+02  0.00000E+00  9.000E+00
      21     1     1     2   501   512 -9.249735618E+01  2.088511077E+02  1.590005781E+03  1.606329023E+03  0.000000000E+00  0.00000E+00  9.000E+00
#rwgt            1           1   2.7678074402362349E-002           5      341292           0
</event>
<event>
      5   9999  3.19816E-02  3.16507E+01 -1.00000E+00  1.51441E-01
      21    -1     0     0   502   501  0.000000000E+00  0.000000000E+00  3.275672739E+02  3.275672739E+02  0.000000000E+00  0.00000E+00  9.000E+00
      21    -1     0     0   501   511  0.000000000E+00  0.000000000E+00 -4.310466394E+02  4.310466394E+02  0.000000000E+00  0.00000E+00  9.000E+00
      25     1     1     2     0     0  2.499398343E+02  8.329077575E+01 -9.901565695E+01  3.079551500E+02  1.250000000E+02  0.00000E+00  9.000E+00
      25     1     1     2     0     0 -2.813314537E+02 -8.733241187E+01  1.049416756E+02  3.367671187E+02  1.250000000E+02  0.00000E+00  9.000E+00
      21     1     1     2   502   511  3.139161932E+01  4.041636130E+00 -1.094053842E+02  1.138916445E+02  1.348699152E-06  0.00000E+00  9.000E+00
#rwgt            1           1   3.3269268318177447E-002           5      341346           0
</event>
<event>
      5   9999  3.19816E-02  6.22752E+01 -1.00000E+00  1.33845E-01
      21    -1     0     0   502   501  0.000000000E+00  0.000000000E+00  8.683778695E+02  8.683778695E+02  0.000000000E+00  0.00000E+00  9.000E+00
       1    -1     0     0   501     0  0.000000000E+00  0.000000000E+00 -9.493387156E+02  9.493387156E+02  0.000000000E+00  0.00000E+00  9.000E+00
      25     1     1     2     0     0 -1.285885194E+02  2.926155996E+02 -7.619230589E+02  8.356498335E+02  1.250000000E+02  0.00000E+00  9.000E+00
      25     1     1     2     0     0  1.559847119E+02 -2.366902110E+02  7.943927842E+02  8.526654572E+02  1.250000000E+02  0.00000E+00  9.000E+00
       1     1     1     2   502     0 -2.739619248E+01 -5.592538861E+01 -1.134305714E+02  1.294012943E+02  1.907348633E-06  0.00000E+00  9.000E+00
#rwgt            1           1   3.3282338806382372E-002           5      341446           0
</event>
<event>
      5   9999  3.19816E-02  1.39154E+01 -1.00000E+00  1.80510E-01
      21    -1     0     0   502   501  0.000000000E+00  0.000000000E+00  6.274940327E+02  6.274940327E+02  0.000000000E+00  0.00000E+00  9.000E+00
      21    -1     0     0   501   511  0.000000000E+00  0.000000000E+00 -5.079196153E+02  5.079196153E+02  0.000000000E+00  0.00000E+00  9.000E+00
      25     1     1     2     0     0  3.606370861E+02  4.014042144E+02  4.413180043E+01  5.556591284E+02  1.250000000E+02  0.00000E+00  9.000E+00
      25     1     1     2     0     0 -3.742193267E+02 -3.983772585E+02  7.607819566E+01  5.658245633E+02  1.250000000E+02  0.00000E+00  9.000E+00
      21     1     1     2   502   511  1.358224060E+01 -3.026955825E+00 -6.355787334E-01  1.392995627E+01  2.136121867E-07  0.00000E+00  9.000E+00
#rwgt            1           1   2.4782918850222595E-002           5      341610           0
</event>
<event>
      5   9999  3.19816E-02  4.18079E+01 -1.00000E+00  1.43659E-01
      21    -1     0     0   512   501  0.000000000E+00  0.000000000E+00  1.468670303E+02  1.468670303E+02  0.000000000E+00  0.00000E+00  9.000E+00
      21    -1     0     0   501   502  0.000000000E+00  0.000000000E+00 -4.237743502E+02  4.237743502E+02  0.000000000E+00  0.00000E+00  9.000E+00
      25     1     1     2     0     0  1.449495635E+02  4.023227713E+01 -2.198947441E+02  2.942918799E+02  1.250000000E+02  0.00000E+00  9.000E+00
      25     1     1     2     0     0 -1.775597001E+02 -6.639480662E+01 -3.724585802E+01  2.301042620E+02  1.250000000E+02  0.00000E+00  9.000E+00
      21     1     1     2   512   502  3.261013658E+01  2.616252949E+01 -1.976671781E+01  4.624523857E+01  7.539457465E-07  0.00000E+00  9.000E+00
#rwgt            1           1   2.7897335415307256E-002           5      341874           0
</event>
<event>
      5   9999  3.19816E-02  1.10969E+02 -1.00000E+00  1.21828E-01
      21    -1     0     0   502   501  0.000000000E+00  0.000000000E+00  5.648438329E+02  5.648438329E+02  0.000000000E+00  0.00000E+00  9.000E+00
      21    -1     0     0   501   511  0.000000000E+00  0.000000000E+00 -1.943349345E+02  1.943349345E+02  0.000000000E+00  0.00000E+00  9.000E+00
      25     1     1     2     0     0  1.912245063E+02  7.591215868E+01  2.595665136E+02  3.540187038E+02  1.250000000E+02  0.00000E+00  9.000E+00
      25     1     1     2     0     0 -2.480757602E+02  1.938801768E+01  7.286775983E+01  2.878405608E+02  1.250000000E+02  0.00000E+00  9.000E+00
      21     1     1     2   502   511  5.685125390E+01 -9.530017636E+01  3.807462495E+01  1.173195029E+02  1.430511475E-06  0.00000E+00  9.000E+00
#rwgt            1           1   2.7762451754789967E-002           5      342008           0
</event>
<event>
      5   9999  3.19816E-02  4.01960E+01 -1.00000E+00  1.44709E-01
      21    -1     0     0   502   512  0.000000000E+00  0.000000000E+00  1.973525250E+03  1.973525250E+03  0.000000000E+00  0.00000E+00  9.000E+00
      21    -1     0     0   501   502  0.000000000E+00  0.000000000E+00 -2.415927798E+02  2.415927798E+02  0.000000000E+00  0.00000E+00  9.000E+00
      25     1     1     2     0     0 -1.486377108E+02 -6.140246001E+02  1.001766664E+03  1.190915962E+03  1.250000000E+02  0.00000E+00  9.000E+00
      25     1     1     2     0     0  1.834561992E+02  6.341092383E+02  6.514750381E+02  9.358394245E+02  1.250000000E+02  0.00000E+00  9.000E+00
      21     1     1     2   501   512 -3.481848834E+01 -2.008463822E+01  7.869076852E+01  8.836264410E+01  9.536743164E-07  0.00000E+00  9.000E+00
#rwgt            1           1   3.2145075758862635E-002           5      342076           0
</event>
<event>
      5   9999  3.19816E-02  2.98576E+01 -1.00000E+00  1.53184E-01
      21    -1     0     0   502   501  0.000000000E+00  0.000000000E+00  3.347870760E+02  3.347870760E+02  0.000000000E+00  0.00000E+00  9.000E+00
       2    -1     0     0   501     0  0.000000000E+00  0.000000000E+00 -2.666884613E+03  2.666884613E+03  0.000000000E+00  0.00000E+00  9.000E+00
      25     1     1     2     0     0  7.420415777E+00 -1.454743492E+02  2.901016572E+02  3.478531592E+02  1.250000000E+02  0.00000E+00  9.000E+00
      25     1     1     2     0     0 -4.426069665E-01  1.745051168E+02 -7.183667117E+02  7.497519351E+02  1.250000000E+02  0.00000E+00  9.000E+00
       2     1     1     2   502     0 -6.977808810E+00 -2.903076759E+01 -1.903832482E+03  1.904066594E+03  2.157918644E-05  0.00000E+00  9.000E+00
#rwgt            1           1   2.9772141701987026E-002           5      342174           0
</event>
<event>
      5   9999  3.19816E-02  2.18886E+01 -1.00000E+00  1.63199E-01
      21    -1     0     0   502   501  0.000000000E+00  0.000000000E+00  8.043312629E+02  8.043312629E+02  0.000000000E+00  0.00000E+00  9.000E+00
      21    -1     0     0   501   511  0.000000000E+00  0.000000000E+00 -8.930918425E+02  8.930918425E+02  0.000000000E+00  0.00000E+00  9.000E+00
      25     1     1     2     0     0 -6.795688447E-01 -1.167494426E+02 -3.826916777E+02  4.191763523E+02  1.250000000E+02  0.00000E+00  9.000E+00
      25     1     1     2     0     0 -2.968246888E+00  9.516698630E+01  7.779867905E+02  7.936964230E+02  1.250000000E+02  0.00000E+00  9.000E+00
      21     1     1     2   502   511  3.647815732E+00  2.158245625E+01 -4.840556925E+02  4.845503301E+02  5.394796609E-06  0.00000E+00  9.000E+00
#rwgt            1           1   2.7742873432104780E-002           5      342413           0
</event>
<event>
      5   9999  3.19816E-02  9.41457E+01 -1.00000E+00  1.25018E-01
      21    -1     0     0   502   501  0.000000000E+00  0.000000000E+00  5.061672853E+02  5.061672853E+02  0.000000000E+00  0.00000E+00  9.000E+00
      21    -1     0     0   501   512  0.000000000E+00  0.000000000E+00 -1.770336238E+02  1.770336238E+02  0.000000000E+00  0.00000E+00  9.000E+00
      25     1     1     2     0     0 -1.157961959E+02  1.938512332E+02  2.246963013E+02  3.421994848E+02  1.250000000E+02  0.00000E+00  9.000E+00
      25     1     1     2     0     0  2.182369967E+01 -1.881431054E+02  9.624517507E+01  2.464999710E+02  1.250000000E+02  0.00000E+00  9.000E+00
      21     1     1     2   502   512  9.397249621E+01 -5.708127808E+00  8.192185233E+00  9.450145325E+01  1.111910230E-06  0.00000E+00  9.000E+00
#rwgt            1           1   2.9021144783910994E-002           5      342584           0
</event>
<event>
      5   9999  3.19816E-02  4.18625E+01 -1.00000E+00  1.43625E-01
      21    -1     0     0   502   501  0.000000000E+00  0.000000000E+00  1.726039388E+02  1.726039388E+02  0.000000000E+00  0.00000E+00  9.000E+00
      21    -1     0     0   501   511  0.000000000E+00  0.000000000E+00 -6.955443207E+02  6.955443207E+02  0.000000000E+00  0.00000E+00  9.000E+00
      25     1     1     2     0     0 -2.290832267E+00  1.082737372E+02 -1.365812914E+02  2.144945203E+02  1.250000000E+02  0.00000E+00  9.000E+00
      25     1     1     2     0     0  2.538911526E-01 -6.646082791E+01  9.499160806E+01  1.704861041E+02  1.250000000E+02  0.00000E+00  9.000E+00
      21     1     1     2   502   511  2.036941115E+00 -4.181290927E+01 -4.813506986E+02  4.831676350E+02  0.000000000E+00  0.00000E+00  9.000E+00
#rwgt            1           1   2.7247336898739854E-002           5      342656           0
</event>
</LesHouchesEvents>
 #Random number generator exit values:            5        342787             0
