<LesHouchesEvents version="3.0">
<!--
file generated with POWHEG-BOX-V2
Input file powheg.input contained:
! ggHH production parameters:
mtdep 0              ! 0: Higgs effective field theory (HEFT)

hmass 125            ! Higgs boson mass
topmass 173          ! top quark mass (THIS VALUE IS HARD CODED IN THE VIRTUAL
hdecaymode -1        ! PDG code for Higgs boson decay products (it affects only the SMC)
!                      allowed values are:
!                      0 all decay channels open
!                      1-6 d dbar, u ubar,..., t tbar (as in HERWIG)
!                      7-9 e+ e-, mu+ mu-, tau+ tau-
!                      10  W+W-
!                      11  ZZ
!                      12  gamma gamma
!                      -1  all decay channels closed

! general parameters:
numevts  3000        ! number of events to be generated
ih1         1        ! hadron 1 (1 for protons, -1 for antiprotons)
ih2         1        ! hadron 2 (1 for protons, -1 for antiprotons)
ebeam1 7000d0        ! energy of beam 1
ebeam2 7000d0        ! energy of beam 2
! To be set only if using LHA pdfs
lhans1 90200         ! pdf set for hadron 1 (LHA numbering)
lhans2 90200 	     ! pdf set for hadron 2 (LHA numbering)
! To be set only if using internal mlm pdf
# ndns1 131          ! pdf set for hadron 1 (mlm numbering)
# ndns2 131          ! pdf set for hadron 2 (mlm numbering)
! To be set only if using different pdf sets for the two incoming hadrons
! QCDLambda5 0.25    ! for not equal pdf sets

! Parameters to allow or not the use of stored data
use-old-grid    1    ! if 1 use old grid if file pwggrids.dat is present (<> 1 regenerate)
use-old-ubound  1    ! if 1 use norm of upper bounding function stored in pwgubound.dat, if present;
!
ncall1  10000        ! number of calls for initializing the integration grid
itmx1       3        ! number of iterations for initializing the integration grid
ncall2  10000        ! number of calls for computing the integral and finding upper bound
itmx2       3        ! number of iterations for computing the integral and finding upper bound
foldcsi     1        ! number of folds on csi integration
foldy       1        ! number of folds on  y  integration
foldphi     1        ! number of folds on phi integration
nubound 10000        ! number of bbarra calls to setup norm of upper bounding function
# icsimax   1        ! <= 100, number of csi subdivision when computing the upper bounds
# iymax     1        ! <= 100, number of y subdivision when computing the upper bounds
# xupbound 2d0       ! increase upper bound for radiation generation

! OPTIONAL PARAMETERS

! scale settings:
#fixedscale   1      ! (dafault 0) Use muren = mufac = 2*m_H
facscfact   1d0      ! (default 1d0) fac scale factor: mufact = muref * facscfact
renscfact   1d0      ! (default 1d0) ren scale factor: muren  = muref * renscfact

! Born, plots and powheg strategy:
#bornonly         1  ! (default 0) if 1 do Born only
# testplots 1
fastbtlbound      1  ! fast evaluation of Btilde upper bounds
storemintupb      1  ! store function calls in binary file for more precise generation
ubexcess_correct  1  ! corrects for error in upper bound estimate
storeinfo_rwgt    1  ! store info to allow for reweighting
softtest          0  ! no check of the soft limit in the real
colltest          0  ! no check of the collinear limit in the real

! PARAMETERS needed for ggHH
hdamp           250

! PARAMETERS for parallel runnning
! -- non parallel (for testing purposes only)
#iseed    547        !  Start the random number generator with seed iseed
#rand1     0         !  skipping  rand2*100000000+rand1 numbers.
#rand2     0         !  (see RM48 short writeup in CERNLIB)

! -- parallel
manyseeds 1          ! Used to perform multiple runs with different random
                     ! seeds in the same directory.
                     ! If set to 1, the program asks for an integer j;
                     ! The file pwgseeds.dat at line j is read, and the
                     ! integer at line j is used to initialize the random
                     ! sequence for the generation of the event.
                     ! The event file is called pwgevents-'j'.lhe
parallelstage 4
xgriditeration 1
maxseeds    1000

! PARAMETERS for reweighting
#rwl_file 'reweight_setup.xml'


! PARAMETERS for Pythia8
#py8tune  xxx
#py8hepmc 1
#py8nohad 1
#py8nompi 1
End of powheg.input content
PDF package: lha
 Random number generator initialized with:            4             0             0
-->
<init>
     2212     2212  7.00000E+03  7.00000E+03     -1     -1     -1     -1     -4      1
  3.19670E-02  5.76697E-06  1.00000E+00   9999
</init>
<event>
      5   9999  3.19816E-02  2.55469E+01 -1.00000E+00  1.58050E-01
      21    -1     0     0   511   501  0.000000000E+00  0.000000000E+00  5.921428564E+02  5.921428564E+02  0.000000000E+00  0.00000E+00  9.000E+00
      21    -1     0     0   501   502  0.000000000E+00  0.000000000E+00 -2.971332289E+02  2.971332289E+02  0.000000000E+00  0.00000E+00  9.000E+00
      25     1     1     2     0     0  1.174058303E+02  2.631487389E+02 -1.213589886E+02  3.367259894E+02  1.250000000E+02  0.00000E+00  9.000E+00
      25     1     1     2     0     0 -1.223773166E+02 -2.882072819E+02  3.786178924E+02  5.069676058E+02  1.250000000E+02  0.00000E+00  9.000E+00
      21     1     1     2   511   502  4.971486287E+00  2.505854297E+01  3.775072378E+01  4.558249004E+01  4.768371582E-07  0.00000E+00  9.000E+00
#rwgt            1           1   2.8536718584270794E-002           4          16           0
</event>
<event>
      5   9999  3.19816E-02  1.39926E+01 -1.00000E+00  1.80276E-01
      21    -1     0     0   512   501  0.000000000E+00  0.000000000E+00  7.359147611E+01  7.359147611E+01  0.000000000E+00  0.00000E+00  9.000E+00
      21    -1     0     0   501   502  0.000000000E+00  0.000000000E+00 -3.241096551E+02  3.241096551E+02  0.000000000E+00  0.00000E+00  9.000E+00
      25     1     1     2     0     0 -5.653370016E+01  2.360579094E+00 -5.759133868E+01  1.488065653E+02  1.250000000E+02  0.00000E+00  9.000E+00
      25     1     1     2     0     0  5.743788781E+01  1.160277039E+01 -1.895590603E+02  2.345023935E+02  1.250000000E+02  0.00000E+00  9.000E+00
      21     1     1     2   512   502 -9.041876526E-01 -1.396334949E+01 -3.367780078E+00  1.439217242E+01  7.300048300E-08  0.00000E+00  9.000E+00
#rwgt            1           1   3.7526317937760144E-002           4         179           0
</event>
<event>
      5   9999  3.19816E-02  6.65007E+01 -1.00000E+00  1.32359E-01
      21    -1     0     0   502   501  0.000000000E+00  0.000000000E+00  7.922989606E+02  7.922989606E+02  0.000000000E+00  0.00000E+00  9.000E+00
      21    -1     0     0   511   502  0.000000000E+00  0.000000000E+00 -4.829884194E+01  4.829884194E+01  0.000000000E+00  0.00000E+00  9.000E+00
      25     1     1     2     0     0 -6.209846912E+01 -2.426099029E+01  2.751283034E+02  3.094598502E+02  1.250000000E+02  0.00000E+00  9.000E+00
      25     1     1     2     0     0  1.285895689E+02  2.313047827E+01  3.722599101E+02  4.138511048E+02  1.250000000E+02  0.00000E+00  9.000E+00
      21     1     1     2   511   501 -6.649109976E+01  1.130512025E+00  9.661190506E+01  1.172868475E+02  2.336015456E-06  0.00000E+00  9.000E+00
#rwgt            1           1   7.3064343298320414E-002           4         305           0
</event>
<event>
      5   9999  3.19816E-02  2.48123E+01 -1.00000E+00  1.58996E-01
      21    -1     0     0   512   501  0.000000000E+00  0.000000000E+00  2.139990886E+02  2.139990886E+02  0.000000000E+00  0.00000E+00  9.000E+00
      21    -1     0     0   501   502  0.000000000E+00  0.000000000E+00 -8.033709356E+02  8.033709356E+02  0.000000000E+00  0.00000E+00  9.000E+00
      25     1     1     2     0     0 -2.113614944E+02 -1.897210880E+02 -3.953418991E+01  3.128189968E+02  1.250000000E+02  0.00000E+00  9.000E+00
      25     1     1     2     0     0  2.035853239E+02  1.661588530E+02 -5.897032004E+02  6.575945658E+02  1.250000000E+02  0.00000E+00  9.000E+00
      21     1     1     2   512   502  7.776170562E+00  2.356223508E+01  3.986554321E+01  4.695646160E+01  4.768371582E-07  0.00000E+00  9.000E+00
#rwgt            1           1   2.5778741292468276E-002           4         369           0
</event>
<event>
      5   9999  3.19816E-02  6.90039E+01 -1.00000E+00  1.31537E-01
      21    -1     0     0   502   501  0.000000000E+00  0.000000000E+00  1.573179019E+03  1.573179019E+03  0.000000000E+00  0.00000E+00  9.000E+00
      21    -1     0     0   511   502  0.000000000E+00  0.000000000E+00 -8.448790846E+02  8.448790846E+02  0.000000000E+00  0.00000E+00  9.000E+00
      25     1     1     2     0     0  7.033925842E-01 -1.237822129E+02  6.343420864E+02  6.582836877E+02  1.250000000E+02  0.00000E+00  9.000E+00
      25     1     1     2     0     0 -2.455654382E+01  5.903214634E+01  9.201024175E+02  9.307530698E+02  1.250000000E+02  0.00000E+00  9.000E+00
      21     1     1     2   511   501  2.385315124E+01  6.475006660E+01 -8.261445691E+02  8.290213465E+02  0.000000000E+00  0.00000E+00  9.000E+00
#rwgt            1           1   2.2972552427676481E-002           4         513           0
</event>
<event>
      5   9999  3.19816E-02  1.42589E+01 -1.00000E+00  1.79482E-01
      21    -1     0     0   502   501  0.000000000E+00  0.000000000E+00  4.109245584E+02  4.109245584E+02  0.000000000E+00  0.00000E+00  9.000E+00
      21    -1     0     0   501   512  0.000000000E+00  0.000000000E+00 -3.371163026E+02  3.371163026E+02  0.000000000E+00  0.00000E+00  9.000E+00
      25     1     1     2     0     0 -2.605113741E+01 -2.743380734E+02  2.308837066E+02  3.806209745E+02  1.250000000E+02  0.00000E+00  9.000E+00
      25     1     1     2     0     0  1.708411392E+01  2.632516112E+02 -9.997574001E+01  3.085667291E+02  1.250000000E+02  0.00000E+00  9.000E+00
      21     1     1     2   502   512  8.967023493E+00  1.108646222E+01 -5.709971081E+01  5.885315734E+01  0.000000000E+00  0.00000E+00  9.000E+00
#rwgt            1           1   2.8528523458065547E-002           4         554           0
</event>
<event>
      5   9999  3.19816E-02  1.43336E+01 -1.00000E+00  1.79263E-01
      21    -1     0     0   502   511  0.000000000E+00  0.000000000E+00  1.028027743E+02  1.028027743E+02  0.000000000E+00  0.00000E+00  9.000E+00
      21    -1     0     0   501   502  0.000000000E+00  0.000000000E+00 -7.814305232E+02  7.814305232E+02  0.000000000E+00  0.00000E+00  9.000E+00
      25     1     1     2     0     0  5.243040746E+01  2.103947729E+02 -5.397536219E+02  5.949570408E+02  1.250000000E+02  0.00000E+00  9.000E+00
      25     1     1     2     0     0 -5.192117208E+01 -1.960702315E+02 -1.238838089E+02  2.685359230E+02  1.250000000E+02  0.00000E+00  9.000E+00
      21     1     1     2   501   511 -5.092353757E-01 -1.432454132E+01 -1.499031805E+01  2.074033365E+01  3.769728732E-07  0.00000E+00  9.000E+00
#rwgt            1           1   2.8334981819927552E-002           4         762           0
</event>
<event>
      5   9999  3.19816E-02  2.41937E+02 -1.00000E+00  1.08719E-01
      21    -1     0     0   502   501  0.000000000E+00  0.000000000E+00  7.318688068E+02  7.318688068E+02  0.000000000E+00  0.00000E+00  9.000E+00
       2    -1     0     0   501     0  0.000000000E+00  0.000000000E+00 -1.719884720E+03  1.719884720E+03  0.000000000E+00  0.00000E+00  9.000E+00
      25     1     1     2     0     0  7.177060593E+02 -3.170459147E+01 -9.921547345E+02  1.231301420E+03  1.250000000E+02  0.00000E+00  9.000E+00
      25     1     1     2     0     0 -9.461266658E+02  1.114378445E+02  8.689357552E+01  9.647536237E+02  1.250000000E+02  0.00000E+00  9.000E+00
       2     1     1     2   502     0  2.284206066E+02 -7.973325302E+01 -8.275475421E+01  2.556984835E+02  5.560829062E-06  0.00000E+00  9.000E+00
#rwgt            2          13   8.2991755507290583E-004           4        1182           0
</event>
<event>
      5   9999  3.19816E-02  7.15648E+01 -1.00000E+00  1.30736E-01
      21    -1     0     0   511   501  0.000000000E+00  0.000000000E+00  1.567258974E+03  1.567258974E+03  0.000000000E+00  0.00000E+00  9.000E+00
      21    -1     0     0   501   502  0.000000000E+00  0.000000000E+00 -1.108574727E+02  1.108574727E+02  0.000000000E+00  0.00000E+00  9.000E+00
      25     1     1     2     0     0 -2.014795911E+02  3.055128391E+00  8.475669057E+01  2.518175054E+02  1.250000000E+02  0.00000E+00  9.000E+00
      25     1     1     2     0     0  2.036763951E+02  6.847592573E+01  5.748797916E+02  6.263264333E+02  1.250000000E+02  0.00000E+00  9.000E+00
      21     1     1     2   511   502 -2.196804068E+00 -7.153105413E+01  7.967650188E+02  7.999725075E+02  0.000000000E+00  0.00000E+00  9.000E+00
#rwgt            1           1   2.5599740316208607E-002           4        1201           0
</event>
<event>
      5   9999  3.19816E-02  1.54797E+02 -1.00000E+00  1.15854E-01
       1    -1     0     0   502     0  0.000000000E+00  0.000000000E+00  2.050993145E+03  2.050993145E+03  0.000000000E+00  0.00000E+00  9.000E+00
      21    -1     0     0   501   502  0.000000000E+00  0.000000000E+00 -3.041302693E+02  3.041302693E+02  0.000000000E+00  0.00000E+00  9.000E+00
      25     1     1     2     0     0  6.094817842E+02  8.300040272E+01  2.715893355E+02  6.839173044E+02  1.250000000E+02  0.00000E+00  9.000E+00
      25     1     1     2     0     0 -4.627488337E+02 -3.368956239E+01  5.384595880E+02  7.216891281E+02  1.250000000E+02  0.00000E+00  9.000E+00
       1     1     1     2   501     0 -1.467329505E+02 -4.931084032E+01  9.368139527E+02  9.495169823E+02  1.078959322E-05  0.00000E+00  9.000E+00
#rwgt            1           1   2.6390776239926229E-002           4        1283           0
</event>
<event>
      5   9999  3.19816E-02  8.50538E+01 -1.00000E+00  1.27075E-01
      21    -1     0     0   502   511  0.000000000E+00  0.000000000E+00  5.701329176E+02  5.701329176E+02  0.000000000E+00  0.00000E+00  9.000E+00
      21    -1     0     0   501   502  0.000000000E+00  0.000000000E+00 -6.485651488E+02  6.485651488E+02  0.000000000E+00  0.00000E+00  9.000E+00
      25     1     1     2     0     0 -2.823188811E+02 -4.946214303E+02  1.002081012E+02  5.916257038E+02  1.250000000E+02  0.00000E+00  9.000E+00
      25     1     1     2     0     0  2.461067332E+02  4.176615289E+02 -2.004408160E+02  5.392691328E+02  1.250000000E+02  0.00000E+00  9.000E+00
      21     1     1     2   501   511  3.621214796E+01  7.695990134E+01  2.180048366E+01  8.780322979E+01  2.145767212E-06  0.00000E+00  9.000E+00
#rwgt            1           1   2.9596633327208171E-002           4        1358           0
</event>
<event>
      5   9999  3.19816E-02  1.98149E+03 -1.00000E+00  8.43871E-02
       1    -1     0     0   502     0  0.000000000E+00  0.000000000E+00  2.927357945E+03  2.927357945E+03  0.000000000E+00  0.00000E+00  9.000E+00
      21    -1     0     0   501   502  0.000000000E+00  0.000000000E+00 -1.567362963E+03  1.567362963E+03  0.000000000E+00  0.00000E+00  9.000E+00
      25     1     1     2     0     0 -3.147246201E+02  1.426896860E+03  6.530380038E+02  1.605356618E+03  1.250000000E+02  0.00000E+00  9.000E+00
      25     1     1     2     0     0  5.959265526E+02  5.345388614E+02  9.646470506E+01  8.159599805E+02  1.250000000E+02  0.00000E+00  9.000E+00
       1     1     1     2   501     0 -2.812019324E+02 -1.961435722E+03  6.104922728E+02  2.073404310E+03  2.854658040E-05  0.00000E+00  9.000E+00
#rwgt            2          17   9.0084491509476145E-005           4        1465           0
</event>
<event>
      5   9999  3.19816E-02  1.07657E+01 -1.00000E+00  1.92125E-01
      21    -1     0     0   502   511  0.000000000E+00  0.000000000E+00  4.688369036E+02  4.688369036E+02  0.000000000E+00  0.00000E+00  9.000E+00
      21    -1     0     0   501   502  0.000000000E+00  0.000000000E+00 -3.473255271E+03  3.473255271E+03  0.000000000E+00  0.00000E+00  9.000E+00
      25     1     1     2     0     0 -4.234099473E+02  2.878319688E+02 -2.433975123E+03  2.490378109E+03  1.250000000E+02  0.00000E+00  9.000E+00
      25     1     1     2     0     0  4.127490118E+02 -2.893299624E+02 -9.443102061E+02  1.077692136E+03  1.250000000E+02  0.00000E+00  9.000E+00
      21     1     1     2   501   511  1.066093553E+01  1.497993666E+00  3.738669614E+02  3.740219303E+02  5.394796609E-06  0.00000E+00  9.000E+00
#rwgt            1           1   3.0167038976777277E-002           4        1484           0
</event>
<event>
      5   9999  3.19816E-02  3.89958E+01 -1.00000E+00  1.45528E-01
      21    -1     0     0   502   501  0.000000000E+00  0.000000000E+00  2.697556394E+02  2.697556394E+02  0.000000000E+00  0.00000E+00  9.000E+00
      21    -1     0     0   501   512  0.000000000E+00  0.000000000E+00 -2.074100388E+02  2.074100388E+02  0.000000000E+00  0.00000E+00  9.000E+00
      25     1     1     2     0     0 -8.304492779E+01  1.212964899E+01  2.013062507E+02  2.513817714E+02  1.250000000E+02  0.00000E+00  9.000E+00
      25     1     1     2     0     0  4.520052162E+01 -2.723654160E+00 -1.296320499E+02  1.856878397E+02  1.250000000E+02  0.00000E+00  9.000E+00
      21     1     1     2   502   512  3.784440617E+01 -9.405994827E+00 -9.328600208E+00  4.009606713E+01  5.591411304E-07  0.00000E+00  9.000E+00
#rwgt            1           1   3.0196031903436404E-002           4        1740           0
</event>
<event>
      5   9999  3.19816E-02  3.41986E+01 -1.00000E+00  1.49191E-01
      21    -1     0     0   511   501  0.000000000E+00  0.000000000E+00  9.984030432E+02  9.984030432E+02  0.000000000E+00  0.00000E+00  9.000E+00
      21    -1     0     0   501   502  0.000000000E+00  0.000000000E+00 -1.412416536E+02  1.412416536E+02  0.000000000E+00  0.00000E+00  9.000E+00
      25     1     1     2     0     0 -7.321494815E+01 -2.512845731E+02  1.429647191E+02  3.233701845E+02  1.250000000E+02  0.00000E+00  9.000E+00
      25     1     1     2     0     0  9.446908482E+01  2.780765094E+02  4.605998724E+02  5.603821870E+02  1.250000000E+02  0.00000E+00  9.000E+00
      21     1     1     2   511   502 -2.125413667E+01 -2.679193628E+01  2.535967981E+02  2.558923254E+02  3.814697266E-06  0.00000E+00  9.000E+00
#rwgt            1           1   2.7201724154547711E-002           4        1860           0
</event>
<event>
      5   9999  3.19816E-02  6.34742E+01 -1.00000E+00  1.33410E-01
      21    -1     0     0   502   501  0.000000000E+00  0.000000000E+00  7.910936843E+01  7.910936843E+01  0.000000000E+00  0.00000E+00  9.000E+00
      21    -1     0     0   501   512  0.000000000E+00  0.000000000E+00 -2.240482702E+03  2.240482702E+03  0.000000000E+00  0.00000E+00  9.000E+00
      25     1     1     2     0     0  2.626019166E+02 -4.210482368E+01 -3.647439449E+02  4.683969771E+02  1.250000000E+02  0.00000E+00  9.000E+00
      25     1     1     2     0     0 -3.260354404E+02  3.983332666E+01 -1.177692655E+03  1.229012120E+03  1.250000000E+02  0.00000E+00  9.000E+00
      21     1     1     2   502   512  6.343352384E+01  2.271497025E+00 -6.189367341E+02  6.221829734E+02  7.629394531E-06  0.00000E+00  9.000E+00
#rwgt            1           1   2.8174861108177275E-002           4        2011           0
</event>
<event>
      5   9999  3.19816E-02  6.23484E+01 -1.00000E+00  1.33818E-01
      21    -1     0     0   502   511  0.000000000E+00  0.000000000E+00  2.007143938E+02  2.007143938E+02  0.000000000E+00  0.00000E+00  9.000E+00
      21    -1     0     0   501   502  0.000000000E+00  0.000000000E+00 -8.048576736E+02  8.048576736E+02  0.000000000E+00  0.00000E+00  9.000E+00
      25     1     1     2     0     0  3.468113295E+02 -9.481124248E+01 -3.098420967E+02  4.908099376E+02  1.250000000E+02  0.00000E+00  9.000E+00
      25     1     1     2     0     0 -2.949513777E+02  1.294214581E+02 -2.920082689E+02  4.523715930E+02  1.250000000E+02  0.00000E+00  9.000E+00
      21     1     1     2   501   511 -5.185995179E+01 -3.461021558E+01 -2.292914255E+00  6.239053677E+01  2.731427965E-07  0.00000E+00  9.000E+00
#rwgt            1           1   2.7504900008968675E-002           4        2099           0
</event>
<event>
      5   9999  3.19816E-02  1.80561E+02 -1.00000E+00  1.13289E-01
      21    -1     0     0   502   501  0.000000000E+00  0.000000000E+00  7.633727935E+02  7.633727935E+02  0.000000000E+00  0.00000E+00  9.000E+00
      21    -1     0     0   512   502  0.000000000E+00  0.000000000E+00 -1.021935426E+03  1.021935426E+03  0.000000000E+00  0.00000E+00  9.000E+00
      25     1     1     2     0     0 -1.571888728E+02  6.368502247E+02  7.620560251E+01  6.721003231E+02  1.250000000E+02  0.00000E+00  9.000E+00
      25     1     1     2     0     0  2.697819968E+02 -7.780064141E+02 -1.347002889E+02  8.437093540E+02  1.250000000E+02  0.00000E+00  9.000E+00
      21     1     1     2   512   501 -1.125931240E+02  1.411561894E+02 -2.000679461E+02  2.694985425E+02  3.814697266E-06  0.00000E+00  9.000E+00
#rwgt            1           1   3.0274205914104253E-002           4        2189           0
</event>
<event>
      5   9999  3.19816E-02  3.44800E+01 -1.00000E+00  1.48957E-01
      21    -1     0     0   511   501  0.000000000E+00  0.000000000E+00  2.224251887E+02  2.224251887E+02  0.000000000E+00  0.00000E+00  9.000E+00
      21    -1     0     0   501   502  0.000000000E+00  0.000000000E+00 -1.492850634E+03  1.492850634E+03  0.000000000E+00  0.00000E+00  9.000E+00
      25     1     1     2     0     0  3.427615154E+02  2.952420246E+02 -4.025910493E+02  6.183509218E+02  1.250000000E+02  0.00000E+00  9.000E+00
      25     1     1     2     0     0 -3.766087554E+02 -3.018173878E+02 -9.129111769E+02  1.040172922E+03  1.250000000E+02  0.00000E+00  9.000E+00
      21     1     1     2   511   502  3.384724002E+01  6.575363268E+00  4.507678042E+01  5.675197963E+01  1.907348633E-06  0.00000E+00  9.000E+00
#rwgt            1           1   2.7166261581614691E-002           4        2293           0
</event>
<event>
      5   9999  3.19816E-02  1.29570E+02 -1.00000E+00  1.18971E-01
      21    -1     0     0   502   501  0.000000000E+00  0.000000000E+00  6.556147533E+02  6.556147533E+02  0.000000000E+00  0.00000E+00  9.000E+00
      21    -1     0     0   512   502  0.000000000E+00  0.000000000E+00 -8.074999727E+02  8.074999727E+02  0.000000000E+00  0.00000E+00  9.000E+00
      25     1     1     2     0     0 -3.484620941E+02 -4.237599713E+01  5.250569843E+02  6.438411239E+02  1.250000000E+02  0.00000E+00  9.000E+00
      25     1     1     2     0     0  2.828574183E+02 -6.935824456E+01 -5.660233651E+02  6.487112879E+02  1.250000000E+02  0.00000E+00  9.000E+00
      21     1     1     2   512   501  6.560467578E+01  1.117342417E+02 -1.109188386E+02  1.705623142E+02  3.015782986E-06  0.00000E+00  9.000E+00
#rwgt            1           1   3.1868816453885743E-002           4        2443           0
</event>
<event>
      5   9999  3.19816E-02  1.18267E+01 -1.00000E+00  1.87695E-01
      21    -1     0     0   502   501  0.000000000E+00  0.000000000E+00  7.497619942E+01  7.497619942E+01  0.000000000E+00  0.00000E+00  9.000E+00
      21    -1     0     0   511   502  0.000000000E+00  0.000000000E+00 -8.249985451E+02  8.249985451E+02  0.000000000E+00  0.00000E+00  9.000E+00
      25     1     1     2     0     0 -1.672078773E+02 -4.690966028E+01 -5.399701508E+02  5.808198982E+02  1.250000000E+02  0.00000E+00  9.000E+00
      25     1     1     2     0     0  1.732701741E+02  3.675483215E+01 -1.646236928E+02  2.722121069E+02  1.250000000E+02  0.00000E+00  9.000E+00
      21     1     1     2   511   501 -6.062296808E+00  1.015482813E+01 -4.542850210E+01  4.694273937E+01  0.000000000E+00  0.00000E+00  9.000E+00
#rwgt            1           1   2.7339795451212793E-002           4        2544           0
</event>
<event>
      5   9999  3.19816E-02  1.24442E+02 -1.00000E+00  1.19702E-01
      21    -1     0     0   502   501  0.000000000E+00  0.000000000E+00  7.311848413E+02  7.311848413E+02  0.000000000E+00  0.00000E+00  9.000E+00
      21    -1     0     0   501   512  0.000000000E+00  0.000000000E+00 -1.036309234E+03  1.036309234E+03  0.000000000E+00  0.00000E+00  9.000E+00
      25     1     1     2     0     0 -1.915244584E+02  2.166979277E+02  6.136091809E+02  6.897686837E+02  1.250000000E+02  0.00000E+00  9.000E+00
      25     1     1     2     0     0  2.879070434E+02 -1.379818339E+02 -3.296092980E+02  4.756014523E+02  1.250000000E+02  0.00000E+00  9.000E+00
      21     1     1     2   502   512 -9.638258497E+01 -7.871609384E+01 -5.891242759E+02  6.021239396E+02  0.000000000E+00  0.00000E+00  9.000E+00
#rwgt            1           1   2.8298844347130217E-002           4        2684           0
</event>
<event>
      5   9999  3.19816E-02  2.06354E+02 -1.00000E+00  1.11156E-01
      -2    -1     0     0     0   501  0.000000000E+00  0.000000000E+00  2.344341890E+02  2.344341890E+02  0.000000000E+00  0.00000E+00  9.000E+00
      21    -1     0     0   501   502  0.000000000E+00  0.000000000E+00 -1.815381624E+03  1.815381624E+03  0.000000000E+00  0.00000E+00  9.000E+00
      25     1     1     2     0     0 -2.460857362E+02 -1.875604527E+01 -1.436678347E+03  1.463071992E+03  1.250000000E+02  0.00000E+00  9.000E+00
      25     1     1     2     0     0  1.998190044E+02 -1.823440214E+02 -2.162534689E+02  3.681949748E+02  1.250000000E+02  0.00000E+00  9.000E+00
      -2     1     1     2     0   502  4.626673173E+01  2.011000666E+02  7.198438121E+01  2.185488467E+02  0.000000000E+00  0.00000E+00  9.000E+00
#rwgt            1           1   2.7579231671744656E-002           4        2750           0
</event>
<event>
      5   9999  3.19816E-02  1.89824E+01 -1.00000E+00  1.68262E-01
      21    -1     0     0   502   511  0.000000000E+00  0.000000000E+00  4.885694457E+02  4.885694457E+02  0.000000000E+00  0.00000E+00  9.000E+00
      21    -1     0     0   501   502  0.000000000E+00  0.000000000E+00 -6.123044987E+02  6.123044987E+02  0.000000000E+00  0.00000E+00  9.000E+00
      25     1     1     2     0     0 -2.905436084E+01 -4.273338240E+02 -1.396738029E+02  4.675383666E+02  1.250000000E+02  0.00000E+00  9.000E+00
      25     1     1     2     0     0  1.860726982E+01  4.431828236E+02 -1.357786241E+02  4.804353030E+02  1.250000000E+02  0.00000E+00  9.000E+00
      21     1     1     2   501   511  1.044709102E+01 -1.584899960E+01  1.517173738E+02  1.529002748E+02  0.000000000E+00  0.00000E+00  9.000E+00
#rwgt            1           1   2.8633838903780604E-002           4        2817           0
</event>
<event>
      5   9999  3.19816E-02  3.73429E+02 -1.00000E+00  1.02592E-01
      21    -1     0     0   502   501  0.000000000E+00  0.000000000E+00  2.863265910E+02  2.863265910E+02  0.000000000E+00  0.00000E+00  9.000E+00
       2    -1     0     0   501     0  0.000000000E+00  0.000000000E+00 -7.432683913E+02  7.432683913E+02  0.000000000E+00  0.00000E+00  9.000E+00
      25     1     1     2     0     0 -8.112382934E+01  1.044615846E+01 -2.673957786E+02  3.062934873E+02  1.250000000E+02  0.00000E+00  9.000E+00
      25     1     1     2     0     0 -2.425626309E+02  1.757701822E+02 -8.981202840E+01  3.367832943E+02  1.250000000E+02  0.00000E+00  9.000E+00
       2     1     1     2   502     0  3.236864602E+02 -1.862163406E+02 -9.973399326E+01  3.865182007E+02  5.394796609E-06  0.00000E+00  9.000E+00
#rwgt            1           1   2.8443628204799145E-002           4        2982           0
</event>
<event>
      5   9999  3.19816E-02  3.22171E+01 -1.00000E+00  1.50920E-01
      21    -1     0     0   511   501  0.000000000E+00  0.000000000E+00  2.428742959E+02  2.428742959E+02  0.000000000E+00  0.00000E+00  9.000E+00
      21    -1     0     0   501   502  0.000000000E+00  0.000000000E+00 -6.241178465E+02  6.241178465E+02  0.000000000E+00  0.00000E+00  9.000E+00
      25     1     1     2     0     0 -2.884763984E+02  1.398517695E+02 -3.784823324E+02  5.115183533E+02  1.250000000E+02  0.00000E+00  9.000E+00
      25     1     1     2     0     0  2.682706197E+02 -1.147585500E+02 -2.157558621E+01  3.181652968E+02  1.250000000E+02  0.00000E+00  9.000E+00
      21     1     1     2   511   502  2.020577870E+01 -2.509321942E+01  1.881436792E+01  3.730849225E+01  9.536743164E-07  0.00000E+00  9.000E+00
#rwgt            1           1   2.8200204125537493E-002           4        3084           0
</event>
<event>
      5   9999  3.19816E-02  1.49723E+01 -1.00000E+00  1.77459E-01
      21    -1     0     0   502   501  0.000000000E+00  0.000000000E+00  3.007374091E+02  3.007374091E+02  0.000000000E+00  0.00000E+00  9.000E+00
      21    -1     0     0   512   502  0.000000000E+00  0.000000000E+00 -1.708938485E+02  1.708938485E+02  0.000000000E+00  0.00000E+00  9.000E+00
      25     1     1     2     0     0  1.841583086E+02 -1.304010832E+01  3.767591520E+01  2.261167876E+02  1.250000000E+02  0.00000E+00  9.000E+00
      25     1     1     2     0     0 -1.706094666E+02  1.941171148E+01  8.856056466E+01  2.301138376E+02  1.250000000E+02  0.00000E+00  9.000E+00
      21     1     1     2   512   501 -1.354884196E+01 -6.371603162E+00  3.607080716E+00  1.540063234E+01  1.976862425E-07  0.00000E+00  9.000E+00
#rwgt            1           1   2.8919221097147486E-002           4        3214           0
</event>
<event>
      5   9999  3.19816E-02  3.59789E+01 -1.00000E+00  1.47753E-01
      21    -1     0     0   502   501  0.000000000E+00  0.000000000E+00  2.437878359E+02  2.437878359E+02  0.000000000E+00  0.00000E+00  9.000E+00
      21    -1     0     0   501   511  0.000000000E+00  0.000000000E+00 -3.420034910E+02  3.420034910E+02  0.000000000E+00  0.00000E+00  9.000E+00
      25     1     1     2     0     0  3.857384032E+01  1.068558428E+01  2.006231279E+02  2.397431173E+02  1.250000000E+02  0.00000E+00  9.000E+00
      25     1     1     2     0     0 -4.676123193E+01  2.434935208E+01 -2.078668198E+02  2.482198995E+02  1.250000000E+02  0.00000E+00  9.000E+00
      21     1     1     2   502   511  8.187391613E+00 -3.503493636E+01 -9.097196326E+01  9.782831005E+01  0.000000000E+00  0.00000E+00  9.000E+00
#rwgt            1           1   2.6985305000850363E-002           4        3418           0
</event>
<event>
      5   9999  3.19816E-02  4.60279E+01 -1.00000E+00  1.41158E-01
      21    -1     0     0   502   501  0.000000000E+00  0.000000000E+00  1.793003536E+02  1.793003536E+02  0.000000000E+00  0.00000E+00  9.000E+00
      21    -1     0     0   512   502  0.000000000E+00  0.000000000E+00 -8.165647217E+02  8.165647217E+02  0.000000000E+00  0.00000E+00  9.000E+00
      25     1     1     2     0     0 -1.084374959E+02  8.706972129E+01  6.013652366E+00  1.870855176E+02  1.250000000E+02  0.00000E+00  9.000E+00
      25     1     1     2     0     0  1.494438211E+02 -6.616392064E+01 -4.742600968E+01  2.111524247E+02  1.250000000E+02  0.00000E+00  9.000E+00
      21     1     1     2   512   501 -4.100632527E+01 -2.090580065E+01 -5.958520109E+02  5.976271330E+02  1.321449896E-05  0.00000E+00  9.000E+00
#rwgt            1           1   2.7257388068288931E-002           4        3506           0
</event>
<event>
      5   9999  3.19816E-02  5.14242E+01 -1.00000E+00  1.38383E-01
      21    -1     0     0   511   501  0.000000000E+00  0.000000000E+00  3.607583944E+02  3.607583944E+02  0.000000000E+00  0.00000E+00  9.000E+00
      21    -1     0     0   501   502  0.000000000E+00  0.000000000E+00 -1.951387981E+02  1.951387981E+02  0.000000000E+00  0.00000E+00  9.000E+00
      25     1     1     2     0     0  1.128917558E+02  7.825892577E+01  1.390179979E+02  2.319914044E+02  1.250000000E+02  0.00000E+00  9.000E+00
      25     1     1     2     0     0 -1.636683784E+02 -7.012367108E+01 -5.777397767E+01  2.250944243E+02  1.250000000E+02  0.00000E+00  9.000E+00
      21     1     1     2   511   502  5.077662261E+01 -8.135254688E+00  8.437557611E+01  9.881136380E+01  9.536743164E-07  0.00000E+00  9.000E+00
#rwgt            1           1   2.5617077820983103E-002           4        3586           0
</event>
<event>
      5   9999  3.19816E-02  1.27400E+02 -1.00000E+00  1.19275E-01
      21    -1     0     0   502   512  0.000000000E+00  0.000000000E+00  4.501925559E+02  4.501925559E+02  0.000000000E+00  0.00000E+00  9.000E+00
      21    -1     0     0   501   502  0.000000000E+00  0.000000000E+00 -1.595788341E+02  1.595788341E+02  0.000000000E+00  0.00000E+00  9.000E+00
      25     1     1     2     0     0 -3.421912553E+00  1.186193253E+02  1.306276490E+02  2.162656619E+02  1.250000000E+02  0.00000E+00  9.000E+00
      25     1     1     2     0     0  1.252116378E+02 -8.122804605E+01  7.531915052E+00  1.948273067E+02  1.250000000E+02  0.00000E+00  9.000E+00
      21     1     1     2   501   512 -1.217897252E+02 -3.739127930E+01  1.524541577E+02  1.986784215E+02  1.907348633E-06  0.00000E+00  9.000E+00
#rwgt            1           1   2.4649514823550000E-002           4        3714           0
</event>
<event>
      5   9999  3.19816E-02  1.58581E+02 -1.00000E+00  1.15444E-01
      21    -1     0     0   502   501  0.000000000E+00  0.000000000E+00  4.041382902E+02  4.041382902E+02  0.000000000E+00  0.00000E+00  9.000E+00
      21    -1     0     0   501   511  0.000000000E+00  0.000000000E+00 -1.630917547E+03  1.630917547E+03  0.000000000E+00  0.00000E+00  9.000E+00
      25     1     1     2     0     0 -4.893513291E+02 -5.599110549E+02 -8.569216686E+02  1.141448579E+03  1.250000000E+02  0.00000E+00  9.000E+00
      25     1     1     2     0     0  3.891429174E+02  4.370035069E+02 -1.402717895E+02  6.145774566E+02  1.250000000E+02  0.00000E+00  9.000E+00
      21     1     1     2   502   511  1.002084117E+02  1.229075480E+02 -2.295857986E+02  2.790298014E+02  2.697398305E-06  0.00000E+00  9.000E+00
#rwgt            1           1   3.4047637838308498E-002           4        3756           0
</event>
<event>
      5   9999  3.19816E-02  8.95585E+01 -1.00000E+00  1.26021E-01
       1    -1     0     0   502     0  0.000000000E+00  0.000000000E+00  2.657705447E+03  2.657705447E+03  0.000000000E+00  0.00000E+00  9.000E+00
      21    -1     0     0   501   502  0.000000000E+00  0.000000000E+00 -1.770725487E+02  1.770725487E+02  0.000000000E+00  0.00000E+00  9.000E+00
      25     1     1     2     0     0  1.560740815E+02  4.161299464E+02  4.311479894E+02  6.316936283E+02  1.250000000E+02  0.00000E+00  9.000E+00
      25     1     1     2     0     0 -1.062300004E+02 -3.417236430E+02  3.996559315E+02  5.508264017E+02  1.250000000E+02  0.00000E+00  9.000E+00
       1     1     1     2   501     0 -4.984408109E+01 -7.440630342E+01  1.649828977E+03  1.652257966E+03  3.051757812E-05  0.00000E+00  9.000E+00
#rwgt            2          17   4.9187795956312183E-004           4        3937           0
</event>
<event>
      5   9999  3.19816E-02  2.24092E+01 -1.00000E+00  1.62394E-01
      21    -1     0     0   511   501  0.000000000E+00  0.000000000E+00  1.139457037E+02  1.139457037E+02  0.000000000E+00  0.00000E+00  9.000E+00
      21    -1     0     0   501   502  0.000000000E+00  0.000000000E+00 -8.809937074E+02  8.809937074E+02  0.000000000E+00  0.00000E+00  9.000E+00
      25     1     1     2     0     0  1.847905131E+02 -4.243289587E+00 -1.185264385E+02  2.526639188E+02  1.250000000E+02  0.00000E+00  9.000E+00
      25     1     1     2     0     0 -1.993260811E+02 -1.281213832E+01 -6.706156534E+02  7.108061565E+02  1.250000000E+02  0.00000E+00  9.000E+00
      21     1     1     2   511   502  1.453556804E+01  1.705542791E+01  2.209408828E+01  3.146933581E+01  1.118282261E-06  0.00000E+00  9.000E+00
#rwgt            1           1   3.0632893557284321E-002           4        3971           0
</event>
<event>
      5   9999  3.19816E-02  2.71216E+01 -1.00000E+00  1.56146E-01
      21    -1     0     0   502   512  0.000000000E+00  0.000000000E+00  1.734599964E+02  1.734599964E+02  0.000000000E+00  0.00000E+00  9.000E+00
      21    -1     0     0   501   502  0.000000000E+00  0.000000000E+00 -3.226919503E+02  3.226919503E+02  0.000000000E+00  0.00000E+00  9.000E+00
      25     1     1     2     0     0  2.955847991E+01  1.333050075E+02 -2.207160591E+02  2.880703169E+02  1.250000000E+02  0.00000E+00  9.000E+00
      25     1     1     2     0     0 -2.529771930E+01 -1.065202099E+02  5.013559310E+01  1.735658590E+02  1.250000000E+02  0.00000E+00  9.000E+00
      21     1     1     2   501   512 -4.260760613E+00 -2.678479764E+01  2.134851202E+01  3.451577076E+01  2.384185791E-07  0.00000E+00  9.000E+00
#rwgt            1           1   3.0424154309541079E-002           4        4108           0
</event>
<event>
      5   9999  3.19816E-02  1.33223E+02 -1.00000E+00  1.18472E-01
      21    -1     0     0   502   501  0.000000000E+00  0.000000000E+00  2.862759862E+02  2.862759862E+02  0.000000000E+00  0.00000E+00  9.000E+00
      21    -1     0     0   511   502  0.000000000E+00  0.000000000E+00 -3.542998488E+02  3.542998488E+02  0.000000000E+00  0.00000E+00  9.000E+00
      25     1     1     2     0     0  7.174929791E+01 -9.598466792E+01 -1.009706303E+02  2.004522048E+02  1.250000000E+02  0.00000E+00  9.000E+00
      25     1     1     2     0     0  5.641090597E+01  1.323637786E+02  1.653288119E+02  2.523112686E+02  1.250000000E+02  0.00000E+00  9.000E+00
      21     1     1     2   511   501 -1.281602039E+02 -3.637911073E+01 -1.323820442E+02  1.878123616E+02  3.303624740E-06  0.00000E+00  9.000E+00
#rwgt            1           1   2.7848502188201639E-002           4        4248           0
</event>
<event>
      5   9999  3.19816E-02  5.65171E+01 -1.00000E+00  1.36106E-01
      21    -1     0     0   502   501  0.000000000E+00  0.000000000E+00  9.462281907E+02  9.462281907E+02  0.000000000E+00  0.00000E+00  9.000E+00
      21    -1     0     0   512   502  0.000000000E+00  0.000000000E+00 -1.568940219E+02  1.568940219E+02  0.000000000E+00  0.00000E+00  9.000E+00
      25     1     1     2     0     0  9.616896129E+01 -1.184816423E+02 -3.325679339E+01  2.000434527E+02  1.250000000E+02  0.00000E+00  9.000E+00
      25     1     1     2     0     0 -1.440558304E+02  8.846444979E+01  8.199763666E+02  8.465012008E+02  1.250000000E+02  0.00000E+00  9.000E+00
      21     1     1     2   512   501  4.788686913E+01  3.001719246E+01  2.614595499E+00  5.657755905E+01  9.291444581E-07  0.00000E+00  9.000E+00
#rwgt            1           1   2.8861048625886249E-002           4        4310           0
</event>
<event>
      5   9999  5.51599E-02  8.94616E+01 -1.00000E+00  1.26043E-01
      -2    -1     0     0     0   501  0.000000000E+00  0.000000000E+00  4.922464335E+02  4.922464335E+02  0.000000000E+00  0.00000E+00  9.000E+00
      21    -1     0     0   501   502  0.000000000E+00  0.000000000E+00 -1.765885892E+03  1.765885892E+03  0.000000000E+00  0.00000E+00  9.000E+00
      25     1     1     2     0     0 -2.501837056E+01  2.987083111E+02 -1.117984970E+03  1.164202718E+03  1.250000000E+02  0.00000E+00  9.000E+00
      25     1     1     2     0     0 -3.259012378E+01 -2.302638744E+02 -5.921586852E+02  6.483521238E+02  1.250000000E+02  0.00000E+00  9.000E+00
      -2     1     1     2     0   502  5.760849434E+01 -6.844443672E+01  4.365041974E+02  4.455774836E+02  9.344061824E-06  0.00000E+00  9.000E+00
#rwgt            2           4   5.5401605475284285E-003           4        4547           0
</event>
<event>
      5   9999  3.19816E-02  2.26772E+01 -1.00000E+00  1.61990E-01
       1    -1     0     0   502     0  0.000000000E+00  0.000000000E+00  1.747241366E+02  1.747241366E+02  0.000000000E+00  0.00000E+00  9.000E+00
      21    -1     0     0   501   502  0.000000000E+00  0.000000000E+00 -5.709068954E+02  5.709068954E+02  0.000000000E+00  0.00000E+00  9.000E+00
      25     1     1     2     0     0 -2.428334176E+02 -1.510034075E+02 -1.726770320E+02  3.566685509E+02  1.250000000E+02  0.00000E+00  9.000E+00
      25     1     1     2     0     0  2.204275561E+02  1.475060323E+02 -2.186832367E+02  3.657782047E+02  1.250000000E+02  0.00000E+00  9.000E+00
       1     1     1     2   501     0  2.240586154E+01  3.497375215E+00 -4.822490136E+00  2.318427648E+01  1.032382731E-07  0.00000E+00  9.000E+00
#rwgt            1           1   2.7011222023926681E-002           4        4566           0
</event>
<event>
      5   9999  3.19816E-02  1.50606E+02 -1.00000E+00  1.16324E-01
      21    -1     0     0   502   501  0.000000000E+00  0.000000000E+00  8.107212181E+02  8.107212181E+02  0.000000000E+00  0.00000E+00  9.000E+00
       2    -1     0     0   501     0  0.000000000E+00  0.000000000E+00 -3.624709587E+03  3.624709587E+03  0.000000000E+00  0.00000E+00  9.000E+00
      25     1     1     2     0     0 -3.233089587E+02 -1.274955562E+02  1.143221141E+01  3.695125101E+02  1.250000000E+02  0.00000E+00  9.000E+00
      25     1     1     2     0     0  4.387051310E+02  3.071738062E+01  5.340792156E+02  7.030443500E+02  1.250000000E+02  0.00000E+00  9.000E+00
       2     1     1     2   502     0 -1.153961723E+02  9.677817561E+01 -3.359499796E+03  3.362873945E+03  0.000000000E+00  0.00000E+00  9.000E+00
#rwgt            1           1   2.7680680587154748E-002           4        4757           0
</event>
<event>
      5   9999  3.19816E-02  7.44437E+01 -1.00000E+00  1.29881E-01
      21    -1     0     0   502   511  0.000000000E+00  0.000000000E+00  3.737898111E+02  3.737898111E+02  0.000000000E+00  0.00000E+00  9.000E+00
      21    -1     0     0   501   502  0.000000000E+00  0.000000000E+00 -3.318154382E+03  3.318154382E+03  0.000000000E+00  0.00000E+00  9.000E+00
      25     1     1     2     0     0  2.610427778E+02 -2.719860291E+01  1.510641248E+02  3.276102343E+02  1.250000000E+02  0.00000E+00  9.000E+00
      25     1     1     2     0     0 -2.140947846E+02  8.497181503E+01 -3.213817330E+03  3.224485015E+03  1.250000000E+02  0.00000E+00  9.000E+00
      21     1     1     2   501   511 -4.694799317E+01 -5.777321212E+01  1.183886344E+02  1.398489430E+02  3.303624740E-06  0.00000E+00  9.000E+00
#rwgt            1           1   4.6278064185062598E-002           4        4824           0
</event>
<event>
      5   9999  3.19816E-02  4.31314E+01 -1.00000E+00  1.42839E-01
      21    -1     0     0   502   512  0.000000000E+00  0.000000000E+00  1.492923604E+02  1.492923604E+02  0.000000000E+00  0.00000E+00  9.000E+00
      21    -1     0     0   501   502  0.000000000E+00  0.000000000E+00 -3.916001477E+02  3.916001477E+02  0.000000000E+00  0.00000E+00  9.000E+00
      25     1     1     2     0     0 -2.255539138E+01  4.108706200E+01 -1.043718518E+01  1.339060386E+02  1.250000000E+02  0.00000E+00  9.000E+00
      25     1     1     2     0     0  8.477227725E+00 -3.179444682E-01 -3.007016240E+02  3.257582404E+02  1.250000000E+02  0.00000E+00  9.000E+00
      21     1     1     2   501   512  1.407816365E+01 -4.076911754E+01  6.883102186E+01  8.122822912E+01  1.348699152E-06  0.00000E+00  9.000E+00
#rwgt            1           1   2.8025454072474594E-002           4        4908           0
</event>
<event>
      5   9999  3.19816E-02  2.26348E+01 -1.00000E+00  1.62053E-01
      21    -1     0     0   502   501  0.000000000E+00  0.000000000E+00  2.334737043E+02  2.334737043E+02  0.000000000E+00  0.00000E+00  9.000E+00
      21    -1     0     0   501   511  0.000000000E+00  0.000000000E+00 -5.709911161E+02  5.709911161E+02  0.000000000E+00  0.00000E+00  9.000E+00
      25     1     1     2     0     0  7.289734909E+01 -1.570943474E+02 -3.531260304E+02  4.126931679E+02  1.250000000E+02  0.00000E+00  9.000E+00
      25     1     1     2     0     0 -9.518041758E+01  1.610693767E+02  1.402199454E+02  2.651212724E+02  1.250000000E+02  0.00000E+00  9.000E+00
      21     1     1     2   502   511  2.228306848E+01 -3.975029296E+00 -1.246113268E+02  1.266503801E+02  1.348699152E-06  0.00000E+00  9.000E+00
#rwgt            1           1   2.7069007635923643E-002           4        5028           0
</event>
<event>
      5   9999  3.19816E-02  1.48754E+02 -1.00000E+00  1.16537E-01
      21    -1     0     0   502   501  0.000000000E+00  0.000000000E+00  5.193028514E+02  5.193028514E+02  0.000000000E+00  0.00000E+00  9.000E+00
      21    -1     0     0   501   512  0.000000000E+00  0.000000000E+00 -2.278777110E+02  2.278777110E+02  0.000000000E+00  0.00000E+00  9.000E+00
      25     1     1     2     0     0  1.618500052E+02  1.888262757E+01  3.638325933E+02  4.177931711E+02  1.250000000E+02  0.00000E+00  9.000E+00
      25     1     1     2     0     0 -1.386109376E+01 -3.395504718E+01  4.715279390E+01  1.385404675E+02  1.250000000E+02  0.00000E+00  9.000E+00
      21     1     1     2   502   512 -1.479889115E+02  1.507241960E+01 -1.195602468E+02  1.908469239E+02  3.303624740E-06  0.00000E+00  9.000E+00
#rwgt            1           1   3.1143618411842919E-002           4        5170           0
</event>
<event>
      5   9999  3.19816E-02  9.00939E+01 -1.00000E+00  1.25900E-01
      21    -1     0     0   502   501  0.000000000E+00  0.000000000E+00  4.188287486E+02  4.188287486E+02  0.000000000E+00  0.00000E+00  9.000E+00
      21    -1     0     0   501   511  0.000000000E+00  0.000000000E+00 -6.227983171E+02  6.227983171E+02  0.000000000E+00  0.00000E+00  9.000E+00
      25     1     1     2     0     0  3.569697821E+01 -1.363040533E+02 -2.488423505E+01  1.899928797E+02  1.250000000E+02  0.00000E+00  9.000E+00
      25     1     1     2     0     0  5.149033957E+01  1.590040777E+02  2.992760836E+02  3.648626125E+02  1.250000000E+02  0.00000E+00  9.000E+00
      21     1     1     2   502   511 -8.718731777E+01 -2.270002442E+01 -4.783614170E+02  4.867715735E+02  7.629394531E-06  0.00000E+00  9.000E+00
#rwgt            1           1   2.7652530227117139E-002           4        5212           0
</event>
<event>
      5   9999  3.19816E-02  3.20175E+01 -1.00000E+00  1.51102E-01
      21    -1     0     0   512   501  0.000000000E+00  0.000000000E+00  6.154937935E+02  6.154937935E+02  0.000000000E+00  0.00000E+00  9.000E+00
      21    -1     0     0   501   502  0.000000000E+00  0.000000000E+00 -4.010009162E+02  4.010009162E+02  0.000000000E+00  0.00000E+00  9.000E+00
      25     1     1     2     0     0 -2.052693944E+02 -3.718605838E+02  1.148230744E+02  4.574113646E+02  1.250000000E+02  0.00000E+00  9.000E+00
      25     1     1     2     0     0  2.372426029E+02  3.735437821E+02  5.761001983E+00  4.598665012E+02  1.250000000E+02  0.00000E+00  9.000E+00
      21     1     1     2   512   502 -3.197320846E+01 -1.683198321E+00  9.390880091E+01  9.921684385E+01  1.348699152E-06  0.00000E+00  9.000E+00
#rwgt            1           1   2.7582056292416682E-002           4        5266           0
</event>
<event>
      5   9999  3.19816E-02  4.86863E+01 -1.00000E+00  1.39739E-01
      21    -1     0     0   511   501  0.000000000E+00  0.000000000E+00  3.062020533E+02  3.062020533E+02  0.000000000E+00  0.00000E+00  9.000E+00
      21    -1     0     0   501   502  0.000000000E+00  0.000000000E+00 -3.531241826E+02  3.531241826E+02  0.000000000E+00  0.00000E+00  9.000E+00
      25     1     1     2     0     0 -1.324488287E+02  1.845331831E+02 -2.166865521E+02  3.378953237E+02  1.250000000E+02  0.00000E+00  9.000E+00
      25     1     1     2     0     0  9.641671661E+01 -1.517911336E+02  1.123034469E+02  2.461174428E+02  1.250000000E+02  0.00000E+00  9.000E+00
      21     1     1     2   511   502  3.603211211E+01 -3.274204955E+01  5.746097590E+01  7.531346933E+01  0.000000000E+00  0.00000E+00  9.000E+00
#rwgt            1           1   2.3768969542884575E-002           4        5411           0
</event>
<event>
      5   9999  3.19816E-02  2.47742E+01 -1.00000E+00  1.59047E-01
      21    -1     0     0   502   512  0.000000000E+00  0.000000000E+00  3.928258888E+02  3.928258888E+02  0.000000000E+00  0.00000E+00  9.000E+00
      21    -1     0     0   501   502  0.000000000E+00  0.000000000E+00 -1.581911278E+03  1.581911278E+03  0.000000000E+00  0.00000E+00  9.000E+00
      25     1     1     2     0     0 -3.815632588E+02  6.218963276E+00  2.263789251E+02  4.609789731E+02  1.250000000E+02  0.00000E+00  9.000E+00
      25     1     1     2     0     0  3.965282872E+02 -2.596248431E+01 -1.426905321E+03  1.486469821E+03  1.250000000E+02  0.00000E+00  9.000E+00
      21     1     1     2   501   512 -1.496502840E+01  1.974352104E+01  1.144100614E+01  2.728837334E+01  1.685873940E-07  0.00000E+00  9.000E+00
#rwgt            1           1   2.7745298953243125E-002           4        5543           0
</event>
<event>
      5   9999  3.19816E-02  1.20155E+01 -1.00000E+00  1.86969E-01
      21    -1     0     0   502   501  0.000000000E+00  0.000000000E+00  1.096632230E+02  1.096632230E+02  0.000000000E+00  0.00000E+00  9.000E+00
      21    -1     0     0   511   502  0.000000000E+00  0.000000000E+00 -3.167280309E+02  3.167280309E+02  0.000000000E+00  0.00000E+00  9.000E+00
      25     1     1     2     0     0  8.623086388E+01 -6.091349052E+01 -9.585751569E+01  1.896309008E+02  1.250000000E+02  0.00000E+00  9.000E+00
      25     1     1     2     0     0 -7.637223602E+01  6.778217659E+01 -4.236041717E+01  1.668728463E+02  1.250000000E+02  0.00000E+00  9.000E+00
      21     1     1     2   511   501 -9.858627852E+00 -6.868686078E+00 -6.884687510E+01  6.988750677E+01  9.536743164E-07  0.00000E+00  9.000E+00
#rwgt            1           1   2.3901759224746980E-002           4        5811           0
</event>
<event>
      5   9999  3.19816E-02  3.08230E+01 -1.00000E+00  1.52228E-01
      21    -1     0     0   502   501  0.000000000E+00  0.000000000E+00  9.919406480E+01  9.919406480E+01  0.000000000E+00  0.00000E+00  9.000E+00
      21    -1     0     0   501   512  0.000000000E+00  0.000000000E+00 -8.069229949E+02  8.069229949E+02  0.000000000E+00  0.00000E+00  9.000E+00
      25     1     1     2     0     0  1.789069064E+02 -8.299612026E+01 -2.042593688E+02  3.102304416E+02  1.250000000E+02  0.00000E+00  9.000E+00
      25     1     1     2     0     0 -1.505848932E+02  9.515844222E+01 -2.154637503E+02  3.062361293E+02  1.250000000E+02  0.00000E+00  9.000E+00
      21     1     1     2   502   512 -2.832201320E+01 -1.216232196E+01 -2.880058111E+02  2.896504889E+02  0.000000000E+00  0.00000E+00  9.000E+00
#rwgt            1           1   3.1497234407166418E-002           4        5939           0
</event>
<event>
      5   9999  3.19816E-02  4.02744E+01 -1.00000E+00  1.44656E-01
      21    -1     0     0   502   501  0.000000000E+00  0.000000000E+00  6.290731025E+02  6.290731025E+02  0.000000000E+00  0.00000E+00  9.000E+00
      21    -1     0     0   501   511  0.000000000E+00  0.000000000E+00 -1.716367223E+02  1.716367223E+02  0.000000000E+00  0.00000E+00  9.000E+00
      25     1     1     2     0     0  2.355982856E+02 -5.403794554E+01  2.748320902E+02  3.867613340E+02  1.250000000E+02  0.00000E+00  9.000E+00
      25     1     1     2     0     0 -2.732295020E+02  3.968803425E+01  2.068536346E+02  3.669372248E+02  1.250000000E+02  0.00000E+00  9.000E+00
      21     1     1     2   502   511  3.763121643E+01  1.434991129E+01 -2.424934461E+01  4.701126586E+01  7.539457465E-07  0.00000E+00  9.000E+00
#rwgt            1           1   2.8290300275034475E-002           4        6092           0
</event>
<event>
      5   9999  3.19816E-02  2.72036E+02 -1.00000E+00  1.06991E-01
      21    -1     0     0   502   501  0.000000000E+00  0.000000000E+00  2.276304265E+02  2.276304265E+02  0.000000000E+00  0.00000E+00  9.000E+00
       2    -1     0     0   501     0  0.000000000E+00  0.000000000E+00 -4.307578071E+03  4.307578071E+03  0.000000000E+00  0.00000E+00  9.000E+00
      25     1     1     2     0     0  7.762392930E+01  3.167039068E+02 -4.524994278E+02  5.715833895E+02  1.250000000E+02  0.00000E+00  9.000E+00
      25     1     1     2     0     0 -1.916108888E+02 -5.637073343E+02 -4.075566476E+02  7.322623249E+02  1.250000000E+02  0.00000E+00  9.000E+00
       2     1     1     2   502     0  1.139869595E+02  2.470034275E+02 -3.219891569E+03  3.231362783E+03  4.315837288E-05  0.00000E+00  9.000E+00
#rwgt            2          13   9.1342605088370985E-004           4        6250           0
</event>
<event>
      5   9999  3.19816E-02  3.84627E+01 -1.00000E+00  1.45904E-01
       5    -1     0     0   502     0  0.000000000E+00  0.000000000E+00  6.342874988E+01  6.342874988E+01  0.000000000E+00  0.00000E+00  9.000E+00
      21    -1     0     0   501   502  0.000000000E+00  0.000000000E+00 -1.346195298E+03  1.346195298E+03  0.000000000E+00  0.00000E+00  9.000E+00
      25     1     1     2     0     0 -9.799704804E+01 -2.319087044E+02 -4.916653606E+02  5.663434430E+02  1.250000000E+02  0.00000E+00  9.000E+00
      25     1     1     2     0     0  1.043723984E+02  1.939780355E+02 -6.990640044E+02  7.435297963E+02  1.250000000E+02  0.00000E+00  9.000E+00
       5     1     1     2   501     0 -6.375350313E+00  3.793066892E+01 -9.203718334E+01  9.975080878E+01  2.336015456E-06  0.00000E+00  9.000E+00
#rwgt            1           1   2.9784974914833715E-002           4        6284           0
</event>
<event>
      5   9999  3.19816E-02  2.66131E+02 -1.00000E+00  1.07310E-01
      21    -1     0     0   502   511  0.000000000E+00  0.000000000E+00  2.280045912E+03  2.280045912E+03  0.000000000E+00  0.00000E+00  9.000E+00
      21    -1     0     0   501   502  0.000000000E+00  0.000000000E+00 -1.152297186E+03  1.152297186E+03  0.000000000E+00  0.00000E+00  9.000E+00
      25     1     1     2     0     0  2.889249553E+02  3.312524561E+02  5.570847932E+02  7.205374982E+02  1.250000000E+02  0.00000E+00  9.000E+00
      25     1     1     2     0     0 -4.462716294E+02 -5.458865516E+02 -9.378625963E+02  1.179983790E+03  1.250000000E+02  0.00000E+00  9.000E+00
      21     1     1     2   501   511  1.573466741E+02  2.146340955E+02  1.508526529E+03  1.531821810E+03  3.051757812E-05  0.00000E+00  9.000E+00
#rwgt            1           1   2.7555802101321188E-002           4        6418           0
</event>
<event>
      5   9999  3.19816E-02  4.60216E+01 -1.00000E+00  1.41162E-01
      21    -1     0     0   502   501  0.000000000E+00  0.000000000E+00  7.865727210E+01  7.865727210E+01  0.000000000E+00  0.00000E+00  9.000E+00
      21    -1     0     0   512   502  0.000000000E+00  0.000000000E+00 -6.170689861E+02  6.170689861E+02  0.000000000E+00  0.00000E+00  9.000E+00
      25     1     1     2     0     0  1.242899170E+01 -2.131901754E+01 -2.478083702E+00  1.274367343E+02  1.250000000E+02  0.00000E+00  9.000E+00
      25     1     1     2     0     0 -4.934907357E+01  4.879443299E+01 -4.014752322E+02  4.261731923E+02  1.250000000E+02  0.00000E+00  9.000E+00
      21     1     1     2   512   501  3.692008187E+01 -2.747541545E+01 -1.344583980E+02  1.421163316E+02  0.000000000E+00  0.00000E+00  9.000E+00
#rwgt            1           1   2.7976497578557632E-002           4        6471           0
</event>
<event>
      5   9999  3.19816E-02  4.84528E+01 -1.00000E+00  1.39859E-01
       2    -1     0     0   502     0  0.000000000E+00  0.000000000E+00  3.596485105E+02  3.596485105E+02  0.000000000E+00  0.00000E+00  9.000E+00
      21    -1     0     0   501   502  0.000000000E+00  0.000000000E+00 -1.373283014E+03  1.373283014E+03  0.000000000E+00  0.00000E+00  9.000E+00
      25     1     1     2     0     0 -4.824213958E+01  1.100412066E+02 -1.626173932E+01  1.741430887E+02  1.250000000E+02  0.00000E+00  9.000E+00
      25     1     1     2     0     0  9.445651872E+01 -1.245981819E+02 -1.268078103E+03  1.283781063E+03  1.250000000E+02  0.00000E+00  9.000E+00
       2     1     1     2   501     0 -4.621437915E+01  1.455697535E+01  2.707053394E+02  2.750073729E+02  7.629394531E-06  0.00000E+00  9.000E+00
#rwgt            1           1   3.0418610008043804E-002           4        6601           0
</event>
<event>
      5   9999  3.19816E-02  2.72876E+02 -1.00000E+00  1.06947E-01
       2    -1     0     0   502     0  0.000000000E+00  0.000000000E+00  3.654890266E+03  3.654890266E+03  0.000000000E+00  0.00000E+00  9.000E+00
      21    -1     0     0   501   502  0.000000000E+00  0.000000000E+00 -8.549766421E+01  8.549766421E+01  0.000000000E+00  0.00000E+00  9.000E+00
      25     1     1     2     0     0  4.388493759E+01  1.065581134E+02  4.752780353E+02  5.047719585E+02  1.250000000E+02  0.00000E+00  9.000E+00
      25     1     1     2     0     0 -2.913293860E+02 -2.215912868E+02  5.252260100E+02  6.522751498E+02  1.250000000E+02  0.00000E+00  9.000E+00
       2     1     1     2   501     0  2.474444484E+02  1.150331734E+02  2.568888557E+03  2.583340822E+03  0.000000000E+00  0.00000E+00  9.000E+00
#rwgt            1           1   2.9600422057348964E-002           4        6749           0
</event>
<event>
      5   9999  3.19816E-02  7.82324E+01 -1.00000E+00  1.28821E-01
      21    -1     0     0   502   501  0.000000000E+00  0.000000000E+00  6.901766558E+02  6.901766558E+02  0.000000000E+00  0.00000E+00  9.000E+00
       1    -1     0     0   501     0  0.000000000E+00  0.000000000E+00 -8.586409483E+02  8.586409483E+02  0.000000000E+00  0.00000E+00  9.000E+00
      25     1     1     2     0     0 -2.437130950E+02 -1.661882261E+01  6.146645350E+02  6.731342723E+02  1.250000000E+02  0.00000E+00  9.000E+00
      25     1     1     2     0     0  1.657344329E+02  1.032292185E+01 -2.037819906E+02  2.910782792E+02  1.250000000E+02  0.00000E+00  9.000E+00
       1     1     1     2   502     0  7.797866207E+01  6.295900759E+00 -5.793468369E+02  5.846050526E+02  1.078959322E-05  0.00000E+00  9.000E+00
#rwgt            1           1   3.1377896200179542E-002           4        6780           0
</event>
<event>
      5   9999  3.19816E-02  7.38896E+01 -1.00000E+00  1.30042E-01
      21    -1     0     0   502   501  0.000000000E+00  0.000000000E+00  3.024840671E+03  3.024840671E+03  0.000000000E+00  0.00000E+00  9.000E+00
      21    -1     0     0   501   511  0.000000000E+00  0.000000000E+00 -3.358422759E+02  3.358422759E+02  0.000000000E+00  0.00000E+00  9.000E+00
      25     1     1     2     0     0  8.243448556E+02  1.334375228E+02  1.941359368E+03  2.117038311E+03  1.250000000E+02  0.00000E+00  9.000E+00
      25     1     1     2     0     0 -7.561951013E+02 -1.619907244E+02  8.242972507E+02  1.137173243E+03  1.250000000E+02  0.00000E+00  9.000E+00
      21     1     1     2   502   511 -6.814975423E+01  2.855320164E+01 -7.665822387E+01  1.064713934E+02  2.861022949E-06  0.00000E+00  9.000E+00
#rwgt            1           1   2.5676777518951827E-002           4        6845           0
</event>
<event>
      5   9999  3.19816E-02  7.17226E+01 -1.00000E+00  1.30688E-01
      21    -1     0     0   502   501  0.000000000E+00  0.000000000E+00  2.037947935E+03  2.037947935E+03  0.000000000E+00  0.00000E+00  9.000E+00
      21    -1     0     0   512   502  0.000000000E+00  0.000000000E+00 -6.168414833E+01  6.168414833E+01  0.000000000E+00  0.00000E+00  9.000E+00
      25     1     1     2     0     0  3.075233401E+02  2.812260495E+01  1.154268739E+03  1.201383705E+03  1.250000000E+02  0.00000E+00  9.000E+00
      25     1     1     2     0     0 -2.600299744E+02  2.562233593E+01  6.816857930E+02  7.406703801E+02  1.250000000E+02  0.00000E+00  9.000E+00
      21     1     1     2   512   501 -4.749336576E+01 -5.374494088E+01  1.403092550E+02  1.575779981E+02  1.907348633E-06  0.00000E+00  9.000E+00
#rwgt            1           1   3.2270805548326814E-002           4        6963           0
</event>
<event>
      5   9999  3.19816E-02  3.05711E+01 -1.00000E+00  1.52473E-01
       1    -1     0     0   502     0  0.000000000E+00  0.000000000E+00  1.937293160E+03  1.937293160E+03  0.000000000E+00  0.00000E+00  9.000E+00
      21    -1     0     0   501   502  0.000000000E+00  0.000000000E+00 -3.398273842E+02  3.398273842E+02  0.000000000E+00  0.00000E+00  9.000E+00
      25     1     1     2     0     0  4.107398724E+01  5.090328046E+02  6.642305075E+02  8.471296452E+02  1.250000000E+02  0.00000E+00  9.000E+00
      25     1     1     2     0     0 -7.066574650E+01 -5.167087327E+02  4.167480003E+01  5.379064521E+02  1.250000000E+02  0.00000E+00  9.000E+00
       1     1     1     2   501     0  2.959175926E+01  7.675928140E+00  8.915604683E+02  8.920844471E+02  1.525878906E-05  0.00000E+00  9.000E+00
#rwgt            1           1   3.3861084005935085E-002           4        7022           0
</event>
<event>
      5   9999  3.68868E-02  1.59215E+01 -1.00000E+00  1.74979E-01
      21    -1     0     0   502   511  0.000000000E+00  0.000000000E+00  2.062016634E+03  2.062016634E+03  0.000000000E+00  0.00000E+00  9.000E+00
      21    -1     0     0   501   502  0.000000000E+00  0.000000000E+00 -4.050703940E+01  4.050703940E+01  0.000000000E+00  0.00000E+00  9.000E+00
      25     1     1     2     0     0 -4.637192969E+01 -3.155758503E+01  4.434446789E+02  4.641275906E+02  1.250000000E+02  0.00000E+00  9.000E+00
      25     1     1     2     0     0  6.227296728E+01  3.236363055E+01  1.404404290E+02  2.006834351E+02  1.250000000E+02  0.00000E+00  9.000E+00
      21     1     1     2   501   511 -1.590103760E+01 -8.060455217E-01  1.437624487E+03  1.437712648E+03  1.525878906E-05  0.00000E+00  9.000E+00
#rwgt            1           1   9.3165446925945333E-002           4        7218           0
</event>
<event>
      5   9999  3.19816E-02  4.83986E+01 -1.00000E+00  1.39887E-01
      21    -1     0     0   502   501  0.000000000E+00  0.000000000E+00  9.568033868E+02  9.568033868E+02  0.000000000E+00  0.00000E+00  9.000E+00
      21    -1     0     0   501   512  0.000000000E+00  0.000000000E+00 -9.584508583E+02  9.584508583E+02  0.000000000E+00  0.00000E+00  9.000E+00
      25     1     1     2     0     0  3.164749316E+02  6.246376680E+02  5.802811685E+02  9.179759437E+02  1.250000000E+02  0.00000E+00  9.000E+00
      25     1     1     2     0     0 -2.909851169E+02 -6.657799922E+02 -4.673901398E+02  8.729340634E+02  1.250000000E+02  0.00000E+00  9.000E+00
      21     1     1     2   502   512 -2.548981471E+01  4.114232421E+01 -1.145385002E+02  1.243442380E+02  1.348699152E-06  0.00000E+00  9.000E+00
#rwgt            1           1   3.2251813465478722E-002           4        7330           0
</event>
<event>
      5   9999  3.19816E-02  1.00603E+02 -1.00000E+00  1.23711E-01
      21    -1     0     0   502   501  0.000000000E+00  0.000000000E+00  9.337819249E+02  9.337819249E+02  0.000000000E+00  0.00000E+00  9.000E+00
      21    -1     0     0   501   511  0.000000000E+00  0.000000000E+00 -1.162082430E+03  1.162082430E+03  0.000000000E+00  0.00000E+00  9.000E+00
      25     1     1     2     0     0 -7.119849479E+02  3.410412403E+02 -4.602241963E+02  9.223139403E+02  1.250000000E+02  0.00000E+00  9.000E+00
      25     1     1     2     0     0  6.786969416E+02 -4.359769589E+02  4.509176221E+02  9.325540998E+02  1.250000000E+02  0.00000E+00  9.000E+00
      21     1     1     2   502   511  3.328800626E+01  9.493571867E+01 -2.189939312E+02  2.409963152E+02  0.000000000E+00  0.00000E+00  9.000E+00
#rwgt            1           1   2.9539459221904239E-002           4        7488           0
</event>
<event>
      5   9999  3.19816E-02  2.54725E+02 -1.00000E+00  1.07953E-01
      21    -1     0     0   502   501  0.000000000E+00  0.000000000E+00  3.282435263E+02  3.282435263E+02  0.000000000E+00  0.00000E+00  9.000E+00
       2    -1     0     0   501     0  0.000000000E+00  0.000000000E+00 -2.395878548E+03  2.395878548E+03  0.000000000E+00  0.00000E+00  9.000E+00
      25     1     1     2     0     0  7.148723121E+01  6.632039516E+02 -6.092409810E+02  9.120030036E+02  1.250000000E+02  0.00000E+00  9.000E+00
      25     1     1     2     0     0  1.287814123E+02 -5.057956298E+02 -2.777413935E+02  6.043005485E+02  1.250000000E+02  0.00000E+00  9.000E+00
       2     1     1     2   502     0 -2.002686435E+02 -1.574083218E+02 -1.180652647E+03  1.207818522E+03  2.157918644E-05  0.00000E+00  9.000E+00
#rwgt            2          13   1.8961567442785817E-003           4        7664           0
</event>
<event>
      5   9999  3.19816E-02  2.31915E+01 -1.00000E+00  1.61233E-01
      21    -1     0     0   511   501  0.000000000E+00  0.000000000E+00  3.074107191E+02  3.074107191E+02  0.000000000E+00  0.00000E+00  9.000E+00
      21    -1     0     0   501   502  0.000000000E+00  0.000000000E+00 -8.880007189E+02  8.880007189E+02  0.000000000E+00  0.00000E+00  9.000E+00
      25     1     1     2     0     0 -1.007575479E+01  4.244235161E+00 -7.814843105E+01  1.478232446E+02  1.250000000E+02  0.00000E+00  9.000E+00
      25     1     1     2     0     0 -5.978595285E+00  1.249203081E+01 -7.694067567E+02  7.796175676E+02  1.250000000E+02  0.00000E+00  9.000E+00
      21     1     1     2   511   502  1.605435007E+01 -1.673626597E+01  2.669651880E+02  2.679706259E+02  5.394796609E-06  0.00000E+00  9.000E+00
#rwgt            1           1   3.1049066476951555E-002           4        7683           0
</event>
<event>
      5   9999  3.19816E-02  2.37658E+02 -1.00000E+00  1.08987E-01
      -5    -1     0     0     0   501  0.000000000E+00  0.000000000E+00  1.879582876E+03  1.879582876E+03  0.000000000E+00  0.00000E+00  9.000E+00
      21    -1     0     0   501   502  0.000000000E+00  0.000000000E+00 -9.427602183E+01  9.427602183E+01  0.000000000E+00  0.00000E+00  9.000E+00
      25     1     1     2     0     0 -2.156280652E+02  1.807784213E+02  1.008553893E+03  1.054505692E+03  1.250000000E+02  0.00000E+00  9.000E+00
      25     1     1     2     0     0  1.180629110E+02  3.593007329E+01  5.943578450E+02  6.197709811E+02  1.250000000E+02  0.00000E+00  9.000E+00
      -5     1     1     2     0   502  9.756515421E+01 -2.167084946E+02  1.823951170E+02  2.995822251E+02  2.697398305E-06  0.00000E+00  9.000E+00
#rwgt            2           1   4.4312127318732771E-006           4        7909           0
</event>
<event>
      5   9999  3.19816E-02  3.21419E+01 -1.00000E+00  1.50988E-01
      21    -1     0     0   502   501  0.000000000E+00  0.000000000E+00  1.132585862E+03  1.132585862E+03  0.000000000E+00  0.00000E+00  9.000E+00
      21    -1     0     0   501   511  0.000000000E+00  0.000000000E+00 -1.251860364E+02  1.251860364E+02  0.000000000E+00  0.00000E+00  9.000E+00
      25     1     1     2     0     0 -5.680250724E+01  8.284248975E+01  8.195599904E+02  8.351005812E+02  1.250000000E+02  0.00000E+00  9.000E+00
      25     1     1     2     0     0  7.299662307E+01 -5.507829599E+01  2.827923736E+02  3.224261965E+02  1.250000000E+02  0.00000E+00  9.000E+00
      21     1     1     2   502   511 -1.619411583E+01 -2.776419375E+01 -9.495253792E+01  1.002451211E+02  1.348699152E-06  0.00000E+00  9.000E+00
#rwgt            1           1   2.8955831760711741E-002           4        7928           0
</event>
<event>
      5   9999  3.19816E-02  2.60557E+01 -1.00000E+00  1.57417E-01
      21    -1     0     0   502   501  0.000000000E+00  0.000000000E+00  7.728940309E+01  7.728940309E+01  0.000000000E+00  0.00000E+00  9.000E+00
      21    -1     0     0   512   502  0.000000000E+00  0.000000000E+00 -7.410937857E+02  7.410937857E+02  0.000000000E+00  0.00000E+00  9.000E+00
      25     1     1     2     0     0 -1.766026839E+02  3.251277495E+01 -3.014896222E+02  3.725138666E+02  1.250000000E+02  0.00000E+00  9.000E+00
      25     1     1     2     0     0  1.794269547E+02 -6.610592737E+00 -2.576174941E+02  3.379785575E+02  1.250000000E+02  0.00000E+00  9.000E+00
      21     1     1     2   512   501 -2.824270796E+00 -2.590218221E+01 -1.046972663E+02  1.078907648E+02  0.000000000E+00  0.00000E+00  9.000E+00
#rwgt            1           1   2.8992948387592678E-002           4        7994           0
</event>
<event>
      5   9999  3.19816E-02  2.15429E+01 -1.00000E+00  1.63750E-01
      21    -1     0     0   502   501  0.000000000E+00  0.000000000E+00  4.138047107E+02  4.138047107E+02  0.000000000E+00  0.00000E+00  9.000E+00
      21    -1     0     0   511   502  0.000000000E+00  0.000000000E+00 -3.238793673E+02  3.238793673E+02  0.000000000E+00  0.00000E+00  9.000E+00
      25     1     1     2     0     0 -2.300906409E+02 -5.962925338E+01  2.798292451E+02  3.878488846E+02  1.250000000E+02  0.00000E+00  9.000E+00
      25     1     1     2     0     0  2.261851580E+02  8.081515970E+01 -1.657618326E+02  3.174788196E+02  1.250000000E+02  0.00000E+00  9.000E+00
      21     1     1     2   511   501  3.905482842E+00 -2.118590633E+01 -2.414206906E+01  3.235637374E+01  3.371747881E-07  0.00000E+00  9.000E+00
#rwgt            1           1   2.5014068318490464E-002           4        8128           0
</event>
<event>
      5   9999  3.19816E-02  3.04923E+01 -1.00000E+00  1.52550E-01
      21    -1     0     0   512   501  0.000000000E+00  0.000000000E+00  8.186421748E+02  8.186421748E+02  0.000000000E+00  0.00000E+00  9.000E+00
      21    -1     0     0   501   502  0.000000000E+00  0.000000000E+00 -2.173019614E+02  2.173019614E+02  0.000000000E+00  0.00000E+00  9.000E+00
      25     1     1     2     0     0 -1.288731498E+02 -3.122738236E+02  9.926601906E+01  3.736334731E+02  1.250000000E+02  0.00000E+00  9.000E+00
      25     1     1     2     0     0  1.127433469E+02  3.381506337E+02  3.773911014E+02  5.339531409E+02  1.250000000E+02  0.00000E+00  9.000E+00
      21     1     1     2   512   502  1.612980287E+01 -2.587681007E+01  1.246830929E+02  1.283575222E+02  1.348699152E-06  0.00000E+00  9.000E+00
#rwgt            1           1   2.8856247350210033E-002           4        8268           0
</event>
<event>
      5   9999  3.19816E-02  4.98112E+01 -1.00000E+00  1.39169E-01
      21    -1     0     0   502   501  0.000000000E+00  0.000000000E+00  1.144097452E+03  1.144097452E+03  0.000000000E+00  0.00000E+00  9.000E+00
      21    -1     0     0   501   511  0.000000000E+00  0.000000000E+00 -2.929108674E+02  2.929108674E+02  0.000000000E+00  0.00000E+00  9.000E+00
      25     1     1     2     0     0  1.246517169E+02 -4.516474331E+02  7.450814963E+02  8.889853151E+02  1.250000000E+02  0.00000E+00  9.000E+00
      25     1     1     2     0     0 -8.207225236E+01  4.257989643E+02  1.560241457E+02  4.775030331E+02  1.250000000E+02  0.00000E+00  9.000E+00
      21     1     1     2   502   511 -4.257946455E+01  2.584846884E+01 -4.991905699E+01  7.051997159E+01  1.168007728E-06  0.00000E+00  9.000E+00
#rwgt            1           1   2.3731382870311468E-002           4        8476           0
</event>
<event>
      5   9999  3.19816E-02  2.64989E+01 -1.00000E+00  1.56880E-01
      21    -1     0     0   502   501  0.000000000E+00  0.000000000E+00  2.569734597E+02  2.569734597E+02  0.000000000E+00  0.00000E+00  9.000E+00
      21    -1     0     0   512   502  0.000000000E+00  0.000000000E+00 -4.029182926E+02  4.029182926E+02  0.000000000E+00  0.00000E+00  9.000E+00
      25     1     1     2     0     0 -1.577147277E+02 -2.195047710E+02 -1.153769211E+02  3.193636074E+02  1.250000000E+02  0.00000E+00  9.000E+00
      25     1     1     2     0     0  1.601032154E+02  1.931137070E+02  2.254201990E+01  2.811744762E+02  1.250000000E+02  0.00000E+00  9.000E+00
      21     1     1     2   512   501 -2.388487769E+00  2.639106398E+01 -5.310993178E+01  5.935366867E+01  6.743495762E-07  0.00000E+00  9.000E+00
#rwgt            1           1   2.8306609779743013E-002           4        8623           0
</event>
<event>
      5   9999  3.19816E-02  3.28678E+01 -1.00000E+00  1.50336E-01
      21    -1     0     0   511   501  0.000000000E+00  0.000000000E+00  6.503506471E+02  6.503506471E+02  0.000000000E+00  0.00000E+00  9.000E+00
      21    -1     0     0   501   502  0.000000000E+00  0.000000000E+00 -1.840936750E+03  1.840936750E+03  0.000000000E+00  0.00000E+00  9.000E+00
      25     1     1     2     0     0  9.802622995E+02 -1.364578310E+02 -8.972424698E+02  1.341716798E+03  1.250000000E+02  0.00000E+00  9.000E+00
      25     1     1     2     0     0 -9.838753414E+02  1.037891782E+02 -3.719970444E+02  1.064325928E+03  1.250000000E+02  0.00000E+00  9.000E+00
      21     1     1     2   511   502  3.613041891E+00  3.266865278E+01  7.865341100E+01  8.524467143E+01  1.907348633E-06  0.00000E+00  9.000E+00
#rwgt            1           1   2.2947922077639009E-002           4        8822           0
</event>
<event>
      5   9999  3.19816E-02  5.46464E+02 -1.00000E+00  9.77679E-02
      21    -1     0     0   502   512  0.000000000E+00  0.000000000E+00  8.898091862E+02  8.898091862E+02  0.000000000E+00  0.00000E+00  9.000E+00
      21    -1     0     0   501   502  0.000000000E+00  0.000000000E+00 -3.756428107E+03  3.756428107E+03  0.000000000E+00  0.00000E+00  9.000E+00
      25     1     1     2     0     0  2.021259584E+02 -8.687166463E+00 -3.439429827E+03  3.447641644E+03  1.250000000E+02  0.00000E+00  9.000E+00
      25     1     1     2     0     0  5.741022838E+01 -4.722114511E+02  3.709423179E+02  6.160379794E+02  1.250000000E+02  0.00000E+00  9.000E+00
      21     1     1     2   501   512 -2.595361867E+02  4.808986175E+02  2.018685879E+02  5.825576704E+02  1.452593442E-05  0.00000E+00  9.000E+00
#rwgt            2          11   6.1407335048031218E-003           4        9019           0
</event>
<event>
      5   9999  3.19816E-02  7.82617E+01 -1.00000E+00  1.28813E-01
      21    -1     0     0   502   511  0.000000000E+00  0.000000000E+00  9.743662555E+02  9.743662555E+02  0.000000000E+00  0.00000E+00  9.000E+00
      21    -1     0     0   501   502  0.000000000E+00  0.000000000E+00 -1.660892670E+02  1.660892670E+02  0.000000000E+00  0.00000E+00  9.000E+00
      25     1     1     2     0     0  9.060109495E+01  1.267478294E+02 -8.550206207E+01  2.172767205E+02  1.250000000E+02  0.00000E+00  9.000E+00
      25     1     1     2     0     0 -6.686593717E+01 -5.217213580E+01  6.411971065E+02  6.587501156E+02  1.250000000E+02  0.00000E+00  9.000E+00
      21     1     1     2   501   511 -2.373515778E+01 -7.457569361E+01  2.525819440E+02  2.644286865E+02  3.814697266E-06  0.00000E+00  9.000E+00
#rwgt            1           1   2.8403655842824536E-002           4        9039           0
</event>
<event>
      5   9999  3.19816E-02  2.45583E+01 -1.00000E+00  1.59333E-01
       2    -1     0     0   502     0  0.000000000E+00  0.000000000E+00  1.738919489E+03  1.738919489E+03  0.000000000E+00  0.00000E+00  9.000E+00
      21    -1     0     0   501   502  0.000000000E+00  0.000000000E+00 -1.873742175E+02  1.873742175E+02  0.000000000E+00  0.00000E+00  9.000E+00
      25     1     1     2     0     0 -8.440026051E+01 -2.085908781E+02 -1.563836665E+01  2.578819825E+02  1.250000000E+02  0.00000E+00  9.000E+00
      25     1     1     2     0     0  6.274143174E+01  1.970149183E+02  2.384880405E+02  3.394891909E+02  1.250000000E+02  0.00000E+00  9.000E+00
       2     1     1     2   501     0  2.165882877E+01  1.157595975E+01  1.328695598E+03  1.328922534E+03  2.157918644E-05  0.00000E+00  9.000E+00
#rwgt            1           1   2.6564803994744819E-002           4        9149           0
</event>
<event>
      5   9999  3.19816E-02  2.02235E+01 -1.00000E+00  1.65972E-01
      21    -1     0     0   502   501  0.000000000E+00  0.000000000E+00  2.200055576E+02  2.200055576E+02  0.000000000E+00  0.00000E+00  9.000E+00
      21    -1     0     0   511   502  0.000000000E+00  0.000000000E+00 -1.724613867E+02  1.724613867E+02  0.000000000E+00  0.00000E+00  9.000E+00
      25     1     1     2     0     0  9.597622915E+01  1.224445557E+01  1.121695884E+02  1.938256428E+02  1.250000000E+02  0.00000E+00  9.000E+00
      25     1     1     2     0     0 -1.079523598E+02 -2.854050158E+01 -5.747905103E+01  1.771923066E+02  1.250000000E+02  0.00000E+00  9.000E+00
      21     1     1     2   511   501  1.197613069E+01  1.629604601E+01 -7.146366468E+00  2.144899475E+01  1.685873940E-07  0.00000E+00  9.000E+00
#rwgt            1           1   2.4414392647753247E-002           4        9261           0
</event>
<event>
      5   9999  3.19816E-02  3.09507E+02 -1.00000E+00  1.05154E-01
      21    -1     0     0   502   501  0.000000000E+00  0.000000000E+00  1.163308052E+03  1.163308052E+03  0.000000000E+00  0.00000E+00  9.000E+00
      21    -1     0     0   501   512  0.000000000E+00  0.000000000E+00 -4.521536672E+02  4.521536672E+02  0.000000000E+00  0.00000E+00  9.000E+00
      25     1     1     2     0     0 -2.467419456E+02  5.464774956E+02  6.065632867E+02  8.620111726E+02  1.250000000E+02  0.00000E+00  9.000E+00
      25     1     1     2     0     0  3.291935885E+02 -2.481548870E+02  1.421253540E+01  4.310177059E+02  1.250000000E+02  0.00000E+00  9.000E+00
      21     1     1     2   502   512 -8.245164283E+01 -2.983226086E+02  9.037856290E+01  3.224328408E+02  1.348699152E-06  0.00000E+00  9.000E+00
#rwgt            1           1   2.6069795159858324E-002           4        9350           0
</event>
<event>
      5   9999  3.19816E-02  2.86423E+01 -1.00000E+00  1.54450E-01
      21    -1     0     0   502   501  0.000000000E+00  0.000000000E+00  8.633211878E+02  8.633211878E+02  0.000000000E+00  0.00000E+00  9.000E+00
      21    -1     0     0   501   511  0.000000000E+00  0.000000000E+00 -9.816098646E+01  9.816098646E+01  0.000000000E+00  0.00000E+00  9.000E+00
      25     1     1     2     0     0  1.144868856E+02 -1.063766893E+02  2.129302209E+02  2.922114405E+02  1.250000000E+02  0.00000E+00  9.000E+00
      25     1     1     2     0     0 -1.161273308E+02  1.349720096E+02  5.859474332E+02  6.250299151E+02  1.250000000E+02  0.00000E+00  9.000E+00
      21     1     1     2   502   511  1.640445197E+00 -2.859532030E+01 -3.371745282E+01  4.424081857E+01  1.261592536E-06  0.00000E+00  9.000E+00
#rwgt            1           1   3.0107980349313744E-002           4        9410           0
</event>
<event>
      5   9999  3.19816E-02  1.54740E+01 -1.00000E+00  1.76120E-01
      21    -1     0     0   502   512  0.000000000E+00  0.000000000E+00  2.219066106E+03  2.219066106E+03  0.000000000E+00  0.00000E+00  9.000E+00
      21    -1     0     0   501   502  0.000000000E+00  0.000000000E+00 -1.241238162E+02  1.241238162E+02  0.000000000E+00  0.00000E+00  9.000E+00
      25     1     1     2     0     0  8.228557179E+01 -1.528060429E+02  1.647502683E+03  1.661327990E+03  1.250000000E+02  0.00000E+00  9.000E+00
      25     1     1     2     0     0 -9.775576023E+01  1.524635801E+02 -1.367823765E+01  2.204845258E+02  1.250000000E+02  0.00000E+00  9.000E+00
      21     1     1     2   501   512  1.547018843E+01  3.424628029E-01  4.611178452E+02  4.613774065E+02  5.394796609E-06  0.00000E+00  9.000E+00
#rwgt            1           1   3.5511199943084611E-002           4        9492           0
</event>
<event>
      5   9999  3.19816E-02  6.22576E+01 -1.00000E+00  1.33852E-01
      21    -1     0     0   511   501  0.000000000E+00  0.000000000E+00  1.841649822E+03  1.841649822E+03  0.000000000E+00  0.00000E+00  9.000E+00
      21    -1     0     0   501   502  0.000000000E+00  0.000000000E+00 -9.240285002E+01  9.240285002E+01  0.000000000E+00  0.00000E+00  9.000E+00
      25     1     1     2     0     0 -2.357106496E+02 -4.548444002E+01  2.341373106E+02  3.578737554E+02  1.250000000E+02  0.00000E+00  9.000E+00
      25     1     1     2     0     0  1.851813656E+02  9.114097351E+00  3.915898715E+02  4.509355080E+02  1.250000000E+02  0.00000E+00  9.000E+00
      21     1     1     2   511   502  5.052928396E+01  3.637034267E+01  1.123519790E+03  1.125243409E+03  0.000000000E+00  0.00000E+00  9.000E+00
#rwgt            1           1   2.6998723342993105E-002           4        9632           0
</event>
<event>
      5   9999  3.19816E-02  2.63022E+01 -1.00000E+00  1.57117E-01
      21    -1     0     0   502   501  0.000000000E+00  0.000000000E+00  9.138237804E+01  9.138237804E+01  0.000000000E+00  0.00000E+00  9.000E+00
      21    -1     0     0   512   502  0.000000000E+00  0.000000000E+00 -1.605495052E+03  1.605495052E+03  0.000000000E+00  0.00000E+00  9.000E+00
      25     1     1     2     0     0  3.542380334E+01 -1.888688948E+02 -5.204846355E+02  5.687315368E+02  1.250000000E+02  0.00000E+00  9.000E+00
      25     1     1     2     0     0 -6.117283724E+01  1.942349328E+02 -1.458088697E+02  2.799188304E+02  1.250000000E+02  0.00000E+00  9.000E+00
      21     1     1     2   512   501  2.574903391E+01 -5.366037984E+00 -8.478191689E+02  8.482270629E+02  1.078959322E-05  0.00000E+00  9.000E+00
#rwgt            1           1   2.6899874698243047E-002           4        9754           0
</event>
<event>
      5   9999  3.19816E-02  1.47093E+02 -1.00000E+00  1.16731E-01
      21    -1     0     0   502   501  0.000000000E+00  0.000000000E+00  4.310905070E+02  4.310905070E+02  0.000000000E+00  0.00000E+00  9.000E+00
      21    -1     0     0   511   502  0.000000000E+00  0.000000000E+00 -7.031448425E+02  7.031448425E+02  0.000000000E+00  0.00000E+00  9.000E+00
      25     1     1     2     0     0  6.396485548E+01  7.446318950E+01 -7.158638010E+01  1.743154587E+02  1.250000000E+02  0.00000E+00  9.000E+00
      25     1     1     2     0     0  6.800791583E+01 -1.394216400E+02  3.431311242E+02  3.967712675E+02  1.250000000E+02  0.00000E+00  9.000E+00
      21     1     1     2   511   501 -1.319727713E+02  6.495845050E+01 -5.435990796E+02  5.631486234E+02  0.000000000E+00  0.00000E+00  9.000E+00
#rwgt            1           1   3.1121353141166562E-002           4        9956           0
</event>
<event>
      5   9999  3.19816E-02  1.18532E+02 -1.00000E+00  1.20596E-01
      21    -1     0     0   502   501  0.000000000E+00  0.000000000E+00  8.002150883E+02  8.002150883E+02  0.000000000E+00  0.00000E+00  9.000E+00
       2    -1     0     0   501     0  0.000000000E+00  0.000000000E+00 -1.040092501E+03  1.040092501E+03  0.000000000E+00  0.00000E+00  9.000E+00
      25     1     1     2     0     0 -3.067756959E+02  2.785895480E+02  4.229305028E+02  6.051600400E+02  1.250000000E+02  0.00000E+00  9.000E+00
      25     1     1     2     0     0  3.251393110E+02 -1.614884029E+02  1.511293673E+02  4.126247223E+02  1.250000000E+02  0.00000E+00  9.000E+00
       2     1     1     2   502     0 -1.836361505E+01 -1.171011451E+02 -8.139372832E+02  8.225228274E+02  1.078959322E-05  0.00000E+00  9.000E+00
#rwgt            1           1   2.9635032885776669E-002           4        9998           0
</event>
<event>
      5   9999  3.19816E-02  4.92116E+01 -1.00000E+00  1.39471E-01
      21    -1     0     0   502   501  0.000000000E+00  0.000000000E+00  6.011225389E+02  6.011225389E+02  0.000000000E+00  0.00000E+00  9.000E+00
      21    -1     0     0   501   511  0.000000000E+00  0.000000000E+00 -1.066431086E+02  1.066431086E+02  0.000000000E+00  0.00000E+00  9.000E+00
      25     1     1     2     0     0  7.852727270E+01 -7.286967974E+01  2.687416352E+02  3.151564521E+02  1.250000000E+02  0.00000E+00  9.000E+00
      25     1     1     2     0     0 -2.944953689E+01  7.649675253E+01  2.812004340E+02  3.184614772E+02  1.250000000E+02  0.00000E+00  9.000E+00
      21     1     1     2   502   511 -4.907773580E+01 -3.627072792E+00 -5.546263893E+01  7.414771828E+01  1.507891493E-06  0.00000E+00  9.000E+00
#rwgt            1           1   6.6595300505159175E-002           4       10087           0
</event>
<event>
      5   9999  3.19816E-02  3.32844E+02 -1.00000E+00  1.04146E-01
      21    -1     0     0   512   501  0.000000000E+00  0.000000000E+00  1.182069013E+02  1.182069013E+02  0.000000000E+00  0.00000E+00  9.000E+00
      21    -1     0     0   501   502  0.000000000E+00  0.000000000E+00 -1.788284166E+03  1.788284166E+03  0.000000000E+00  0.00000E+00  9.000E+00
      25     1     1     2     0     0  1.650556769E+02 -2.589304450E+02 -5.168686323E+02  6.140574361E+02  1.250000000E+02  0.00000E+00  9.000E+00
      25     1     1     2     0     0 -1.078884103E+02 -6.896695156E+01 -7.426483266E+02  7.639030609E+02  1.250000000E+02  0.00000E+00  9.000E+00
      21     1     1     2   512   502 -5.716726658E+01  3.278973965E+02 -4.105603059E+02  5.285305703E+02  5.394796609E-06  0.00000E+00  9.000E+00
#rwgt            1           1   3.2353487898106624E-002           4       10124           0
</event>
<event>
      5   9999  3.19816E-02  9.61773E+01 -1.00000E+00  1.24594E-01
      21    -1     0     0   502   501  0.000000000E+00  0.000000000E+00  6.045916683E+02  6.045916683E+02  0.000000000E+00  0.00000E+00  9.000E+00
      21    -1     0     0   511   502  0.000000000E+00  0.000000000E+00 -3.875923280E+02  3.875923280E+02  0.000000000E+00  0.00000E+00  9.000E+00
      25     1     1     2     0     0  3.436132024E+02 -1.976648377E+00 -1.754551859E+02  4.055656078E+02  1.250000000E+02  0.00000E+00  9.000E+00
      25     1     1     2     0     0 -2.771557357E+02 -6.754662215E+01  3.773195264E+02  4.892574710E+02  1.250000000E+02  0.00000E+00  9.000E+00
      21     1     1     2   511   501 -6.645746670E+01  6.952327053E+01  1.513499985E+01  9.736091744E+01  1.634515429E-06  0.00000E+00  9.000E+00
#rwgt            2          11   4.5533801712170753E-003           4       10212           0
</event>
<event>
      5   9999  3.19816E-02  1.43514E+02 -1.00000E+00  1.17160E-01
      21    -1     0     0   512   501  0.000000000E+00  0.000000000E+00  1.554609377E+03  1.554609377E+03  0.000000000E+00  0.00000E+00  9.000E+00
      21    -1     0     0   501   502  0.000000000E+00  0.000000000E+00 -5.403341135E+02  5.403341135E+02  0.000000000E+00  0.00000E+00  9.000E+00
      25     1     1     2     0     0 -2.283355165E+02  6.406199033E+02  3.937081951E+02  7.957148430E+02  1.250000000E+02  0.00000E+00  9.000E+00
      25     1     1     2     0     0  1.804118456E+02 -5.053438170E+02 -1.039191534E+02  5.606647821E+02  1.250000000E+02  0.00000E+00  9.000E+00
      21     1     1     2   512   502  4.792367083E+01 -1.352760862E+02  7.244862218E+02  7.385638654E+02  0.000000000E+00  0.00000E+00  9.000E+00
#rwgt            1           1   2.8898443938033428E-002           4       10247           0
</event>
<event>
      5   9999  3.19816E-02  4.28077E+01 -1.00000E+00  1.43036E-01
      21    -1     0     0   502   501  0.000000000E+00  0.000000000E+00  4.210725773E+02  4.210725773E+02  0.000000000E+00  0.00000E+00  9.000E+00
      21    -1     0     0   501   511  0.000000000E+00  0.000000000E+00 -1.513548408E+02  1.513548408E+02  0.000000000E+00  0.00000E+00  9.000E+00
      25     1     1     2     0     0 -4.818291145E+01  1.971331818E+02  2.132118498E+02  3.197927097E+02  1.250000000E+02  0.00000E+00  9.000E+00
      25     1     1     2     0     0  4.123520531E+01 -1.548930045E+02  4.319454114E+01  2.078050851E+02  1.250000000E+02  0.00000E+00  9.000E+00
      21     1     1     2   502   511  6.947706139E+00 -4.224017728E+01  1.331134555E+01  4.482962321E+01  4.460403188E-07  0.00000E+00  9.000E+00
#rwgt            1           1   2.6013746939028894E-002           4       10323           0
</event>
<event>
      5   9999  3.19816E-02  1.03940E+02 -1.00000E+00  1.23078E-01
      21    -1     0     0   512   501  0.000000000E+00  0.000000000E+00  2.729199148E+02  2.729199148E+02  0.000000000E+00  0.00000E+00  9.000E+00
      21    -1     0     0   501   502  0.000000000E+00  0.000000000E+00 -6.592137396E+02  6.592137396E+02  0.000000000E+00  0.00000E+00  9.000E+00
      25     1     1     2     0     0 -2.501752381E+02 -4.633924584E+01 -2.357068856E+02  3.686701932E+02  1.250000000E+02  0.00000E+00  9.000E+00
      25     1     1     2     0     0  3.101050625E+02 -3.858379120E+01 -2.502916192E+02  4.194338486E+02  1.250000000E+02  0.00000E+00  9.000E+00
      21     1     1     2   512   502 -5.992982447E+01  8.492303704E+01  9.970467994E+01  1.440296125E+02  2.336015456E-06  0.00000E+00  9.000E+00
#rwgt            1           1   2.6284030124795056E-002           4       10434           0
</event>
<event>
      5   9999  3.19816E-02  1.50408E+01 -1.00000E+00  1.77273E-01
      21    -1     0     0   502   511  0.000000000E+00  0.000000000E+00  4.238065975E+02  4.238065975E+02  0.000000000E+00  0.00000E+00  9.000E+00
      21    -1     0     0   501   502  0.000000000E+00  0.000000000E+00 -1.141209310E+03  1.141209310E+03  0.000000000E+00  0.00000E+00  9.000E+00
      25     1     1     2     0     0 -3.299481018E+02 -6.673829114E+01 -9.743690640E+02  1.038431424E+03  1.250000000E+02  0.00000E+00  9.000E+00
      25     1     1     2     0     0  3.449883583E+02  6.661061875E+01  1.243503044E+02  3.931182266E+02  1.250000000E+02  0.00000E+00  9.000E+00
      21     1     1     2   501   511 -1.504025646E+01  1.276723887E-01  1.326160474E+02  1.334662566E+02  0.000000000E+00  0.00000E+00  9.000E+00
#rwgt            1           1   2.6593770995783857E-002           4       10486           0
</event>
<event>
      5   9999  3.19816E-02  1.68132E+02 -1.00000E+00  1.14463E-01
      21    -1     0     0   502   501  0.000000000E+00  0.000000000E+00  6.374166697E+02  6.374166697E+02  0.000000000E+00  0.00000E+00  9.000E+00
      21    -1     0     0   501   512  0.000000000E+00  0.000000000E+00 -1.379637108E+03  1.379637108E+03  0.000000000E+00  0.00000E+00  9.000E+00
      25     1     1     2     0     0  8.550716867E+02  2.058151471E+02 -5.272080039E+02  1.032996004E+03  1.250000000E+02  0.00000E+00  9.000E+00
      25     1     1     2     0     0 -6.966121145E+02 -2.620187222E+02 -6.285308972E+01  7.572963486E+02  1.250000000E+02  0.00000E+00  9.000E+00
      21     1     1     2   502   512 -1.584595723E+02  5.620357503E+01 -1.521593448E+02  2.267614255E+02  3.814697266E-06  0.00000E+00  9.000E+00
#rwgt            1           1   2.7783913431261076E-002           4       10730           0
</event>
<event>
      5   9999  3.19816E-02  1.03299E+02 -1.00000E+00  1.23197E-01
      21    -1     0     0   502   501  0.000000000E+00  0.000000000E+00  5.367656981E+02  5.367656981E+02  0.000000000E+00  0.00000E+00  9.000E+00
      21    -1     0     0   511   502  0.000000000E+00  0.000000000E+00 -6.857709689E+02  6.857709689E+02  0.000000000E+00  0.00000E+00  9.000E+00
      25     1     1     2     0     0  4.442534695E+01  1.224796440E+02 -9.571050671E+01  2.043535558E+02  1.250000000E+02  0.00000E+00  9.000E+00
      25     1     1     2     0     0 -1.125285778E+02 -2.001502079E+02  4.412944109E+02  5.129215765E+02  1.250000000E+02  0.00000E+00  9.000E+00
      21     1     1     2   511   501  6.810323081E+01  7.767056387E+01 -4.945891749E+02  5.052615347E+02  5.394796609E-06  0.00000E+00  9.000E+00
#rwgt            1           1   2.5216571760117865E-002           4       10800           0
</event>
<event>
      5   9999  3.19816E-02  6.67478E+01 -1.00000E+00  1.32276E-01
      21    -1     0     0   502   501  0.000000000E+00  0.000000000E+00  1.653935535E+03  1.653935535E+03  0.000000000E+00  0.00000E+00  9.000E+00
      21    -1     0     0   512   502  0.000000000E+00  0.000000000E+00 -4.122321776E+02  4.122321776E+02  0.000000000E+00  0.00000E+00  9.000E+00
      25     1     1     2     0     0 -2.301818106E+02  5.713810165E+02  9.203676491E+02  1.114523011E+03  1.250000000E+02  0.00000E+00  9.000E+00
      25     1     1     2     0     0  1.717551294E+02 -6.036547219E+02  4.664629291E+02  7.919037265E+02  1.250000000E+02  0.00000E+00  9.000E+00
      21     1     1     2   512   501  5.842668117E+01  3.227370540E+01 -1.451272205E+02  1.597409756E+02  5.394796609E-06  0.00000E+00  9.000E+00
#rwgt            1           1   2.5138915541611462E-002           4       10862           0
</event>
<event>
      5   9999  3.19816E-02  2.14937E+01 -1.00000E+00  1.63829E-01
      21    -1     0     0   502   511  0.000000000E+00  0.000000000E+00  9.161713664E+01  9.161713664E+01  0.000000000E+00  0.00000E+00  9.000E+00
      21    -1     0     0   501   502  0.000000000E+00  0.000000000E+00 -1.024685305E+03  1.024685305E+03  0.000000000E+00  0.00000E+00  9.000E+00
      25     1     1     2     0     0  9.028036766E+01  7.770490137E+01 -9.003013566E+02  9.167094028E+02  1.250000000E+02  0.00000E+00  9.000E+00
      25     1     1     2     0     0 -7.032748278E+01 -8.569615400E+01 -8.668260347E+00  1.673018959E+02  1.250000000E+02  0.00000E+00  9.000E+00
      21     1     1     2   501   511 -1.995288487E+01  7.991252630E+00 -2.409855157E+01  3.229114308E+01  0.000000000E+00  0.00000E+00  9.000E+00
#rwgt            1           1   2.2734056890809640E-002           4       10953           0
</event>
<event>
      5   9999  3.19816E-02  3.75202E+02 -1.00000E+00  1.02529E-01
      21    -1     0     0   502   501  0.000000000E+00  0.000000000E+00  2.187266021E+03  2.187266021E+03  0.000000000E+00  0.00000E+00  9.000E+00
      21    -1     0     0   501   512  0.000000000E+00  0.000000000E+00 -1.701599426E+02  1.701599426E+02  0.000000000E+00  0.00000E+00  9.000E+00
      25     1     1     2     0     0  2.922739235E+02  2.391818919E+02  1.487930747E+03  1.540193147E+03  1.250000000E+02  0.00000E+00  9.000E+00
      25     1     1     2     0     0  1.609169717E+01 -2.543696453E+01 -4.076265642E+01  1.348798578E+02  1.250000000E+02  0.00000E+00  9.000E+00
      21     1     1     2   502   512 -3.083656206E+02 -2.137449274E+02  5.699379885E+02  6.823529591E+02  1.078959322E-05  0.00000E+00  9.000E+00
#rwgt            1           1   2.4519397944540947E-002           4       11075           0
</event>
<event>
      5   9999  3.19816E-02  1.31720E+02 -1.00000E+00  1.18675E-01
      21    -1     0     0   511   501  0.000000000E+00  0.000000000E+00  8.009759522E+02  8.009759522E+02  0.000000000E+00  0.00000E+00  9.000E+00
      21    -1     0     0   501   502  0.000000000E+00  0.000000000E+00 -1.034821343E+03  1.034821343E+03  0.000000000E+00  0.00000E+00  9.000E+00
      25     1     1     2     0     0 -4.468780201E+02  2.493212137E+02 -6.515612724E+02  8.378652184E+02  1.250000000E+02  0.00000E+00  9.000E+00
      25     1     1     2     0     0  4.816268122E+02 -3.763750108E+02  7.207893503E+01  6.280468994E+02  1.250000000E+02  0.00000E+00  9.000E+00
      21     1     1     2   511   502 -3.474879204E+01  1.270537970E+02  3.456369464E+02  3.698851776E+02  5.394796609E-06  0.00000E+00  9.000E+00
#rwgt            1           1   3.1392600877330881E-002           4       11141           0
</event>
<event>
      5   9999  3.19816E-02  1.13258E+02 -1.00000E+00  1.21444E-01
      21    -1     0     0   502   501  0.000000000E+00  0.000000000E+00  9.395049773E+02  9.395049773E+02  0.000000000E+00  0.00000E+00  9.000E+00
      21    -1     0     0   512   502  0.000000000E+00  0.000000000E+00 -5.432052261E+02  5.432052261E+02  0.000000000E+00  0.00000E+00  9.000E+00
      25     1     1     2     0     0 -2.492897313E+02 -2.804392176E+02  4.436482428E+02  5.943402126E+02  1.250000000E+02  0.00000E+00  9.000E+00
      25     1     1     2     0     0  3.621868895E+02  2.894719491E+02  2.703560881E+02  5.510814519E+02  1.250000000E+02  0.00000E+00  9.000E+00
      21     1     1     2   512   501 -1.128971582E+02 -9.032731478E+00 -3.177045797E+02  3.372885390E+02  3.814697266E-06  0.00000E+00  9.000E+00
#rwgt            1           1   2.8113870941472857E-002           4       11183           0
</event>
<event>
      5   9999  3.19816E-02  1.24329E+01 -1.00000E+00  1.85424E-01
      21    -1     0     0   502   501  0.000000000E+00  0.000000000E+00  1.139581368E+02  1.139581368E+02  0.000000000E+00  0.00000E+00  9.000E+00
      21    -1     0     0   511   502  0.000000000E+00  0.000000000E+00 -9.007043995E+02  9.007043995E+02  0.000000000E+00  0.00000E+00  9.000E+00
      25     1     1     2     0     0  5.468612588E+01  1.461681551E+02 -6.374730476E+02  6.680962418E+02  1.250000000E+02  0.00000E+00  9.000E+00
      25     1     1     2     0     0 -6.632714177E+01 -1.505344211E+02 -1.011175405E+01  2.068505481E+02  1.250000000E+02  0.00000E+00  9.000E+00
      21     1     1     2   511   501  1.164101589E+01  4.366266027E+00 -1.391614611E+02  1.397157464E+02  1.907348633E-06  0.00000E+00  9.000E+00
#rwgt            1           1   3.1552198152477909E-002           4       11273           0
</event>
<event>
      5   9999  3.19816E-02  6.08147E+01 -1.00000E+00  1.34391E-01
      21    -1     0     0   502   501  0.000000000E+00  0.000000000E+00  1.782274112E+03  1.782274112E+03  0.000000000E+00  0.00000E+00  9.000E+00
      21    -1     0     0   501   512  0.000000000E+00  0.000000000E+00 -2.202152600E+02  2.202152600E+02  0.000000000E+00  0.00000E+00  9.000E+00
      25     1     1     2     0     0 -1.632070317E+02  2.496531579E+02  1.749209414E+02  3.676759037E+02  1.250000000E+02  0.00000E+00  9.000E+00
      25     1     1     2     0     0  1.072919403E+02 -2.257381987E+02  1.489641353E+03  1.515627149E+03  1.250000000E+02  0.00000E+00  9.000E+00
      21     1     1     2   502   512  5.591509139E+01 -2.391495922E+01 -1.025034429E+02  1.191863185E+02  3.814697266E-06  0.00000E+00  9.000E+00
#rwgt            1           1   2.9171447087503109E-002           4       11545           0
</event>
<event>
      5   9999  3.19816E-02  4.62901E+01 -1.00000E+00  1.41013E-01
      21    -1     0     0   502   501  0.000000000E+00  0.000000000E+00  2.076382130E+02  2.076382130E+02  0.000000000E+00  0.00000E+00  9.000E+00
      21    -1     0     0   511   502  0.000000000E+00  0.000000000E+00 -1.182356083E+03  1.182356083E+03  0.000000000E+00  0.00000E+00  9.000E+00
      25     1     1     2     0     0 -2.364326026E+02 -3.819112061E+01 -1.791725498E+01  2.707488972E+02  1.250000000E+02  0.00000E+00  9.000E+00
      25     1     1     2     0     0  2.628271180E+02  7.621879016E+01 -2.005282929E+02  3.615577328E+02  1.250000000E+02  0.00000E+00  9.000E+00
      21     1     1     2   511   501 -2.639451533E+01 -3.802766955E+01 -7.562723217E+02  7.576876657E+02  1.078959322E-05  0.00000E+00  9.000E+00
#rwgt            1           1   2.8040127523891473E-002           4       11668           0
</event>
<event>
      5   9999  3.19816E-02  2.96743E+01 -1.00000E+00  1.53370E-01
      21    -1     0     0   512   501  0.000000000E+00  0.000000000E+00  2.838175181E+02  2.838175181E+02  0.000000000E+00  0.00000E+00  9.000E+00
      21    -1     0     0   501   502  0.000000000E+00  0.000000000E+00 -4.646053202E+02  4.646053202E+02  0.000000000E+00  0.00000E+00  9.000E+00
      25     1     1     2     0     0 -2.859307469E+02 -5.914350168E+01 -1.793053580E+02  3.647324461E+02  1.250000000E+02  0.00000E+00  9.000E+00
      25     1     1     2     0     0  2.882294822E+02  2.955841886E+01 -5.707379715E+01  3.206748398E+02  1.250000000E+02  0.00000E+00  9.000E+00
      21     1     1     2   512   502 -2.298735341E+00  2.958508282E+01  5.559135310E+01  6.301555244E+01  6.743495762E-07  0.00000E+00  9.000E+00
#rwgt            1           1   2.5721602496439549E-002           4       11755           0
</event>
<event>
      5   9999  3.19816E-02  2.89768E+01 -1.00000E+00  1.54094E-01
      21    -1     0     0   502   501  0.000000000E+00  0.000000000E+00  9.990458081E+01  9.990458081E+01  0.000000000E+00  0.00000E+00  9.000E+00
      21    -1     0     0   501   511  0.000000000E+00  0.000000000E+00 -4.619634810E+02  4.619634810E+02  0.000000000E+00  0.00000E+00  9.000E+00
      25     1     1     2     0     0 -1.435721156E+02  7.462292503E+01 -2.000369326E+02  2.860442409E+02  1.250000000E+02  0.00000E+00  9.000E+00
      25     1     1     2     0     0  1.171166350E+02 -8.644507052E+01 -1.257822877E+02  2.294237135E+02  1.250000000E+02  0.00000E+00  9.000E+00
      21     1     1     2   502   511  2.645548055E+01  1.182214549E+01 -3.623967987E+01  4.640010746E+01  4.768371582E-07  0.00000E+00  9.000E+00
#rwgt            1           1   2.8931537989642129E-002           4       11909           0
</event>
<event>
      5   9999  3.19816E-02  1.32977E+02 -1.00000E+00  1.18505E-01
      21    -1     0     0   502   501  0.000000000E+00  0.000000000E+00  1.069284957E+02  1.069284957E+02  0.000000000E+00  0.00000E+00  9.000E+00
       4    -1     0     0   501     0  0.000000000E+00  0.000000000E+00 -9.166338087E+02  9.166338087E+02  0.000000000E+00  0.00000E+00  9.000E+00
      25     1     1     2     0     0 -1.143120685E+02 -1.598553244E+02 -3.235076182E+02  3.986265831E+02  1.250000000E+02  0.00000E+00  9.000E+00
      25     1     1     2     0     0  9.940626701E+01  2.771655973E+01 -4.622147036E+02  4.898134806E+02  1.250000000E+02  0.00000E+00  9.000E+00
       4     1     1     2   502     0  1.490580144E+01  1.321387647E+02 -2.398299118E+01  1.351222406E+02  3.126830351E-06  0.00000E+00  9.000E+00
#rwgt            1           1   2.6312239406041757E-002           4       11999           0
</event>
<event>
      5   9999  3.19816E-02  9.30752E+01 -1.00000E+00  1.25246E-01
       2    -1     0     0   502     0  0.000000000E+00  0.000000000E+00  1.489026144E+03  1.489026144E+03  0.000000000E+00  0.00000E+00  9.000E+00
      21    -1     0     0   501   502  0.000000000E+00  0.000000000E+00 -3.721201509E+03  3.721201509E+03  0.000000000E+00  0.00000E+00  9.000E+00
      25     1     1     2     0     0 -3.717821870E+02  5.103052903E+02 -3.487631398E+03  3.546523827E+03  1.250000000E+02  0.00000E+00  9.000E+00
      25     1     1     2     0     0  3.211458149E+02 -4.322094573E+02  1.758249548E+02  5.800681548E+02  1.250000000E+02  0.00000E+00  9.000E+00
       2     1     1     2   501     0  5.063637210E+01 -7.809583293E+01  1.079631079E+03  1.083635671E+03  3.051757812E-05  0.00000E+00  9.000E+00
#rwgt            2          18   1.1562990810384846E-002           4       12261           0
</event>
<event>
      5   9999  3.19816E-02  5.87819E+01 -1.00000E+00  1.35181E-01
       2    -1     0     0   502     0  0.000000000E+00  0.000000000E+00  2.650651556E+03  2.650651556E+03  0.000000000E+00  0.00000E+00  9.000E+00
      21    -1     0     0   501   502  0.000000000E+00  0.000000000E+00 -7.685250521E+02  7.685250521E+02  0.000000000E+00  0.00000E+00  9.000E+00
      25     1     1     2     0     0 -9.690713796E+02  6.160469993E+02  4.311668499E+02  1.232940833E+03  1.250000000E+02  0.00000E+00  9.000E+00
      25     1     1     2     0     0  9.462044867E+02 -5.618951585E+02  4.693861577E+02  1.202903764E+03  1.250000000E+02  0.00000E+00  9.000E+00
       2     1     1     2   501     0  2.286689290E+01 -5.415184082E+01  9.815734959E+02  9.833320113E+02  0.000000000E+00  0.00000E+00  9.000E+00
#rwgt            1           1   2.5022302595789709E-002           4       12280           0
</event>
<event>
      5   9999  3.19816E-02  1.41086E+01 -1.00000E+00  1.79927E-01
      21    -1     0     0   502   511  0.000000000E+00  0.000000000E+00  7.876673298E+02  7.876673298E+02  0.000000000E+00  0.00000E+00  9.000E+00
      21    -1     0     0   501   502  0.000000000E+00  0.000000000E+00 -1.637480246E+02  1.637480246E+02  0.000000000E+00  0.00000E+00  9.000E+00
      25     1     1     2     0     0  9.816801410E+00 -2.707860789E+02  1.060582266E+02  3.166935704E+02  1.250000000E+02  0.00000E+00  9.000E+00
      25     1     1     2     0     0 -9.585798932E-01  2.817671605E+02  3.504886375E+02  4.667557569E+02  1.250000000E+02  0.00000E+00  9.000E+00
      21     1     1     2   501   511 -8.858221517E+00 -1.098108158E+01  1.673724411E+02  1.679660272E+02  0.000000000E+00  0.00000E+00  9.000E+00
#rwgt            1           1   2.7851511127786947E-002           4       12436           0
</event>
<event>
      5   9999  3.19816E-02  3.18282E+01 -1.00000E+00  1.51277E-01
      21    -1     0     0   502   501  0.000000000E+00  0.000000000E+00  3.062863483E+02  3.062863483E+02  0.000000000E+00  0.00000E+00  9.000E+00
      21    -1     0     0   512   502  0.000000000E+00  0.000000000E+00 -4.078594197E+02  4.078594197E+02  0.000000000E+00  0.00000E+00  9.000E+00
      25     1     1     2     0     0  2.617939396E+01 -1.798672708E+02 -9.906212770E+01  2.418179086E+02  1.250000000E+02  0.00000E+00  9.000E+00
      25     1     1     2     0     0 -5.791168789E+01  1.823363307E+02  1.776005534E+02  2.894257377E+02  1.250000000E+02  0.00000E+00  9.000E+00
      21     1     1     2   512   501  3.173229393E+01 -2.469059871E+00 -1.801114971E+02  1.829021217E+02  2.697398305E-06  0.00000E+00  9.000E+00
#rwgt            1           1   3.0569766610815813E-002           4       12575           0
</event>
<event>
      5   9999  3.19816E-02  2.27208E+01 -1.00000E+00  1.61925E-01
      21    -1     0     0   502   511  0.000000000E+00  0.000000000E+00  3.062493865E+02  3.062493865E+02  0.000000000E+00  0.00000E+00  9.000E+00
      21    -1     0     0   501   502  0.000000000E+00  0.000000000E+00 -1.515715223E+02  1.515715223E+02  0.000000000E+00  0.00000E+00  9.000E+00
      25     1     1     2     0     0  9.915395781E+01 -8.680778452E+01 -2.328273276E+01  1.831234132E+02  1.250000000E+02  0.00000E+00  9.000E+00
      25     1     1     2     0     0 -8.725037725E+01  1.061608497E+02  1.654511280E+02  2.487605879E+02  1.250000000E+02  0.00000E+00  9.000E+00
      21     1     1     2   501   511 -1.190358057E+01 -1.935306521E+01  1.250946896E+01  2.593690762E+01  6.078504936E-07  0.00000E+00  9.000E+00
#rwgt            1           1   2.5339967223546669E-002           4       12740           0
</event>
<event>
      5   9999  3.19816E-02  1.25637E+02 -1.00000E+00  1.19528E-01
       2    -1     0     0   502     0  0.000000000E+00  0.000000000E+00  2.990929713E+02  2.990929713E+02  0.000000000E+00  0.00000E+00  9.000E+00
      21    -1     0     0   501   502  0.000000000E+00  0.000000000E+00 -3.123673115E+02  3.123673115E+02  0.000000000E+00  0.00000E+00  9.000E+00
      25     1     1     2     0     0 -1.276185285E+01 -1.075702205E+02 -9.218065085E+01  1.893580989E+02  1.250000000E+02  0.00000E+00  9.000E+00
      25     1     1     2     0     0  9.283016707E+01  1.075206315E+01  1.958714243E+02  2.504469238E+02  1.250000000E+02  0.00000E+00  9.000E+00
       2     1     1     2   501     0 -8.006831422E+01  9.681815734E+01 -1.169651136E+02  1.716552601E+02  1.348699152E-06  0.00000E+00  9.000E+00
#rwgt            1           1   2.1642513418596701E-002           4       12908           0
</event>
<event>
      5   9999  3.19816E-02  9.88523E+01 -1.00000E+00  1.24054E-01
      21    -1     0     0   502   501  0.000000000E+00  0.000000000E+00  4.658051417E+02  4.658051417E+02  0.000000000E+00  0.00000E+00  9.000E+00
      21    -1     0     0   501   511  0.000000000E+00  0.000000000E+00 -6.007827535E+02  6.007827535E+02  0.000000000E+00  0.00000E+00  9.000E+00
      25     1     1     2     0     0 -3.477966625E+02 -2.615370275E+02  1.741054557E+01  4.530918917E+02  1.250000000E+02  0.00000E+00  9.000E+00
      25     1     1     2     0     0  3.011864882E+02  3.487107697E+02 -6.552792012E+01  4.819039426E+02  1.250000000E+02  0.00000E+00  9.000E+00
      21     1     1     2   502   511  4.661017429E+01 -8.717374211E+01 -8.686023734E+01  1.315920609E+02  1.907348633E-06  0.00000E+00  9.000E+00
#rwgt            1           1   2.5482821877283672E-002           4       12990           0
</event>
<event>
      5   9999  3.19816E-02  1.99622E+02 -1.00000E+00  1.11678E-01
      21    -1     0     0   512   501  0.000000000E+00  0.000000000E+00  1.273250263E+03  1.273250263E+03  0.000000000E+00  0.00000E+00  9.000E+00
      21    -1     0     0   501   502  0.000000000E+00  0.000000000E+00 -1.498523133E+03  1.498523133E+03  0.000000000E+00  0.00000E+00  9.000E+00
      25     1     1     2     0     0 -2.186331258E+02 -7.874885692E+01 -1.272274385E+03  1.299349428E+03  1.250000000E+02  0.00000E+00  9.000E+00
      25     1     1     2     0     0  4.801943786E+01  1.823824735E+02 -1.417706474E+02  2.670077705E+02  1.250000000E+02  0.00000E+00  9.000E+00
      21     1     1     2   512   502  1.706136880E+02 -1.036336166E+02  1.188772162E+03  1.205416198E+03  0.000000000E+00  0.00000E+00  9.000E+00
#rwgt            1           1   3.6576271525322814E-002           4       13079           0
</event>
<event>
      5   9999  3.19816E-02  1.41384E+01 -1.00000E+00  1.79838E-01
      21    -1     0     0   511   501  0.000000000E+00  0.000000000E+00  8.088613530E+02  8.088613530E+02  0.000000000E+00  0.00000E+00  9.000E+00
      21    -1     0     0   501   502  0.000000000E+00  0.000000000E+00 -1.246053219E+02  1.246053219E+02  0.000000000E+00  0.00000E+00  9.000E+00
      25     1     1     2     0     0  1.358517940E+02 -1.477085054E+02  5.545040868E+02  6.028045245E+02  1.250000000E+02  0.00000E+00  9.000E+00
      25     1     1     2     0     0 -1.493032981E+02  1.520619164E+02  5.308190991E+01  2.526994072E+02  1.250000000E+02  0.00000E+00  9.000E+00
      21     1     1     2   511   502  1.345150409E+01 -4.353411029E+00  7.667003447E+01  7.796274325E+01  9.536743164E-07  0.00000E+00  9.000E+00
#rwgt            1           1   2.9147569833269143E-002           4       13119           0
</event>
<event>
      5   9999  3.19816E-02  3.80092E+01 -1.00000E+00  1.46229E-01
      21    -1     0     0   512   501  0.000000000E+00  0.000000000E+00  7.957377052E+02  7.957377052E+02  0.000000000E+00  0.00000E+00  9.000E+00
      21    -1     0     0   501   502  0.000000000E+00  0.000000000E+00 -2.088831258E+03  2.088831258E+03  0.000000000E+00  0.00000E+00  9.000E+00
      25     1     1     2     0     0 -6.485527261E+02 -1.886380688E+02 -1.700171420E+03  1.833688309E+03  1.250000000E+02  0.00000E+00  9.000E+00
      25     1     1     2     0     0  6.647623967E+02  1.542585960E+02  5.412533364E+01  6.958874265E+02  1.250000000E+02  0.00000E+00  9.000E+00
      21     1     1     2   512   502 -1.620967068E+01  3.437947278E+01  3.529525327E+02  3.549932280E+02  6.607249480E-06  0.00000E+00  9.000E+00
#rwgt            1           1   3.3991735660590286E-002           4       13344           0
</event>
<event>
      5   9999  3.19816E-02  1.88530E+01 -1.00000E+00  1.68514E-01
      21    -1     0     0   502   501  0.000000000E+00  0.000000000E+00  4.894161516E+02  4.894161516E+02  0.000000000E+00  0.00000E+00  9.000E+00
       2    -1     0     0   501     0  0.000000000E+00  0.000000000E+00 -4.478097576E+02  4.478097576E+02  0.000000000E+00  0.00000E+00  9.000E+00
      25     1     1     2     0     0  6.618734790E+01  1.480998988E+02  4.039122847E+02  4.528625385E+02  1.250000000E+02  0.00000E+00  9.000E+00
      25     1     1     2     0     0 -8.335479758E+01 -1.403080178E+02 -1.134577534E+02  2.348020953E+02  1.250000000E+02  0.00000E+00  9.000E+00
       2     1     1     2   502     0  1.716744968E+01 -7.791880962E+00 -2.488481372E+02  2.495612753E+02  3.814697266E-06  0.00000E+00  9.000E+00
#rwgt            1           1   2.7442025569356255E-002           4       13497           0
</event>
<event>
      5   9999  3.19816E-02  9.43412E+01 -1.00000E+00  1.24977E-01
       3    -1     0     0   502     0  0.000000000E+00  0.000000000E+00  2.207973069E+02  2.207973069E+02  0.000000000E+00  0.00000E+00  9.000E+00
      21    -1     0     0   501   502  0.000000000E+00  0.000000000E+00 -2.516803658E+02  2.516803658E+02  0.000000000E+00  0.00000E+00  9.000E+00
      25     1     1     2     0     0 -1.237058104E+01  3.115529453E+01  2.762396899E+01  1.323320343E+02  1.250000000E+02  0.00000E+00  9.000E+00
      25     1     1     2     0     0  9.816552811E+01  8.081115135E+00 -1.426600695E+02  2.137256905E+02  1.250000000E+02  0.00000E+00  9.000E+00
       3     1     1     2   501     0 -8.579494707E+01 -3.923640966E+01  8.415304163E+01  1.264199478E+02  1.907348633E-06  0.00000E+00  9.000E+00
#rwgt            1           1   7.4312622152626129E-002           4       13641           0
</event>
<event>
      5   9999  3.19816E-02  4.35990E+01 -1.00000E+00  1.42557E-01
      21    -1     0     0   502   501  0.000000000E+00  0.000000000E+00  4.162177862E+02  4.162177862E+02  0.000000000E+00  0.00000E+00  9.000E+00
      21    -1     0     0   501   511  0.000000000E+00  0.000000000E+00 -4.046257712E+02  4.046257712E+02  0.000000000E+00  0.00000E+00  9.000E+00
      25     1     1     2     0     0 -1.417610975E+02 -9.232523671E+01  2.857985048E+02  3.548604563E+02  1.250000000E+02  0.00000E+00  9.000E+00
      25     1     1     2     0     0  1.568367262E+02  1.332348457E+02 -6.102847505E+01  2.483923460E+02  1.250000000E+02  0.00000E+00  9.000E+00
      21     1     1     2   502   511 -1.507562874E+01 -4.090960896E+01 -2.131780148E+02  2.175907550E+02  2.697398305E-06  0.00000E+00  9.000E+00
#rwgt            1           1   2.3757703508997110E-002           4       13680           0
</event>
<event>
      5   9999  3.19816E-02  3.10283E+01 -1.00000E+00  1.52030E-01
      21    -1     0     0   502   512  0.000000000E+00  0.000000000E+00  3.628508108E+02  3.628508108E+02  0.000000000E+00  0.00000E+00  9.000E+00
      21    -1     0     0   501   502  0.000000000E+00  0.000000000E+00 -3.124727802E+02  3.124727802E+02  0.000000000E+00  0.00000E+00  9.000E+00
      25     1     1     2     0     0  7.536207652E+01 -2.328889161E+02  5.603719494E+01  2.805028646E+02  1.250000000E+02  0.00000E+00  9.000E+00
      25     1     1     2     0     0 -4.501489355E+01  2.393545082E+02 -1.031251463E+02  2.925349843E+02  1.250000000E+02  0.00000E+00  9.000E+00
      21     1     1     2   501   512 -3.034718296E+01 -6.465592131E+00  9.746598197E+01  1.022857421E+02  0.000000000E+00  0.00000E+00  9.000E+00
#rwgt            1           1   2.9823624720201360E-002           4       13744           0
</event>
<event>
      5   9999  3.19816E-02  4.86793E+02 -1.00000E+00  9.91834E-02
      21    -1     0     0   511   501  0.000000000E+00  0.000000000E+00  1.894033761E+03  1.894033761E+03  0.000000000E+00  0.00000E+00  9.000E+00
      21    -1     0     0   501   502  0.000000000E+00  0.000000000E+00 -1.239750960E+03  1.239750960E+03  0.000000000E+00  0.00000E+00  9.000E+00
      25     1     1     2     0     0 -4.189369720E+02  2.608807877E+02  3.184314267E+02  6.004919195E+02  1.250000000E+02  0.00000E+00  9.000E+00
      25     1     1     2     0     0  7.748611093E+01 -6.078371009E+02 -9.618573967E+02  1.147285793E+03  1.250000000E+02  0.00000E+00  9.000E+00
      21     1     1     2   511   502  3.414508610E+02  3.469563133E+02  1.297708771E+03  1.386007009E+03  2.157918644E-05  0.00000E+00  9.000E+00
#rwgt            1           1   3.1140806639733464E-002           4       13894           0
</event>
<event>
      5   9999  3.19816E-02  8.90863E+00 -1.00000E+00  2.01744E-01
      21    -1     0     0   512   501  0.000000000E+00  0.000000000E+00  8.067982325E+02  8.067982325E+02  0.000000000E+00  0.00000E+00  9.000E+00
      21    -1     0     0   501   502  0.000000000E+00  0.000000000E+00 -1.288437568E+02  1.288437568E+02  0.000000000E+00  0.00000E+00  9.000E+00
      25     1     1     2     0     0 -2.903411973E+02  1.132313440E+01  3.363806373E+02  4.617392742E+02  1.250000000E+02  0.00000E+00  9.000E+00
      25     1     1     2     0     0  2.940692901E+02 -3.232084112E+00  3.310736829E+02  4.601325649E+02  1.250000000E+02  0.00000E+00  9.000E+00
      21     1     1     2   512   502 -3.728092731E+00 -8.091050287E+00  1.050015548E+01  1.377015015E+01  2.064765462E-07  0.00000E+00  9.000E+00
#rwgt            1           1   2.8759361131802708E-002           4       13940           0
</event>
<event>
      5   9999  3.19816E-02  7.28420E+00 -1.00000E+00  2.13139E-01
      21    -1     0     0   502   501  0.000000000E+00  0.000000000E+00  6.260668284E+02  6.260668284E+02  0.000000000E+00  0.00000E+00  9.000E+00
      21    -1     0     0   501   511  0.000000000E+00  0.000000000E+00 -5.661670827E+02  5.661670827E+02  0.000000000E+00  0.00000E+00  9.000E+00
      25     1     1     2     0     0  1.248853378E+02  5.629348505E+01  3.490648265E+02  3.952677031E+02  1.250000000E+02  0.00000E+00  9.000E+00
      25     1     1     2     0     0 -1.267155593E+02 -6.334400470E+01  2.187248918E+02  2.890240028E+02  1.250000000E+02  0.00000E+00  9.000E+00
      21     1     1     2   502   511  1.830221410E+00  7.050519649E+00 -5.078899726E+02  5.079422052E+02  7.629394531E-06  0.00000E+00  9.000E+00
#rwgt            1           1   3.2257080649059862E-002           4       14154           0
</event>
<event>
      5   9999  3.19816E-02  1.27897E+02 -1.00000E+00  1.19205E-01
      21    -1     0     0   502   501  0.000000000E+00  0.000000000E+00  5.979666240E+02  5.979666240E+02  0.000000000E+00  0.00000E+00  9.000E+00
      21    -1     0     0   512   502  0.000000000E+00  0.000000000E+00 -1.014593439E+03  1.014593439E+03  0.000000000E+00  0.00000E+00  9.000E+00
      25     1     1     2     0     0  4.370138194E+02 -2.788119775E+02  8.349267246E+01  5.397344009E+02  1.250000000E+02  0.00000E+00  9.000E+00
      25     1     1     2     0     0 -3.720408010E+02  1.686479629E+02  1.167433281E+02  4.428436492E+02  1.250000000E+02  0.00000E+00  9.000E+00
      21     1     1     2   512   501 -6.497301836E+01  1.101640146E+02 -6.168628152E+02  6.299820124E+02  1.321449896E-05  0.00000E+00  9.000E+00
#rwgt            2          11   2.3437888750100651E-003           4       14463           0
</event>
<event>
      5   9999  3.19816E-02  1.89864E+01 -1.00000E+00  1.68255E-01
      21    -1     0     0   511   501  0.000000000E+00  0.000000000E+00  1.483210419E+02  1.483210419E+02  0.000000000E+00  0.00000E+00  9.000E+00
      21    -1     0     0   501   502  0.000000000E+00  0.000000000E+00 -1.064012831E+03  1.064012831E+03  0.000000000E+00  0.00000E+00  9.000E+00
      25     1     1     2     0     0 -4.841626708E+01  2.663998409E+02 -7.993390277E+02  8.531593587E+02  1.250000000E+02  0.00000E+00  9.000E+00
      25     1     1     2     0     0  6.539758291E+01 -2.748921053E+02 -1.305911688E+02  3.354423449E+02  1.250000000E+02  0.00000E+00  9.000E+00
      21     1     1     2   511   502 -1.698131583E+01  8.492264323E+00  1.423840707E+01  2.373216965E+01  6.307962682E-07  0.00000E+00  9.000E+00
#rwgt            1           1   2.9583148620950225E-002           4       14483           0
</event>
<event>
      5   9999  3.19816E-02  8.75730E+01 -1.00000E+00  1.26477E-01
      21    -1     0     0   502   501  0.000000000E+00  0.000000000E+00  1.057544844E+03  1.057544844E+03  0.000000000E+00  0.00000E+00  9.000E+00
      21    -1     0     0   512   502  0.000000000E+00  0.000000000E+00 -3.609572047E+02  3.609572047E+02  0.000000000E+00  0.00000E+00  9.000E+00
      25     1     1     2     0     0 -3.232501261E+02 -3.758809169E+02  7.145519381E+02  8.786276686E+02  1.250000000E+02  0.00000E+00  9.000E+00
      25     1     1     2     0     0  2.827111251E+02  2.982560895E+02  4.517674670E+01  4.319122754E+02  1.250000000E+02  0.00000E+00  9.000E+00
      21     1     1     2   512   501  4.053900098E+01  7.762482742E+01 -6.314104552E+01  1.079621048E+02  3.015782986E-06  0.00000E+00  9.000E+00
#rwgt            1           1   2.2439428959448879E-002           4       14658           0
</event>
<event>
      5   9999  3.19816E-02  1.75659E+02 -1.00000E+00  1.13739E-01
      21    -1     0     0   502   501  0.000000000E+00  0.000000000E+00  4.816346835E+02  4.816346835E+02  0.000000000E+00  0.00000E+00  9.000E+00
       2    -1     0     0   501     0  0.000000000E+00  0.000000000E+00 -7.487925825E+02  7.487925825E+02  0.000000000E+00  0.00000E+00  9.000E+00
      25     1     1     2     0     0  2.748043862E+02 -3.899637312E+02 -9.042786747E+01  5.013894310E+02  1.250000000E+02  0.00000E+00  9.000E+00
      25     1     1     2     0     0 -4.169012732E+02  2.866944162E+02 -7.640407443E+01  5.267475130E+02  1.250000000E+02  0.00000E+00  9.000E+00
       2     1     1     2   502     0  1.420968869E+02  1.032693150E+02 -1.003259571E+02  2.022903220E+02  2.697398305E-06  0.00000E+00  9.000E+00
#rwgt            1           1   2.6364620667089698E-002           4       14743           0
</event>
<event>
      5   9999  3.19816E-02  8.91038E+01 -1.00000E+00  1.26124E-01
       1    -1     0     0   502     0  0.000000000E+00  0.000000000E+00  3.586596200E+02  3.586596200E+02  0.000000000E+00  0.00000E+00  9.000E+00
      21    -1     0     0   501   502  0.000000000E+00  0.000000000E+00 -9.230967148E+02  9.230967148E+02  0.000000000E+00  0.00000E+00  9.000E+00
      25     1     1     2     0     0 -1.524326842E+02  3.153694790E+02 -2.337885566E+02  4.392900189E+02  1.250000000E+02  0.00000E+00  9.000E+00
      25     1     1     2     0     0  1.777263036E+02 -2.299310307E+02 -5.338739370E+02  6.205653055E+02  1.250000000E+02  0.00000E+00  9.000E+00
       1     1     1     2   501     0 -2.529361946E+01 -8.543844836E+01  2.032253988E+02  2.219010103E+02  2.697398305E-06  0.00000E+00  9.000E+00
#rwgt            1           1   3.2001820344997253E-002           4       14808           0
</event>
<event>
      5   9999  3.19816E-02  2.69838E+01 -1.00000E+00  1.56306E-01
      21    -1     0     0   502   501  0.000000000E+00  0.000000000E+00  5.874231869E+02  5.874231869E+02  0.000000000E+00  0.00000E+00  9.000E+00
      21    -1     0     0   501   511  0.000000000E+00  0.000000000E+00 -4.581149634E+02  4.581149634E+02  0.000000000E+00  0.00000E+00  9.000E+00
      25     1     1     2     0     0  4.676448989E+01 -3.490775386E+02 -2.769929766E+02  4.651797014E+02  1.250000000E+02  0.00000E+00  9.000E+00
      25     1     1     2     0     0 -1.994883680E+01  3.460696710E+02  4.120322039E+02  5.527727474E+02  1.250000000E+02  0.00000E+00  9.000E+00
      21     1     1     2   502   511 -2.681565308E+01  3.007867647E+00 -5.731003821E+00  2.758570142E+01  4.616955931E-07  0.00000E+00  9.000E+00
#rwgt            1           1   2.7628274324470230E-002           4       14879           0
</event>
<event>
      5   9999  3.19816E-02  5.45058E+01 -1.00000E+00  1.36971E-01
      21    -1     0     0   502   501  0.000000000E+00  0.000000000E+00  2.707656811E+02  2.707656811E+02  0.000000000E+00  0.00000E+00  9.000E+00
       1    -1     0     0   501     0  0.000000000E+00  0.000000000E+00 -4.582275034E+02  4.582275034E+02  0.000000000E+00  0.00000E+00  9.000E+00
      25     1     1     2     0     0  9.366021216E+01  1.910871864E+02  6.635526808E+01  2.555671531E+02  1.250000000E+02  0.00000E+00  9.000E+00
      25     1     1     2     0     0 -6.467436999E+01 -1.449276786E+02  1.171379575E+01  2.023586400E+02  1.250000000E+02  0.00000E+00  9.000E+00
       1     1     1     2   502     0 -2.898584217E+01 -4.615950777E+01 -2.655308861E+02  2.710673914E+02  5.394796609E-06  0.00000E+00  9.000E+00
#rwgt            1           1   2.4333107370232646E-002           4       15005           0
</event>
<event>
      5   9999  3.19816E-02  1.64545E+02 -1.00000E+00  1.14823E-01
      21    -1     0     0   511   501  0.000000000E+00  0.000000000E+00  7.862147761E+02  7.862147761E+02  0.000000000E+00  0.00000E+00  9.000E+00
      21    -1     0     0   501   502  0.000000000E+00  0.000000000E+00 -5.540017458E+02  5.540017458E+02  0.000000000E+00  0.00000E+00  9.000E+00
      25     1     1     2     0     0  3.848998223E+02  3.624199762E+01 -2.255198232E+02  4.646994150E+02  1.250000000E+02  0.00000E+00  9.000E+00
      25     1     1     2     0     0 -4.073645294E+02 -1.992465594E+02  9.878869341E+01  4.806550293E+02  1.250000000E+02  0.00000E+00  9.000E+00
      21     1     1     2   511   502  2.246470708E+01  1.630045618E+02  3.589441602E+02  3.948620776E+02  5.394796609E-06  0.00000E+00  9.000E+00
#rwgt            2          11   2.5886050013771774E-003           4       15233           0
</event>
<event>
      5   9999  3.19816E-02  3.91065E+01 -1.00000E+00  1.45451E-01
      21    -1     0     0   502   501  0.000000000E+00  0.000000000E+00  2.707590850E+03  2.707590850E+03  0.000000000E+00  0.00000E+00  9.000E+00
      21    -1     0     0   501   512  0.000000000E+00  0.000000000E+00 -7.603106536E+01  7.603106536E+01  0.000000000E+00  0.00000E+00  9.000E+00
      25     1     1     2     0     0 -2.995067182E+02 -1.884550009E+02  1.679897461E+03  1.721307655E+03  1.250000000E+02  0.00000E+00  9.000E+00
      25     1     1     2     0     0  2.723971952E+02  2.166399054E+02  9.539690900E+02  1.023139827E+03  1.250000000E+02  0.00000E+00  9.000E+00
      21     1     1     2   502   512  2.710952302E+01 -2.818490451E+01 -2.306766819E+00  3.917443367E+01  1.167247059E-06  0.00000E+00  9.000E+00
#rwgt            1           1   5.5348088667093134E-002           4       15253           0
</event>
<event>
      5   9999  3.19816E-02  3.58594E+01 -1.00000E+00  1.47846E-01
      21    -1     0     0   511   501  0.000000000E+00  0.000000000E+00  1.488760453E+03  1.488760453E+03  0.000000000E+00  0.00000E+00  9.000E+00
      21    -1     0     0   501   502  0.000000000E+00  0.000000000E+00 -9.528612094E+02  9.528612094E+02  0.000000000E+00  0.00000E+00  9.000E+00
      25     1     1     2     0     0  6.407258509E+02  3.421927385E+01  8.744930015E+02  1.091816644E+03  1.250000000E+02  0.00000E+00  9.000E+00
      25     1     1     2     0     0 -6.751224499E+02 -2.408173526E+01 -7.033985786E+02  9.832419909E+02  1.250000000E+02  0.00000E+00  9.000E+00
      21     1     1     2   511   502  3.439659897E+01 -1.013753859E+01  3.648048205E+02  3.665630270E+02  0.000000000E+00  0.00000E+00  9.000E+00
#rwgt            1           1   3.1688917550289374E-002           4       15368           0
</event>
<event>
      5   9999  3.19816E-02  1.56895E+02 -1.00000E+00  1.15625E-01
       2    -1     0     0   502     0  0.000000000E+00  0.000000000E+00  1.282463602E+03  1.282463602E+03  0.000000000E+00  0.00000E+00  9.000E+00
      21    -1     0     0   501   502  0.000000000E+00  0.000000000E+00 -2.465630024E+02  2.465630024E+02  0.000000000E+00  0.00000E+00  9.000E+00
      25     1     1     2     0     0 -3.456897447E+01  4.111639607E+02  7.256148637E+01  4.371967359E+02  1.250000000E+02  0.00000E+00  9.000E+00
      25     1     1     2     0     0 -7.775230195E+01 -3.016196744E+02  7.882579915E+02  8.567353790E+02  1.250000000E+02  0.00000E+00  9.000E+00
       2     1     1     2   501     0  1.123212764E+02 -1.095442863E+02  1.750811219E+02  2.350944896E+02  3.303624740E-06  0.00000E+00  9.000E+00
#rwgt            1           1   3.2856350061138247E-002           4       15548           0
</event>
<event>
      5   9999  3.19816E-02  2.59688E+02 -1.00000E+00  1.07669E-01
      21    -1     0     0   502   501  0.000000000E+00  0.000000000E+00  1.222365162E+03  1.222365162E+03  0.000000000E+00  0.00000E+00  9.000E+00
      21    -1     0     0   511   502  0.000000000E+00  0.000000000E+00 -1.597563631E+02  1.597563631E+02  0.000000000E+00  0.00000E+00  9.000E+00
      25     1     1     2     0     0 -1.379476595E+01  1.179012848E+01 -3.998539272E+00  1.263736168E+02  1.250000000E+02  0.00000E+00  9.000E+00
      25     1     1     2     0     0  1.733089362E+01 -2.714538742E+02  8.968671589E+02  9.455068833E+02  1.250000000E+02  0.00000E+00  9.000E+00
      21     1     1     2   511   501 -3.536127670E+00  2.596637457E+02  1.697401791E+02  3.102410248E+02  3.303624740E-06  0.00000E+00  9.000E+00
#rwgt            1           1   3.0458528889895722E-002           4       15607           0
</event>
<event>
      5   9999  3.19816E-02  4.88259E+01 -1.00000E+00  1.39667E-01
      21    -1     0     0   502   501  0.000000000E+00  0.000000000E+00  1.066338029E+03  1.066338029E+03  0.000000000E+00  0.00000E+00  9.000E+00
      -1    -1     0     0     0   502  0.000000000E+00  0.000000000E+00 -1.351041217E+03  1.351041217E+03  0.000000000E+00  0.00000E+00  9.000E+00
      25     1     1     2     0     0 -5.081616059E+01 -3.801266121E+02 -1.374446219E+02  4.261391175E+02  1.250000000E+02  0.00000E+00  9.000E+00
      25     1     1     2     0     0  9.964205956E+01  3.800695421E+02  8.752814743E+02  9.675350413E+02  1.250000000E+02  0.00000E+00  9.000E+00
      -1     1     1     2     0   501 -4.882589898E+01  5.706996278E-02 -1.022540040E+03  1.023705087E+03  1.078959322E-05  0.00000E+00  9.000E+00
#rwgt            1           1   3.0819057450845563E-002           4       15686           0
</event>
<event>
      5   9999  3.19816E-02  1.27788E+02 -1.00000E+00  1.19220E-01
       2    -1     0     0   502     0  0.000000000E+00  0.000000000E+00  1.656288113E+03  1.656288113E+03  0.000000000E+00  0.00000E+00  9.000E+00
      21    -1     0     0   501   502  0.000000000E+00  0.000000000E+00 -1.134295517E+03  1.134295517E+03  0.000000000E+00  0.00000E+00  9.000E+00
      25     1     1     2     0     0  1.114367786E+02 -3.387740038E+02  1.417892517E+03  1.467388896E+03  1.250000000E+02  0.00000E+00  9.000E+00
      25     1     1     2     0     0 -1.305252629E+02  2.124200194E+02 -1.070834061E+03  1.106557588E+03  1.250000000E+02  0.00000E+00  9.000E+00
       2     1     1     2   501     0  1.908848430E+01  1.263539845E+02  1.749341397E+02  2.166371456E+02  0.000000000E+00  0.00000E+00  9.000E+00
#rwgt            1           1   4.7716050228567425E-002           4       15918           0
</event>
<event>
      5   9999  3.19816E-02  2.66624E+01 -1.00000E+00  1.56685E-01
      21    -1     0     0   502   501  0.000000000E+00  0.000000000E+00  1.071592771E+03  1.071592771E+03  0.000000000E+00  0.00000E+00  9.000E+00
      21    -1     0     0   501   511  0.000000000E+00  0.000000000E+00 -1.059965311E+02  1.059965311E+02  0.000000000E+00  0.00000E+00  9.000E+00
      25     1     1     2     0     0  9.411657014E+01  2.152820685E+02  1.554128557E+02  3.081922347E+02  1.250000000E+02  0.00000E+00  9.000E+00
      25     1     1     2     0     0 -1.196894264E+02 -2.228262317E+02  7.781499694E+02  8.277194350E+02  1.250000000E+02  0.00000E+00  9.000E+00
      21     1     1     2   502   511  2.557285624E+01  7.544163167E+00  3.203341484E+01  4.167763238E+01  4.768371582E-07  0.00000E+00  9.000E+00
#rwgt            1           1   2.8807275064921131E-002           4       16021           0
</event>
<event>
      5   9999  3.19816E-02  8.16973E+01 -1.00000E+00  1.27910E-01
      21    -1     0     0   502   501  0.000000000E+00  0.000000000E+00  8.978863828E+02  8.978863828E+02  0.000000000E+00  0.00000E+00  9.000E+00
      21    -1     0     0   512   502  0.000000000E+00  0.000000000E+00 -2.502643162E+02  2.502643162E+02  0.000000000E+00  0.00000E+00  9.000E+00
      25     1     1     2     0     0 -5.438989420E+01 -3.055364229E+02 -2.958710359E+01  3.358737308E+02  1.250000000E+02  0.00000E+00  9.000E+00
      25     1     1     2     0     0  1.289986115E+02  2.722499189E+02  6.481019998E+02  7.255493520E+02  1.250000000E+02  0.00000E+00  9.000E+00
      21     1     1     2   512   501 -7.460871734E+01  3.328650396E+01  2.910717036E+01  8.672761622E+01  8.259061849E-07  0.00000E+00  9.000E+00
#rwgt            1           1   2.9590453042120921E-002           4       16188           0
</event>
<event>
      5   9999  3.19816E-02  9.56561E+00 -1.00000E+00  1.98013E-01
      21    -1     0     0   502   501  0.000000000E+00  0.000000000E+00  2.684376259E+01  2.684376259E+01  0.000000000E+00  0.00000E+00  9.000E+00
      21    -1     0     0   501   511  0.000000000E+00  0.000000000E+00 -1.695665048E+03  1.695665048E+03  0.000000000E+00  0.00000E+00  9.000E+00
      25     1     1     2     0     0 -5.600285325E+01  1.156810002E+02 -8.001734228E+02  8.200127560E+02  1.250000000E+02  0.00000E+00  9.000E+00
      25     1     1     2     0     0  5.199589155E+01 -1.069950831E+02 -4.243232742E+02  4.580685119E+02  1.250000000E+02  0.00000E+00  9.000E+00
      21     1     1     2   502   511  4.006961705E+00 -8.685917088E+00 -4.443245885E+02  4.444275429E+02  5.394796609E-06  0.00000E+00  9.000E+00
#rwgt            1           1   3.2784338717425573E-002           4       16265           0
</event>
<event>
      5   9999  3.19816E-02  1.82617E+02 -1.00000E+00  1.13105E-01
      21    -1     0     0   502   501  0.000000000E+00  0.000000000E+00  3.897981431E+02  3.897981431E+02  0.000000000E+00  0.00000E+00  9.000E+00
       2    -1     0     0   501     0  0.000000000E+00  0.000000000E+00 -3.080788779E+03  3.080788779E+03  0.000000000E+00  0.00000E+00  9.000E+00
      25     1     1     2     0     0  6.976040689E+01  9.718361081E+01 -2.668199439E+03  2.673803361E+03  1.250000000E+02  0.00000E+00  9.000E+00
      25     1     1     2     0     0 -2.588363330E+01  8.008423901E+01  3.503324987E+02  3.813676801E+02  1.250000000E+02  0.00000E+00  9.000E+00
       2     1     1     2   502     0 -4.387677359E+01 -1.772678498E+02 -3.731236962E+02  4.154158814E+02  5.394796609E-06  0.00000E+00  9.000E+00
#rwgt            1           1   3.4942809160089246E-002           4       16393           0
</event>
<event>
      5   9999  3.19816E-02  3.85767E+02 -1.00000E+00  1.02161E-01
      21    -1     0     0   511   501  0.000000000E+00  0.000000000E+00  1.034743327E+03  1.034743327E+03  0.000000000E+00  0.00000E+00  9.000E+00
      21    -1     0     0   501   502  0.000000000E+00  0.000000000E+00 -7.646175196E+02  7.646175196E+02  0.000000000E+00  0.00000E+00  9.000E+00
      25     1     1     2     0     0 -1.471530237E+02  3.012257614E+02  4.566223873E+02  5.801034186E+02  1.250000000E+02  0.00000E+00  9.000E+00
      25     1     1     2     0     0  1.417353427E+02 -6.869548567E+02 -3.576766528E+02  7.972160751E+02  1.250000000E+02  0.00000E+00  9.000E+00
      21     1     1     2   511   502  5.417681047E+00  3.857290953E+02  1.711800732E+02  4.220413531E+02  4.672030912E-06  0.00000E+00  9.000E+00
#rwgt            2          11   3.3712363634449067E-003           4       16569           0
</event>
<event>
      5   9999  3.19816E-02  9.30662E+01 -1.00000E+00  1.25248E-01
      21    -1     0     0   502   501  0.000000000E+00  0.000000000E+00  6.399413296E+02  6.399413296E+02  0.000000000E+00  0.00000E+00  9.000E+00
      -2    -1     0     0     0   502  0.000000000E+00  0.000000000E+00 -1.334594415E+03  1.334594415E+03  0.000000000E+00  0.00000E+00  9.000E+00
      25     1     1     2     0     0  2.525821292E+02 -2.044234168E+02  5.633756542E+01  3.526834084E+02  1.250000000E+02  0.00000E+00  9.000E+00
      25     1     1     2     0     0 -3.444202847E+02  1.893547206E+02  3.353278277E+02  5.315546019E+02  1.250000000E+02  0.00000E+00  9.000E+00
      -2     1     1     2     0   501  9.183815554E+01  1.506869617E+01 -1.086318478E+03  1.090297734E+03  1.525878906E-05  0.00000E+00  9.000E+00
#rwgt            1           1   3.1088465993439823E-002           4       16589           0
</event>
<event>
      5   9999  3.19816E-02  9.75619E+01 -1.00000E+00  1.24312E-01
      21    -1     0     0   511   501  0.000000000E+00  0.000000000E+00  1.963233284E+03  1.963233284E+03  0.000000000E+00  0.00000E+00  9.000E+00
      21    -1     0     0   501   502  0.000000000E+00  0.000000000E+00 -1.140265450E+02  1.140265450E+02  0.000000000E+00  0.00000E+00  9.000E+00
      25     1     1     2     0     0  3.664258898E+02  1.012117862E+02  1.310105121E+03  1.369858455E+03  1.250000000E+02  0.00000E+00  9.000E+00
      25     1     1     2     0     0 -2.782609374E+02 -1.429880951E+02  3.076698336E+02  4.562460642E+02  1.250000000E+02  0.00000E+00  9.000E+00
      21     1     1     2   511   502 -8.816495245E+01  4.177630893E+01  2.314317836E+02  2.511553091E+02  2.697398305E-06  0.00000E+00  9.000E+00
#rwgt            1           1   2.9657995053016584E-002           4       16670           0
</event>
<event>
      5   9999  3.19816E-02  1.00156E+02 -1.00000E+00  1.23797E-01
      21    -1     0     0   512   501  0.000000000E+00  0.000000000E+00  3.874605334E+02  3.874605334E+02  0.000000000E+00  0.00000E+00  9.000E+00
      21    -1     0     0   501   502  0.000000000E+00  0.000000000E+00 -2.552754966E+02  2.552754966E+02  0.000000000E+00  0.00000E+00  9.000E+00
      25     1     1     2     0     0 -5.078356933E+01  1.542600241E+02  1.399602162E+02  2.481712877E+02  1.250000000E+02  0.00000E+00  9.000E+00
      25     1     1     2     0     0 -2.574121688E+01 -2.188756207E+02 -8.591180643E+01  2.675350184E+02  1.250000000E+02  0.00000E+00  9.000E+00
      21     1     1     2   512   502  7.652478620E+01  6.461559663E+01  7.813662710E+01  1.270297238E+02  2.132480600E-06  0.00000E+00  9.000E+00
#rwgt            1           1   2.8159066145710180E-002           4       16746           0
</event>
<event>
      5   9999  3.19816E-02  1.19802E+02 -1.00000E+00  1.20399E-01
      21    -1     0     0   502   501  0.000000000E+00  0.000000000E+00  4.296012978E+02  4.296012978E+02  0.000000000E+00  0.00000E+00  9.000E+00
      21    -1     0     0   501   511  0.000000000E+00  0.000000000E+00 -9.023738583E+02  9.023738583E+02  0.000000000E+00  0.00000E+00  9.000E+00
      25     1     1     2     0     0 -3.159805745E+02  2.724160635E+02 -1.847023719E+02  4.730689181E+02  1.250000000E+02  0.00000E+00  9.000E+00
      25     1     1     2     0     0  2.550485403E+02 -3.755655962E+02  7.479175954E+01  4.767788609E+02  1.250000000E+02  0.00000E+00  9.000E+00
      21     1     1     2   502   511  6.093203423E+01  1.031495327E+02 -3.628619481E+02  3.821273770E+02  5.394796609E-06  0.00000E+00  9.000E+00
#rwgt            2          11   2.3854592301129516E-003           4       16960           0
</event>
<event>
      5   9999  3.19816E-02  3.00603E+01 -1.00000E+00  1.52979E-01
      21    -1     0     0   502   501  0.000000000E+00  0.000000000E+00  3.221564885E+02  3.221564885E+02  0.000000000E+00  0.00000E+00  9.000E+00
      21    -1     0     0   501   512  0.000000000E+00  0.000000000E+00 -2.790533651E+02  2.790533651E+02  0.000000000E+00  0.00000E+00  9.000E+00
      25     1     1     2     0     0  1.051695984E+02 -5.954445849E+01 -1.557174268E+02  2.334075919E+02  1.250000000E+02  0.00000E+00  9.000E+00
      25     1     1     2     0     0 -1.307302473E+02  7.536446809E+01  2.443697601E+02  3.132280004E+02  1.250000000E+02  0.00000E+00  9.000E+00
      21     1     1     2   502   512  2.556064890E+01 -1.582000961E+01 -4.554920983E+01  5.457426127E+01  6.743495762E-07  0.00000E+00  9.000E+00
#rwgt            1           1   2.6305310505471940E-002           4       16995           0
</event>
<event>
      5   9999  3.19816E-02  1.75583E+02 -1.00000E+00  1.13746E-01
      21    -1     0     0   511   501  0.000000000E+00  0.000000000E+00  4.146012314E+02  4.146012314E+02  0.000000000E+00  0.00000E+00  9.000E+00
      21    -1     0     0   501   502  0.000000000E+00  0.000000000E+00 -1.560219302E+03  1.560219302E+03  0.000000000E+00  0.00000E+00  9.000E+00
      25     1     1     2     0     0 -6.137356779E+00 -5.206842877E+01 -1.374978695E+03  1.381644021E+03  1.250000000E+02  0.00000E+00  9.000E+00
      25     1     1     2     0     0  1.809319214E+02  6.869109609E+01 -7.458298215E+01  2.421620286E+02  1.250000000E+02  0.00000E+00  9.000E+00
      21     1     1     2   511   502 -1.747945646E+02 -1.662266732E+01  3.039436059E+02  3.510144847E+02  6.607249480E-06  0.00000E+00  9.000E+00
#rwgt            1           1   3.1180308844350749E-002           4       17089           0
</event>
<event>
      5   9999  3.19816E-02  1.23733E+03 -1.00000E+00  8.88248E-02
       1    -1     0     0   502     0  0.000000000E+00  0.000000000E+00  3.447776785E+03  3.447776785E+03  0.000000000E+00  0.00000E+00  9.000E+00
      21    -1     0     0   501   502  0.000000000E+00  0.000000000E+00 -1.199764160E+03  1.199764160E+03  0.000000000E+00  0.00000E+00  9.000E+00
      25     1     1     2     0     0  1.141767726E+03 -1.632159891E+03  8.048001450E+02  2.151954396E+03  1.250000000E+02  0.00000E+00  9.000E+00
      25     1     1     2     0     0 -3.011928633E+02  7.241884153E+02  6.449099503E+02  1.023083499E+03  1.250000000E+02  0.00000E+00  9.000E+00
       1     1     1     2   501     0 -8.405748625E+02  9.079714762E+02  7.983025296E+02  1.472503049E+03  2.412626389E-05  0.00000E+00  9.000E+00
#rwgt            2          17   1.4419316078853565E-004           4       17150           0
</event>
<event>
      5   9999  3.19816E-02  3.39001E+01 -1.00000E+00  1.49442E-01
      21    -1     0     0   511   501  0.000000000E+00  0.000000000E+00  6.330818423E+02  6.330818423E+02  0.000000000E+00  0.00000E+00  9.000E+00
      21    -1     0     0   501   502  0.000000000E+00  0.000000000E+00 -7.111445020E+01  7.111445020E+01  0.000000000E+00  0.00000E+00  9.000E+00
      25     1     1     2     0     0  6.145128819E+01 -1.194346073E+02  1.489239961E+02  2.363138652E+02  1.250000000E+02  0.00000E+00  9.000E+00
      25     1     1     2     0     0 -2.869720739E+01  1.281747207E+02  3.069513154E+02  3.565058187E+02  1.250000000E+02  0.00000E+00  9.000E+00
      21     1     1     2   511   502 -3.275408080E+01 -8.740113426E+00  1.060920805E+02  1.113766086E+02  1.907348633E-06  0.00000E+00  9.000E+00
#rwgt            1           1   2.7715739386344175E-002           4       17169           0
</event>
<event>
      5   9999  3.19816E-02  3.75257E+01 -1.00000E+00  1.46581E-01
      21    -1     0     0   502   512  0.000000000E+00  0.000000000E+00  8.401030718E+02  8.401030718E+02  0.000000000E+00  0.00000E+00  9.000E+00
      21    -1     0     0   501   502  0.000000000E+00  0.000000000E+00 -1.019066519E+02  1.019066519E+02  0.000000000E+00  0.00000E+00  9.000E+00
      25     1     1     2     0     0  1.446371804E+01  7.246720569E+00  4.994359138E+02  5.150950845E+02  1.250000000E+02  0.00000E+00  9.000E+00
      25     1     1     2     0     0 -4.078436647E+01  1.950033874E+01 -4.526629452E+01  1.404196040E+02  1.250000000E+02  0.00000E+00  9.000E+00
      21     1     1     2   501   512  2.632064843E+01 -2.674705931E+01  2.840268006E+02  2.864950351E+02  3.814697266E-06  0.00000E+00  9.000E+00
#rwgt            1           1   2.5363150202329265E-002           4       17241           0
</event>
<event>
      5   9999  3.19816E-02  1.35302E+02 -1.00000E+00  1.18197E-01
      21    -1     0     0   502   511  0.000000000E+00  0.000000000E+00  1.017851964E+03  1.017851964E+03  0.000000000E+00  0.00000E+00  9.000E+00
      21    -1     0     0   501   502  0.000000000E+00  0.000000000E+00 -7.355804168E+02  7.355804168E+02  0.000000000E+00  0.00000E+00  9.000E+00
      25     1     1     2     0     0 -7.307184310E+01  5.185228916E+02 -4.395085461E+02  6.949807518E+02  1.250000000E+02  0.00000E+00  9.000E+00
      25     1     1     2     0     0 -1.447692704E+01 -6.216822983E+02  6.361025490E+02  8.983039098E+02  1.250000000E+02  0.00000E+00  9.000E+00
      21     1     1     2   501   511  8.754877015E+01  1.031594067E+02  8.567754434E+01  1.601477192E+02  2.132480600E-06  0.00000E+00  9.000E+00
#rwgt            1           1   3.6595032201680526E-002           4       17336           0
</event>
<event>
      5   9999  3.19816E-02  4.72815E+01 -1.00000E+00  1.40475E-01
      21    -1     0     0   512   501  0.000000000E+00  0.000000000E+00  1.199291589E+02  1.199291589E+02  0.000000000E+00  0.00000E+00  9.000E+00
      21    -1     0     0   501   502  0.000000000E+00  0.000000000E+00 -2.032281723E+03  2.032281723E+03  0.000000000E+00  0.00000E+00  9.000E+00
      25     1     1     2     0     0  1.043825085E+01  4.341051596E+02 -9.513312188E+02  1.053191499E+03  1.250000000E+02  0.00000E+00  9.000E+00
      25     1     1     2     0     0  2.915303264E+01 -4.082581835E+02 -9.607294789E+02  1.051737028E+03  1.250000000E+02  0.00000E+00  9.000E+00
      21     1     1     2   512   502 -3.959128349E+01 -2.584697602E+01 -2.918664145E-01  4.728235489E+01  1.767452980E-07  0.00000E+00  9.000E+00
#rwgt            1           1   3.7830192269742637E-002           4       17430           0
</event>
<event>
      5   9999  3.19816E-02  4.70539E+02 -1.00000E+00  9.96071E-02
      21    -1     0     0   502   501  0.000000000E+00  0.000000000E+00  5.134379707E+02  5.134379707E+02  0.000000000E+00  0.00000E+00  9.000E+00
       1    -1     0     0   501     0  0.000000000E+00  0.000000000E+00 -1.422899263E+03  1.422899263E+03  0.000000000E+00  0.00000E+00  9.000E+00
      25     1     1     2     0     0  1.361465951E+02  2.584629128E+02 -5.159611778E+02  6.059537191E+02  1.250000000E+02  0.00000E+00  9.000E+00
      25     1     1     2     0     0 -6.055426396E+02 -2.256822025E+02 -5.248587449E+02  8.418527466E+02  1.250000000E+02  0.00000E+00  9.000E+00
       1     1     1     2   502     0  4.693960444E+02 -3.278071025E+01  1.313586304E+02  4.885307680E+02  1.128402669E-05  0.00000E+00  9.000E+00
#rwgt            1           1   2.6866174611898802E-002           4       17576           0
</event>
<event>
      5   9999  3.19816E-02  3.40331E+01 -1.00000E+00  1.49330E-01
      21    -1     0     0   502   501  0.000000000E+00  0.000000000E+00  4.236853614E+02  4.236853614E+02  0.000000000E+00  0.00000E+00  9.000E+00
      21    -1     0     0   511   502  0.000000000E+00  0.000000000E+00 -3.613213252E+02  3.613213252E+02  0.000000000E+00  0.00000E+00  9.000E+00
      25     1     1     2     0     0  5.833874397E+01 -2.529561578E+02  2.030190034E+02  3.524655197E+02  1.250000000E+02  0.00000E+00  9.000E+00
      25     1     1     2     0     0 -9.237098077E+01  2.531990185E+02 -9.721440095E+00  2.972568711E+02  1.250000000E+02  0.00000E+00  9.000E+00
      21     1     1     2   511   501  3.403223680E+01 -2.428606496E-01 -1.309335272E+02  1.352842957E+02  1.907348633E-06  0.00000E+00  9.000E+00
#rwgt            1           1   2.6232848723989316E-002           4       17607           0
</event>
<event>
      5   9999  3.19816E-02  2.94872E+02 -1.00000E+00  1.05836E-01
      21    -1     0     0   502   501  0.000000000E+00  0.000000000E+00  8.629149372E+02  8.629149372E+02  0.000000000E+00  0.00000E+00  9.000E+00
       2    -1     0     0   501     0  0.000000000E+00  0.000000000E+00 -1.113455096E+03  1.113455096E+03  0.000000000E+00  0.00000E+00  9.000E+00
      25     1     1     2     0     0  6.534318246E+01  3.900285302E+02 -2.030209581E+02  4.617732077E+02  1.250000000E+02  0.00000E+00  9.000E+00
      25     1     1     2     0     0 -3.566561238E+02 -3.443559530E+02  6.088395583E+02  7.950441628E+02  1.250000000E+02  0.00000E+00  9.000E+00
       2     1     1     2   502     0  2.913129413E+02 -4.567257723E+01 -6.563587586E+02  7.195526625E+02  1.078959322E-05  0.00000E+00  9.000E+00
#rwgt            2          13   1.2097727030117797E-003           4       17691           0
</event>
<event>
      5   9999  3.19816E-02  1.48771E+02 -1.00000E+00  1.16535E-01
      21    -1     0     0   502   501  0.000000000E+00  0.000000000E+00  1.345948486E+03  1.345948486E+03  0.000000000E+00  0.00000E+00  9.000E+00
      21    -1     0     0   501   511  0.000000000E+00  0.000000000E+00 -2.866307735E+02  2.866307735E+02  0.000000000E+00  0.00000E+00  9.000E+00
      25     1     1     2     0     0  1.117106310E+02 -6.346352777E+01 -1.369946875E+02  2.256090176E+02  1.250000000E+02  0.00000E+00  9.000E+00
      25     1     1     2     0     0 -4.686135006E+01  1.973564934E+02  1.231299499E+03  1.254140753E+03  1.250000000E+02  0.00000E+00  9.000E+00
      21     1     1     2   502   511 -6.484928095E+01 -1.338929656E+02 -3.498709942E+01  1.528294887E+02  1.261592536E-06  0.00000E+00  9.000E+00
#rwgt            2          11   4.3324549043196724E-003           4       17785           0
</event>
<event>
      5   9999  3.19816E-02  2.62273E+01 -1.00000E+00  1.57207E-01
      21    -1     0     0   502   501  0.000000000E+00  0.000000000E+00  1.985510003E+02  1.985510003E+02  0.000000000E+00  0.00000E+00  9.000E+00
      21    -1     0     0   512   502  0.000000000E+00  0.000000000E+00 -4.687413011E+02  4.687413011E+02  0.000000000E+00  0.00000E+00  9.000E+00
      25     1     1     2     0     0 -4.141676948E+01  1.116013006E+02 -3.430311977E+02  3.840125020E+02  1.250000000E+02  0.00000E+00  9.000E+00
      25     1     1     2     0     0  2.253425678E+01 -9.339900581E+01  1.402097935E+02  2.109856707E+02  1.250000000E+02  0.00000E+00  9.000E+00
      21     1     1     2   512   501  1.888251269E+01 -1.820229475E+01 -6.736889664E+01  7.229412877E+01  9.536743164E-07  0.00000E+00  9.000E+00
#rwgt            2          11   1.4877599133011020E-003           4       17835           0
</event>
<event>
      5   9999  3.19816E-02  3.11452E+01 -1.00000E+00  1.51918E-01
      21    -1     0     0   502   511  0.000000000E+00  0.000000000E+00  7.089775270E+02  7.089775270E+02  0.000000000E+00  0.00000E+00  9.000E+00
      21    -1     0     0   501   502  0.000000000E+00  0.000000000E+00 -1.019399507E+02  1.019399507E+02  0.000000000E+00  0.00000E+00  9.000E+00
      25     1     1     2     0     0 -5.742295971E+01 -1.380310201E+02  1.172561643E+02  2.274290370E+02  1.250000000E+02  0.00000E+00  9.000E+00
      25     1     1     2     0     0  4.978981909E+01  1.078356755E+02  1.146538898E+02  2.070702138E+02  1.250000000E+02  0.00000E+00  9.000E+00
      21     1     1     2   501   511  7.633140623E+00  3.019534453E+01  3.751275222E+02  3.764182269E+02  7.629394531E-06  0.00000E+00  9.000E+00
#rwgt            1           1   2.9565641647594221E-002           4       17855           0
</event>
<event>
      5   9999  3.19816E-02  2.42756E+01 -1.00000E+00  1.59713E-01
      21    -1     0     0   512   501  0.000000000E+00  0.000000000E+00  1.116918168E+03  1.116918168E+03  0.000000000E+00  0.00000E+00  9.000E+00
      21    -1     0     0   501   502  0.000000000E+00  0.000000000E+00 -1.099129398E+02  1.099129398E+02  0.000000000E+00  0.00000E+00  9.000E+00
      25     1     1     2     0     0 -3.011070184E+02 -2.288994736E+01  6.413004624E+02  7.197782084E+02  1.250000000E+02  0.00000E+00  9.000E+00
      25     1     1     2     0     0  2.928768073E+02  4.572783676E+01  3.121482115E+02  4.482514531E+02  1.250000000E+02  0.00000E+00  9.000E+00
      21     1     1     2   512   502  8.230211112E+00 -2.283788940E+01  5.355655425E+01  5.880144616E+01  9.536743164E-07  0.00000E+00  9.000E+00
#rwgt            2          11   9.9266351596613064E-003           4       17979           0
</event>
<event>
      5   9999  3.19816E-02  4.51142E+01 -1.00000E+00  1.41672E-01
      21    -1     0     0   502   511  0.000000000E+00  0.000000000E+00  2.057995802E+02  2.057995802E+02  0.000000000E+00  0.00000E+00  9.000E+00
      21    -1     0     0   501   502  0.000000000E+00  0.000000000E+00 -2.701393259E+02  2.701393259E+02  0.000000000E+00  0.00000E+00  9.000E+00
      25     1     1     2     0     0  5.622240872E+01 -1.575379605E+02 -3.448517496E+01  2.116445027E+02  1.250000000E+02  0.00000E+00  9.000E+00
      25     1     1     2     0     0 -9.878232136E+01  1.425730889E+02 -4.129874154E+01  2.177512772E+02  1.250000000E+02  0.00000E+00  9.000E+00
      21     1     1     2   501   511  4.255991264E+01  1.496487162E+01  1.144417076E+01  4.654312614E+01  1.143415337E-06  0.00000E+00  9.000E+00
#rwgt            1           1   2.5156502073722609E-002           4       17999           0
</event>
<event>
      5   9999  3.19816E-02  1.30342E+02 -1.00000E+00  1.18864E-01
      21    -1     0     0   502   501  0.000000000E+00  0.000000000E+00  7.628340209E+02  7.628340209E+02  0.000000000E+00  0.00000E+00  9.000E+00
       2    -1     0     0   501     0  0.000000000E+00  0.000000000E+00 -7.358473261E+02  7.358473261E+02  0.000000000E+00  0.00000E+00  9.000E+00
      25     1     1     2     0     0 -2.154868168E+02  1.687861279E+02  3.963951935E+02  4.976720553E+02  1.250000000E+02  0.00000E+00  9.000E+00
      25     1     1     2     0     0  1.159362914E+02 -2.529211306E+02  2.335253821E+02  3.841476618E+02  1.250000000E+02  0.00000E+00  9.000E+00
       2     1     1     2   502     0  9.955052543E+01  8.413500276E+01 -6.029338808E+02  6.168616299E+02  1.078959322E-05  0.00000E+00  9.000E+00
#rwgt            1           1   3.0195262180424974E-002           4       18143           0
</event>
<event>
      5   9999  3.19816E-02  1.69922E+01 -1.00000E+00  1.72429E-01
      21    -1     0     0   502   501  0.000000000E+00  0.000000000E+00  3.756118292E+01  3.756118292E+01  0.000000000E+00  0.00000E+00  9.000E+00
       2    -1     0     0   501     0  0.000000000E+00  0.000000000E+00 -2.118179952E+03  2.118179952E+03  0.000000000E+00  0.00000E+00  9.000E+00
      25     1     1     2     0     0  1.351120047E+02 -8.134488998E+01 -1.401080025E+03  1.415458400E+03  1.250000000E+02  0.00000E+00  9.000E+00
      25     1     1     2     0     0 -1.510438109E+02  8.725368126E+01 -3.516840588E+02  4.119880034E+02  1.250000000E+02  0.00000E+00  9.000E+00
       2     1     1     2   502     0  1.593180622E+01 -5.908791279E+00 -3.278546845E+02  3.282947310E+02  0.000000000E+00  0.00000E+00  9.000E+00
#rwgt            1           1   2.4691332804497326E-002           4       18230           0
</event>
<event>
      5   9999  3.19816E-02  2.87878E+02 -1.00000E+00  1.06177E-01
      21    -1     0     0   502   511  0.000000000E+00  0.000000000E+00  4.983723446E+02  4.983723446E+02  0.000000000E+00  0.00000E+00  9.000E+00
      21    -1     0     0   501   502  0.000000000E+00  0.000000000E+00 -1.577477449E+03  1.577477449E+03  0.000000000E+00  0.00000E+00  9.000E+00
      25     1     1     2     0     0  5.526517568E+02  4.629873892E+02 -2.189989917E+02  7.637845542E+02  1.250000000E+02  0.00000E+00  9.000E+00
      25     1     1     2     0     0 -2.695810373E+02 -4.105967313E+02 -8.883882361E+02  1.022801188E+03  1.250000000E+02  0.00000E+00  9.000E+00
      21     1     1     2   501   511 -2.830707195E+02 -5.239065787E+01  2.828212327E+01  2.892640520E+02  4.647633717E-06  0.00000E+00  9.000E+00
#rwgt            1           1   2.7750295548054638E-002           4       18409           0
</event>
<event>
      5   9999  3.19816E-02  1.29699E+02 -1.00000E+00  1.18953E-01
      21    -1     0     0   502   512  0.000000000E+00  0.000000000E+00  6.214037197E+02  6.214037197E+02  0.000000000E+00  0.00000E+00  9.000E+00
      21    -1     0     0   501   502  0.000000000E+00  0.000000000E+00 -5.502750920E+02  5.502750920E+02  0.000000000E+00  0.00000E+00  9.000E+00
      25     1     1     2     0     0 -1.841153980E+02 -1.266606850E+02  1.639510304E+02  3.040499125E+02  1.250000000E+02  0.00000E+00  9.000E+00
      25     1     1     2     0     0  2.415515272E+02  1.037289478E+01 -4.285745226E+02  5.076966207E+02  1.250000000E+02  0.00000E+00  9.000E+00
      21     1     1     2   501   512 -5.743612924E+01  1.162877903E+02  3.357521199E+02  3.599322785E+02  5.394796609E-06  0.00000E+00  9.000E+00
#rwgt            1           1   2.8135293748440426E-002           4       18447           0
</event>
<event>
      5   9999  3.19816E-02  2.21093E+01 -1.00000E+00  1.62855E-01
      21    -1     0     0   502   511  0.000000000E+00  0.000000000E+00  1.749278916E+02  1.749278916E+02  0.000000000E+00  0.00000E+00  9.000E+00
      21    -1     0     0   501   502  0.000000000E+00  0.000000000E+00 -4.115944031E+02  4.115944031E+02  0.000000000E+00  0.00000E+00  9.000E+00
      25     1     1     2     0     0  8.026910804E+01  2.169709974E+02 -1.344328911E+02  2.953248138E+02  1.250000000E+02  0.00000E+00  9.000E+00
      25     1     1     2     0     0 -8.800444605E+01 -1.962590157E+02 -1.025656739E+02  2.690856764E+02  1.250000000E+02  0.00000E+00  9.000E+00
      21     1     1     2   501   511  7.735338014E+00 -2.071198177E+01  3.320535823E-01  2.211180460E+01  2.990227196E-07  0.00000E+00  9.000E+00
#rwgt            1           1   2.6929482602556981E-002           4       18511           0
</event>
<event>
      5   9999  3.19816E-02  3.55329E+01 -1.00000E+00  1.48104E-01
      21    -1     0     0   502   512  0.000000000E+00  0.000000000E+00  9.190398564E+02  9.190398564E+02  0.000000000E+00  0.00000E+00  9.000E+00
      21    -1     0     0   501   502  0.000000000E+00  0.000000000E+00 -5.819931435E+01  5.819931435E+01  0.000000000E+00  0.00000E+00  9.000E+00
      25     1     1     2     0     0  1.231228459E+02  9.914617317E+01  2.283387397E+02  3.045534089E+02  1.250000000E+02  0.00000E+00  9.000E+00
      25     1     1     2     0     0 -9.346546838E+01 -7.957513505E+01  3.893339093E+02  4.269354621E+02  1.250000000E+02  0.00000E+00  9.000E+00
      21     1     1     2   501   512 -2.965737757E+01 -1.957103812E+01  2.431678931E+02  2.457502997E+02  2.697398305E-06  0.00000E+00  9.000E+00
#rwgt            1           1   3.3002402136464916E-002           4       18685           0
</event>
<event>
      5   9999  3.19816E-02  6.41251E+01 -1.00000E+00  1.33178E-01
      21    -1     0     0   511   501  0.000000000E+00  0.000000000E+00  7.118866709E+02  7.118866709E+02  0.000000000E+00  0.00000E+00  9.000E+00
      21    -1     0     0   501   502  0.000000000E+00  0.000000000E+00 -7.000742893E+01  7.000742893E+01  0.000000000E+00  0.00000E+00  9.000E+00
      25     1     1     2     0     0 -1.271565737E+01  2.264163666E+01  4.827111737E+02  4.993089313E+02  1.250000000E+02  0.00000E+00  9.000E+00
      25     1     1     2     0     0 -2.597724725E+01  2.849427797E+01  2.402446134E+01  1.329996842E+02  1.250000000E+02  0.00000E+00  9.000E+00
      21     1     1     2   511   502  3.869290462E+01 -5.113591463E+01  1.351436069E+02  1.495854843E+02  0.000000000E+00  0.00000E+00  9.000E+00
#rwgt            1           1   3.2948666219887041E-002           4       18783           0
</event>
<event>
      5   9999  3.19816E-02  2.54990E+02 -1.00000E+00  1.07938E-01
      21    -1     0     0   502   501  0.000000000E+00  0.000000000E+00  4.078795463E+02  4.078795463E+02  0.000000000E+00  0.00000E+00  9.000E+00
      21    -1     0     0   512   502  0.000000000E+00  0.000000000E+00 -1.824288564E+03  1.824288564E+03  0.000000000E+00  0.00000E+00  9.000E+00
      25     1     1     2     0     0 -3.678851798E+02  5.138505526E+02 -4.615969852E+02  7.925141467E+02  1.250000000E+02  0.00000E+00  9.000E+00
      25     1     1     2     0     0  5.387108832E+02 -3.245405953E+02 -2.467140446E+02  6.870435456E+02  1.250000000E+02  0.00000E+00  9.000E+00
      21     1     1     2   512   501 -1.708257034E+02 -1.893099574E+02 -7.080979881E+02  7.526104183E+02  1.078959322E-05  0.00000E+00  9.000E+00
#rwgt            1           1   3.0817604505310993E-002           4       18841           0
</event>
<event>
      5   9999  3.19816E-02  7.59512E+01 -1.00000E+00  1.29451E-01
      21    -1     0     0   511   501  0.000000000E+00  0.000000000E+00  1.161483730E+03  1.161483730E+03  0.000000000E+00  0.00000E+00  9.000E+00
      21    -1     0     0   501   502  0.000000000E+00  0.000000000E+00 -9.485049707E+02  9.485049707E+02  0.000000000E+00  0.00000E+00  9.000E+00
      25     1     1     2     0     0 -6.023066703E+02  6.014310364E+02  4.090636211E+02  9.526020485E+02  1.250000000E+02  0.00000E+00  9.000E+00
      25     1     1     2     0     0  6.271225740E+02 -5.296483380E+02 -4.131403059E+02  9.274265454E+02  1.250000000E+02  0.00000E+00  9.000E+00
      21     1     1     2   511   502 -2.481590375E+01 -7.178269840E+01  2.170554440E+02  2.299601066E+02  2.697398305E-06  0.00000E+00  9.000E+00
#rwgt            1           1   3.0744484106794541E-002           4       18928           0
</event>
<event>
      5   9999  3.19816E-02  3.18048E+01 -1.00000E+00  1.51298E-01
      21    -1     0     0   502   501  0.000000000E+00  0.000000000E+00  1.224495548E+03  1.224495548E+03  0.000000000E+00  0.00000E+00  9.000E+00
      21    -1     0     0   512   502  0.000000000E+00  0.000000000E+00 -1.164255380E+02  1.164255380E+02  0.000000000E+00  0.00000E+00  9.000E+00
      25     1     1     2     0     0 -2.847429548E+02  1.157090764E+02  7.129407223E+02  7.863692607E+02  1.250000000E+02  0.00000E+00  9.000E+00
      25     1     1     2     0     0  2.959957301E+02 -8.596142855E+01  4.022586564E+02  5.219577244E+02  1.250000000E+02  0.00000E+00  9.000E+00
      21     1     1     2   512   501 -1.125277537E+01 -2.974764788E+01 -7.129368799E+00  3.259410080E+01  7.348554138E-07  0.00000E+00  9.000E+00
#rwgt            1           1   2.9010437789899972E-002           4       19026           0
</event>
<event>
      5   9999  3.19816E-02  1.05867E+02 -1.00000E+00  1.22724E-01
      21    -1     0     0   511   501  0.000000000E+00  0.000000000E+00  2.870427045E+03  2.870427045E+03  0.000000000E+00  0.00000E+00  9.000E+00
      21    -1     0     0   501   502  0.000000000E+00  0.000000000E+00 -5.671263581E+02  5.671263581E+02  0.000000000E+00  0.00000E+00  9.000E+00
      25     1     1     2     0     0 -4.407727807E+02  4.624679767E+02  1.438377947E+03  1.578832921E+03  1.250000000E+02  0.00000E+00  9.000E+00
      25     1     1     2     0     0  4.131684331E+02 -3.602635612E+02 -3.347702759E+02  6.543654371E+02  1.250000000E+02  0.00000E+00  9.000E+00
      21     1     1     2   511   502  2.760434760E+01 -1.022044155E+02  1.199693016E+03  1.204355045E+03  1.525878906E-05  0.00000E+00  9.000E+00
#rwgt            1           1   3.7092249716574842E-002           4       19136           0
</event>
<event>
      5   9999  3.19816E-02  1.34411E+02 -1.00000E+00  1.18314E-01
      21    -1     0     0   512   501  0.000000000E+00  0.000000000E+00  2.978615512E+02  2.978615512E+02  0.000000000E+00  0.00000E+00  9.000E+00
      21    -1     0     0   501   502  0.000000000E+00  0.000000000E+00 -6.848176811E+02  6.848176811E+02  0.000000000E+00  0.00000E+00  9.000E+00
      25     1     1     2     0     0  3.681445235E+01  4.501246385E+01 -2.588543740E+02  2.932780469E+02  1.250000000E+02  0.00000E+00  9.000E+00
      25     1     1     2     0     0 -1.706554271E+02 -5.737468100E+01 -3.599371434E+02  4.214200707E+02  1.250000000E+02  0.00000E+00  9.000E+00
      21     1     1     2   512   502  1.338409747E+02  1.236221715E+01  2.318353875E+02  2.679811147E+02  0.000000000E+00  0.00000E+00  9.000E+00
#rwgt            1           1   2.6410707649529998E-002           4       19228           0
</event>
<event>
      5   9999  3.19816E-02  1.31419E+02 -1.00000E+00  1.18716E-01
      21    -1     0     0   511   501  0.000000000E+00  0.000000000E+00  2.905906320E+02  2.905906320E+02  0.000000000E+00  0.00000E+00  9.000E+00
      21    -1     0     0   501   502  0.000000000E+00  0.000000000E+00 -1.089885849E+03  1.089885849E+03  0.000000000E+00  0.00000E+00  9.000E+00
      25     1     1     2     0     0  2.868041583E+02 -3.013696499E+01 -8.162916267E+02  8.747124566E+02  1.250000000E+02  0.00000E+00  9.000E+00
      25     1     1     2     0     0 -3.020074252E+02  1.606736599E+02  5.642952930E+01  3.685563751E+02  1.250000000E+02  0.00000E+00  9.000E+00
      21     1     1     2   511   502  1.520326689E+01 -1.305366949E+02 -3.943311940E+01  1.372076490E+02  4.370284743E-06  0.00000E+00  9.000E+00
#rwgt            1           1   3.1325456840766645E-002           4       19270           0
</event>
<event>
      5   9999  3.19816E-02  2.34132E+01 -1.00000E+00  1.60914E-01
      21    -1     0     0   512   501  0.000000000E+00  0.000000000E+00  1.728224942E+02  1.728224942E+02  0.000000000E+00  0.00000E+00  9.000E+00
      21    -1     0     0   501   502  0.000000000E+00  0.000000000E+00 -3.410289522E+02  3.410289522E+02  0.000000000E+00  0.00000E+00  9.000E+00
      25     1     1     2     0     0  5.152972981E+01  1.824700576E+02 -9.924410566E+01  2.478407300E+02  1.250000000E+02  0.00000E+00  9.000E+00
      25     1     1     2     0     0 -3.058231101E+01 -1.929286302E+02 -7.093403277E+01  2.425146822E+02  1.250000000E+02  0.00000E+00  9.000E+00
      21     1     1     2   512   502 -2.094741880E+01  1.045857265E+01  1.971680390E+00  2.349603413E+01  3.545098678E-07  0.00000E+00  9.000E+00
#rwgt            1           1   3.0105649120385818E-002           4       19374           0
</event>
<event>
      5   9999  3.19816E-02  1.07723E+02 -1.00000E+00  1.22392E-01
      21    -1     0     0   502   501  0.000000000E+00  0.000000000E+00  9.695374210E+02  9.695374210E+02  0.000000000E+00  0.00000E+00  9.000E+00
      21    -1     0     0   501   511  0.000000000E+00  0.000000000E+00 -3.439542340E+02  3.439542340E+02  0.000000000E+00  0.00000E+00  9.000E+00
      25     1     1     2     0     0 -4.069684776E+02  1.331337348E+02  9.060700073E+01  4.551731118E+02  1.250000000E+02  0.00000E+00  9.000E+00
      25     1     1     2     0     0  4.654048222E+02 -4.263786936E+01  5.675674028E+02  7.457730172E+02  1.250000000E+02  0.00000E+00  9.000E+00
      21     1     1     2   502   511 -5.843634460E+01 -9.049586548E+01 -3.259121656E+01  1.125455261E+02  1.784161275E-06  0.00000E+00  9.000E+00
#rwgt            1           1   2.7356746271756997E-002           4       19532           0
</event>
<event>
      5   9999  3.19816E-02  2.62532E+01 -1.00000E+00  1.57176E-01
      21    -1     0     0   502   501  0.000000000E+00  0.000000000E+00  1.299226388E+02  1.299226388E+02  0.000000000E+00  0.00000E+00  9.000E+00
      21    -1     0     0   501   512  0.000000000E+00  0.000000000E+00 -3.554562053E+02  3.554562053E+02  0.000000000E+00  0.00000E+00  9.000E+00
      25     1     1     2     0     0 -2.729960793E+01 -2.711885242E-01  7.321172701E+01  1.474120046E+02  1.250000000E+02  0.00000E+00  9.000E+00
      25     1     1     2     0     0  1.204456814E+00  3.147627588E+00 -2.006992218E+02  2.364667755E+02  1.250000000E+02  0.00000E+00  9.000E+00
      21     1     1     2   502   512  2.609515112E+01 -2.876439064E+00 -9.804607166E+01  1.015000639E+02  0.000000000E+00  0.00000E+00  9.000E+00
#rwgt            1           1   2.3595057086752282E-002           4       19617           0
</event>
<event>
      5   9999  3.19816E-02  9.22547E+00 -1.00000E+00  1.99893E-01
      21    -1     0     0   511   501  0.000000000E+00  0.000000000E+00  4.428941366E+02  4.428941366E+02  0.000000000E+00  0.00000E+00  9.000E+00
      21    -1     0     0   501   502  0.000000000E+00  0.000000000E+00 -1.998454247E+02  1.998454247E+02  0.000000000E+00  0.00000E+00  9.000E+00
      25     1     1     2     0     0 -1.072997166E+02  2.615054653E+01  3.805615245E+02  4.155107149E+02  1.250000000E+02  0.00000E+00  9.000E+00
      25     1     1     2     0     0  9.972276355E+01 -3.141354350E+01 -1.427308216E+02  2.166299326E+02  1.250000000E+02  0.00000E+00  9.000E+00
      21     1     1     2   511   502  7.576953036E+00  5.262996969E+00  5.218008995E+00  1.059891373E+01  5.960464478E-08  0.00000E+00  9.000E+00
#rwgt            1           1   2.9492493146407707E-002           4       19740           0
</event>
<event>
      5   9999  3.19816E-02  4.23489E+01 -1.00000E+00  1.43320E-01
      21    -1     0     0   502   501  0.000000000E+00  0.000000000E+00  1.294678404E+02  1.294678404E+02  0.000000000E+00  0.00000E+00  9.000E+00
      21    -1     0     0   501   512  0.000000000E+00  0.000000000E+00 -4.902400708E+02  4.902400708E+02  0.000000000E+00  0.00000E+00  9.000E+00
      25     1     1     2     0     0  1.086767015E+02  1.213087154E+02 -1.458477540E+02  2.518392289E+02  1.250000000E+02  0.00000E+00  9.000E+00
      25     1     1     2     0     0 -1.067616721E+02 -1.636142681E+02 -1.140328760E+02  2.584495698E+02  1.250000000E+02  0.00000E+00  9.000E+00
      21     1     1     2   502   512 -1.915029459E+00  4.230555271E+01 -1.008916004E+02  1.094191124E+02  1.348699152E-06  0.00000E+00  9.000E+00
#rwgt            1           1   2.3123608580016029E-002           4       20035           0
</event>
<event>
      5   9999  3.19816E-02  1.88276E+02 -1.00000E+00  1.12611E-01
      21    -1     0     0   511   501  0.000000000E+00  0.000000000E+00  1.333633499E+02  1.333633499E+02  0.000000000E+00  0.00000E+00  9.000E+00
      21    -1     0     0   501   502  0.000000000E+00  0.000000000E+00 -1.309630819E+03  1.309630819E+03  0.000000000E+00  0.00000E+00  9.000E+00
      25     1     1     2     0     0  2.280223142E+02 -5.334449455E+00 -3.439489800E+02  4.312175008E+02  1.250000000E+02  0.00000E+00  9.000E+00
      25     1     1     2     0     0 -1.792604773E+02  1.871868063E+02 -7.554819351E+02  8.084251193E+02  1.250000000E+02  0.00000E+00  9.000E+00
      21     1     1     2   511   502 -4.876183685E+01 -1.818523569E+02 -7.683655420E+01  2.033515490E+02  2.697398305E-06  0.00000E+00  9.000E+00
#rwgt            1           1   2.8314357287016964E-002           4       20167           0
</event>
<event>
      5   9999  3.19816E-02  4.07892E+01 -1.00000E+00  1.44316E-01
      21    -1     0     0   502   501  0.000000000E+00  0.000000000E+00  1.672074591E+03  1.672074591E+03  0.000000000E+00  0.00000E+00  9.000E+00
      21    -1     0     0   501   512  0.000000000E+00  0.000000000E+00 -6.723169645E+01  6.723169645E+01  0.000000000E+00  0.00000E+00  9.000E+00
      25     1     1     2     0     0  3.457167774E+01  1.306402149E+02  1.377004324E+03  1.389254468E+03  1.250000000E+02  0.00000E+00  9.000E+00
      25     1     1     2     0     0  6.152114177E+00 -1.283303800E+02  2.468351197E+02  3.050559149E+02  1.250000000E+02  0.00000E+00  9.000E+00
      21     1     1     2   502   512 -4.072379191E+01 -2.309834914E+00 -1.899654944E+01  4.499590488E+01  4.768371582E-07  0.00000E+00  9.000E+00
#rwgt            1           1   3.5361164269991280E-002           4       20205           0
</event>
<event>
      5   9999  3.19816E-02  5.03375E+01 -1.00000E+00  1.38909E-01
      21    -1     0     0   502   501  0.000000000E+00  0.000000000E+00  1.118034841E+03  1.118034841E+03  0.000000000E+00  0.00000E+00  9.000E+00
      21    -1     0     0   511   502  0.000000000E+00  0.000000000E+00 -1.625699520E+02  1.625699520E+02  0.000000000E+00  0.00000E+00  9.000E+00
      25     1     1     2     0     0  2.123524182E+02 -2.596592733E+01  9.116357472E+02  9.447076344E+02  1.250000000E+02  0.00000E+00  9.000E+00
      25     1     1     2     0     0 -2.395189237E+02  6.834339070E+01  5.565853570E+01  2.841883292E+02  1.250000000E+02  0.00000E+00  9.000E+00
      21     1     1     2   511   501  2.716650545E+01 -4.237746337E+01 -1.182939437E+01  5.170882895E+01  9.386548846E-07  0.00000E+00  9.000E+00
#rwgt            1           1   2.8764095186757047E-002           4       20337           0
</event>
<event>
      5   9999  3.19816E-02  3.36997E+01 -1.00000E+00  1.49613E-01
      21    -1     0     0   502   501  0.000000000E+00  0.000000000E+00  1.768679794E+02  1.768679794E+02  0.000000000E+00  0.00000E+00  9.000E+00
      21    -1     0     0   512   502  0.000000000E+00  0.000000000E+00 -6.938858408E+02  6.938858408E+02  0.000000000E+00  0.00000E+00  9.000E+00
      25     1     1     2     0     0 -1.184680604E+02 -2.151339729E+02 -2.887423889E+00  2.755914455E+02  1.250000000E+02  0.00000E+00  9.000E+00
      25     1     1     2     0     0  9.395234265E+01  1.920115320E+02 -3.571108636E+02  4.345671870E+02  1.250000000E+02  0.00000E+00  9.000E+00
      21     1     1     2   512   501  2.451571779E+01  2.312244083E+01 -1.570195740E+02  1.605951877E+02  1.907348633E-06  0.00000E+00  9.000E+00
#rwgt            1           1   2.6867441758337624E-002           4       20423           0
</event>
<event>
      5   9999  3.19816E-02  1.36050E+01 -1.00000E+00  1.81473E-01
      21    -1     0     0   502   501  0.000000000E+00  0.000000000E+00  1.371370619E+03  1.371370619E+03  0.000000000E+00  0.00000E+00  9.000E+00
       1    -1     0     0   501     0  0.000000000E+00  0.000000000E+00 -1.013627401E+02  1.013627401E+02  0.000000000E+00  0.00000E+00  9.000E+00
      25     1     1     2     0     0  9.206523711E+01 -2.144562647E+02  7.951273568E+02  8.380453514E+02  1.250000000E+02  0.00000E+00  9.000E+00
      25     1     1     2     0     0 -9.514414994E+01  2.277083348E+02  5.192147472E+02  5.883132233E+02  1.250000000E+02  0.00000E+00  9.000E+00
       1     1     1     2   502     0  3.078912830E+00 -1.325207003E+01 -4.433422538E+01  4.637478415E+01  8.259061849E-07  0.00000E+00  9.000E+00
#rwgt            2          12   4.9799080460166309E-005           4       20610           0
</event>
<event>
      5   9999  3.19816E-02  4.12696E+01 -1.00000E+00  1.44004E-01
      21    -1     0     0   502   501  0.000000000E+00  0.000000000E+00  7.820737016E+02  7.820737016E+02  0.000000000E+00  0.00000E+00  9.000E+00
      21    -1     0     0   501   511  0.000000000E+00  0.000000000E+00 -1.304771535E+02  1.304771535E+02  0.000000000E+00  0.00000E+00  9.000E+00
      25     1     1     2     0     0 -5.594570166E+01 -2.408255570E+02  2.400860769E+02  3.665967740E+02  1.250000000E+02  0.00000E+00  9.000E+00
      25     1     1     2     0     0  7.092176899E+01  2.792819846E+02  3.851474563E+02  4.969827837E+02  1.250000000E+02  0.00000E+00  9.000E+00
      21     1     1     2   502   511 -1.497606733E+01 -3.845642757E+01  2.636301495E+01  4.897129743E+01  8.259061849E-07  0.00000E+00  9.000E+00
#rwgt            1           1   3.3148844265356317E-002           4       20644           0
</event>
<event>
      5   9999  3.19816E-02  8.36893E+00 -1.00000E+00  2.05143E-01
      21    -1     0     0   502   512  0.000000000E+00  0.000000000E+00  8.677591781E+02  8.677591781E+02  0.000000000E+00  0.00000E+00  9.000E+00
      21    -1     0     0   501   502  0.000000000E+00  0.000000000E+00 -5.841823556E+02  5.841823556E+02  0.000000000E+00  0.00000E+00  9.000E+00
      25     1     1     2     0     0 -2.913143677E+02 -5.355490284E+01 -1.822306625E+02  3.695472944E+02  1.250000000E+02  0.00000E+00  9.000E+00
      25     1     1     2     0     0  2.976440903E+02  5.902971947E+01 -2.209237892E+02  3.956119726E+02  1.250000000E+02  0.00000E+00  9.000E+00
      21     1     1     2   501   512 -6.329722601E+00 -5.474816630E+00  6.867312741E+02  6.867822667E+02  0.000000000E+00  0.00000E+00  9.000E+00
#rwgt            1           1   2.7162656920767931E-002           4       20763           0
</event>
<event>
      5   9999  3.19816E-02  1.19558E+02 -1.00000E+00  1.20436E-01
      21    -1     0     0   502   501  0.000000000E+00  0.000000000E+00  1.342392685E+03  1.342392685E+03  0.000000000E+00  0.00000E+00  9.000E+00
      21    -1     0     0   501   511  0.000000000E+00  0.000000000E+00 -1.479923338E+02  1.479923338E+02  0.000000000E+00  0.00000E+00  9.000E+00
      25     1     1     2     0     0  1.715405637E+02  1.604654734E+02  1.233152661E+02  2.932694801E+02  1.250000000E+02  0.00000E+00  9.000E+00
      25     1     1     2     0     0 -1.703305243E+02 -2.800168714E+02  9.959275499E+02  1.055897069E+03  1.250000000E+02  0.00000E+00  9.000E+00
      21     1     1     2   502   511 -1.210039363E+00  1.195513981E+02  7.515753479E+01  1.412184691E+02  1.651812370E-06  0.00000E+00  9.000E+00
#rwgt            1           1   3.1528558407529730E-002           4       20968           0
</event>
<event>
      5   9999  3.19816E-02  1.49411E+01 -1.00000E+00  1.77545E-01
      21    -1     0     0   502   501  0.000000000E+00  0.000000000E+00  3.838900613E+03  3.838900613E+03  0.000000000E+00  0.00000E+00  9.000E+00
      21    -1     0     0   512   502  0.000000000E+00  0.000000000E+00 -1.239317727E+01  1.239317727E+01  0.000000000E+00  0.00000E+00  9.000E+00
      25     1     1     2     0     0  4.418262552E+01 -1.468137102E+02  1.346602642E+03  1.361054754E+03  1.250000000E+02  0.00000E+00  9.000E+00
      25     1     1     2     0     0 -5.521387562E+01  1.568907649E+02  2.395816309E+03  2.404833481E+03  1.250000000E+02  0.00000E+00  9.000E+00
      21     1     1     2   512   501  1.103125011E+01 -1.007705474E+01  8.408848535E+01  8.540555532E+01  9.536743164E-07  0.00000E+00  9.000E+00
#rwgt            1           1   7.6029154768121159E-003           4       21028           0
</event>
<event>
      5   9999  3.19816E-02  1.43995E+02 -1.00000E+00  1.17101E-01
       2    -1     0     0   502     0  0.000000000E+00  0.000000000E+00  1.759433741E+03  1.759433741E+03  0.000000000E+00  0.00000E+00  9.000E+00
      21    -1     0     0   501   502  0.000000000E+00  0.000000000E+00 -8.970989953E+01  8.970989953E+01  0.000000000E+00  0.00000E+00  9.000E+00
      25     1     1     2     0     0 -5.153654837E+01 -1.178065018E+02  7.272740125E+01  1.935165692E+02  1.250000000E+02  0.00000E+00  9.000E+00
      25     1     1     2     0     0  1.666694707E+02  2.042872379E+02  1.017657357E+03  1.058661175E+03  1.250000000E+02  0.00000E+00  9.000E+00
       2     1     1     2   501     0 -1.151329223E+02 -8.648073616E+01  5.793390834E+02  5.969658961E+02  1.321449896E-05  0.00000E+00  9.000E+00
#rwgt            1           1   3.0411453243950164E-002           4       21184           0
</event>
<event>
      5   9999  3.19816E-02  7.81764E+01 -1.00000E+00  1.28836E-01
       1    -1     0     0   502     0  0.000000000E+00  0.000000000E+00  2.102339121E+02  2.102339121E+02  0.000000000E+00  0.00000E+00  9.000E+00
      21    -1     0     0   501   502  0.000000000E+00  0.000000000E+00 -1.009492922E+03  1.009492922E+03  0.000000000E+00  0.00000E+00  9.000E+00
      25     1     1     2     0     0 -2.674292560E+02  2.598484690E+02 -2.431800664E+02  4.623863952E+02  1.250000000E+02  0.00000E+00  9.000E+00
      25     1     1     2     0     0  2.152336319E+02 -3.180477916E+02 -3.412555475E+02  5.287345863E+02  1.250000000E+02  0.00000E+00  9.000E+00
       1     1     1     2   501     0  5.219562411E+01  5.819932257E+01 -2.148233963E+02  2.286058528E+02  2.697398305E-06  0.00000E+00  9.000E+00
#rwgt            1           1   2.9826484842690331E-002           4       21256           0
</event>
<event>
      5   9999  3.19816E-02  3.26178E+01 -1.00000E+00  1.50558E-01
      21    -1     0     0   502   511  0.000000000E+00  0.000000000E+00  7.007746966E+02  7.007746966E+02  0.000000000E+00  0.00000E+00  9.000E+00
      21    -1     0     0   501   502  0.000000000E+00  0.000000000E+00 -6.076957562E+01  6.076957562E+01  0.000000000E+00  0.00000E+00  9.000E+00
      25     1     1     2     0     0  1.170481207E+02  9.368866473E+01  3.118466120E+02  3.679009893E+02  1.250000000E+02  0.00000E+00  9.000E+00
      25     1     1     2     0     0 -8.645200120E+01 -1.049935386E+02  2.752945644E+02  3.315263019E+02  1.250000000E+02  0.00000E+00  9.000E+00
      21     1     1     2   501   511 -3.059611954E+01  1.130487387E+01  5.286394453E+01  6.211698106E+01  0.000000000E+00  0.00000E+00  9.000E+00
#rwgt            1           1   2.4732038022441356E-002           4       21329           0
</event>
<event>
      5   9999  3.19816E-02  7.69655E+01 -1.00000E+00  1.29168E-01
      21    -1     0     0   502   512  0.000000000E+00  0.000000000E+00  2.672655956E+03  2.672655956E+03  0.000000000E+00  0.00000E+00  9.000E+00
      21    -1     0     0   501   502  0.000000000E+00  0.000000000E+00 -2.709772332E+02  2.709772332E+02  0.000000000E+00  0.00000E+00  9.000E+00
      25     1     1     2     0     0  2.019127090E+01  5.083013206E+02  2.094944126E+03  2.159442940E+03  1.250000000E+02  0.00000E+00  9.000E+00
      25     1     1     2     0     0  1.017234614E+01 -5.790242860E+02  1.524137876E+02  6.117414184E+02  1.250000000E+02  0.00000E+00  9.000E+00
      21     1     1     2   501   512 -3.036361704E+01  7.072296543E+01  1.543208094E+02  1.724488310E+02  1.907348633E-06  0.00000E+00  9.000E+00
#rwgt            1           1   2.9238508159819009E-002           4       21423           0
</event>
<event>
      5   9999  3.19816E-02  1.10694E+02 -1.00000E+00  1.21875E-01
      21    -1     0     0   511   501  0.000000000E+00  0.000000000E+00  4.823615363E+02  4.823615363E+02  0.000000000E+00  0.00000E+00  9.000E+00
      21    -1     0     0   501   502  0.000000000E+00  0.000000000E+00 -1.537831101E+03  1.537831101E+03  0.000000000E+00  0.00000E+00  9.000E+00
      25     1     1     2     0     0  2.580273162E+02 -5.502035462E+02 -9.121659466E+02  1.103165333E+03  1.250000000E+02  0.00000E+00  9.000E+00
      25     1     1     2     0     0 -1.737968572E+02  6.220259916E+02 -3.017530334E+02  7.237413730E+02  1.250000000E+02  0.00000E+00  9.000E+00
      21     1     1     2   511   502 -8.423045897E+01 -7.182244542E+01  1.584494154E+02  1.932859310E+02  1.907348633E-06  0.00000E+00  9.000E+00
#rwgt            1           1   2.9842608139746752E-002           4       21497           0
</event>
<event>
      5   9999  3.19816E-02  5.25278E+01 -1.00000E+00  1.37864E-01
      21    -1     0     0   502   512  0.000000000E+00  0.000000000E+00  2.391278189E+02  2.391278189E+02  0.000000000E+00  0.00000E+00  9.000E+00
      21    -1     0     0   501   502  0.000000000E+00  0.000000000E+00 -1.059092022E+03  1.059092022E+03  0.000000000E+00  0.00000E+00  9.000E+00
      25     1     1     2     0     0  2.548708694E+01  3.299021371E+02 -7.939788705E+02  8.692021966E+02  1.250000000E+02  0.00000E+00  9.000E+00
      25     1     1     2     0     0  2.662007707E+01 -3.365359980E+02 -6.205823970E+01  3.652962244E+02  1.250000000E+02  0.00000E+00  9.000E+00
      21     1     1     2   501   512 -5.210716401E+01  6.633860885E+00  3.607290746E+01  6.372141951E+01  6.743495762E-07  0.00000E+00  9.000E+00
#rwgt            2          11   2.8916009839679265E-003           4       21600           0
</event>
<event>
      5   9999  3.19816E-02  6.66553E+01 -1.00000E+00  1.32307E-01
      21    -1     0     0   502   501  0.000000000E+00  0.000000000E+00  1.551382459E+03  1.551382459E+03  0.000000000E+00  0.00000E+00  9.000E+00
      21    -1     0     0   511   502  0.000000000E+00  0.000000000E+00 -8.136973471E+01  8.136973471E+01  0.000000000E+00  0.00000E+00  9.000E+00
      25     1     1     2     0     0  1.241508402E+02 -2.025930096E+02  3.607019455E+02  4.496534801E+02  1.250000000E+02  0.00000E+00  9.000E+00
      25     1     1     2     0     0 -1.537254423E+02  2.623280256E+02  1.019923506E+03  1.071595288E+03  1.250000000E+02  0.00000E+00  9.000E+00
      21     1     1     2   511   501  2.957460213E+01 -5.973501600E+01  8.938727268E+01  1.115034248E+02  9.536743164E-07  0.00000E+00  9.000E+00
#rwgt            1           1   3.2240586746934391E-002           4       21635           0
</event>
<event>
      5   9999  3.19816E-02  7.81356E+00 -1.00000E+00  2.09019E-01
      21    -1     0     0   502   501  0.000000000E+00  0.000000000E+00  8.690429944E+02  8.690429944E+02  0.000000000E+00  0.00000E+00  9.000E+00
      21    -1     0     0   501   512  0.000000000E+00  0.000000000E+00 -3.035186426E+02  3.035186426E+02  0.000000000E+00  0.00000E+00  9.000E+00
      25     1     1     2     0     0  2.988271276E+02 -9.142175934E+01 -1.493821649E+02  3.682331075E+02  1.250000000E+02  0.00000E+00  9.000E+00
      25     1     1     2     0     0 -2.940398031E+02  9.759696586E+01  7.208558316E+02  7.945078372E+02  1.250000000E+02  0.00000E+00  9.000E+00
      21     1     1     2   502   512 -4.787324494E+00 -6.175206513E+00 -5.949314823E+00  9.820692347E+00  1.460009660E-07  0.00000E+00  9.000E+00
#rwgt            1           1   3.3428595730447520E-002           4       21719           0
</event>
<event>
      5   9999  3.19816E-02  7.97237E+01 -1.00000E+00  1.28422E-01
      21    -1     0     0   502   501  0.000000000E+00  0.000000000E+00  3.776552724E+03  3.776552724E+03  0.000000000E+00  0.00000E+00  9.000E+00
      21    -1     0     0   511   502  0.000000000E+00  0.000000000E+00 -1.432824194E+03  1.432824194E+03  0.000000000E+00  0.00000E+00  9.000E+00
      25     1     1     2     0     0  1.258467299E+02 -3.511276778E+02  2.771215666E+03  2.798997913E+03  1.250000000E+02  0.00000E+00  9.000E+00
      25     1     1     2     0     0 -5.017385318E+01  3.762171117E+02  9.499816341E+02  1.030605082E+03  1.250000000E+02  0.00000E+00  9.000E+00
      21     1     1     2   511   501 -7.567287672E+01 -2.508943388E+01 -1.377468771E+03  1.379773923E+03  1.525878906E-05  0.00000E+00  9.000E+00
#rwgt            1           1   1.4594922430587237E-002           4       21991           0
</event>
<event>
      5   9999  3.19816E-02  4.82765E+01 -1.00000E+00  1.39950E-01
      21    -1     0     0   512   501  0.000000000E+00  0.000000000E+00  6.768385032E+02  6.768385032E+02  0.000000000E+00  0.00000E+00  9.000E+00
      21    -1     0     0   501   502  0.000000000E+00  0.000000000E+00 -3.534084229E+02  3.534084229E+02  0.000000000E+00  0.00000E+00  9.000E+00
      25     1     1     2     0     0 -1.662958083E+02  4.203605055E+02  5.951107460E+01  4.727830565E+02  1.250000000E+02  0.00000E+00  9.000E+00
      25     1     1     2     0     0  1.197792569E+02 -4.074443648E+02  2.404559899E+02  5.037877171E+02  1.250000000E+02  0.00000E+00  9.000E+00
      21     1     1     2   512   502  4.651655137E+01 -1.291614074E+01  2.346301573E+01  5.367615253E+01  1.011524364E-06  0.00000E+00  9.000E+00
#rwgt            1           1   3.1774767504687149E-002           4       22048           0
</event>
<event>
      5   9999  3.19816E-02  4.15429E+01 -1.00000E+00  1.43828E-01
      21    -1     0     0   502   511  0.000000000E+00  0.000000000E+00  1.768568819E+03  1.768568819E+03  0.000000000E+00  0.00000E+00  9.000E+00
      21    -1     0     0   501   502  0.000000000E+00  0.000000000E+00 -3.497817947E+02  3.497817947E+02  0.000000000E+00  0.00000E+00  9.000E+00
      25     1     1     2     0     0  3.985511472E+02  3.074873404E+02 -5.571085092E+01  5.216513973E+02  1.250000000E+02  0.00000E+00  9.000E+00
      25     1     1     2     0     0 -4.376509591E+02 -3.215235814E+02  1.434885185E+03  1.539297329E+03  1.250000000E+02  0.00000E+00  9.000E+00
      21     1     1     2   501   511  3.909981184E+01  1.403624099E+01  3.961269028E+01  5.740188654E+01  1.348699152E-06  0.00000E+00  9.000E+00
#rwgt            1           1   2.0109803576733126E-002           4       22166           0
</event>
<event>
      5   9999  3.19816E-02  2.08110E+01 -1.00000E+00  1.64957E-01
      21    -1     0     0   502   501  0.000000000E+00  0.000000000E+00  6.452868341E+02  6.452868341E+02  0.000000000E+00  0.00000E+00  9.000E+00
       4    -1     0     0   501     0  0.000000000E+00  0.000000000E+00 -2.755233373E+02  2.755233373E+02  0.000000000E+00  0.00000E+00  9.000E+00
      25     1     1     2     0     0  9.015909927E+01  1.761326956E+02 -3.692535799E+01  2.369385399E+02  1.250000000E+02  0.00000E+00  9.000E+00
      25     1     1     2     0     0 -7.937226582E+01 -1.939298952E+02  5.169631367E+02  5.716508074E+02  1.250000000E+02  0.00000E+00  9.000E+00
       4     1     1     2   502     0 -1.078683345E+01  1.779719957E+01 -1.102742819E+02  1.122208240E+02  0.000000000E+00  0.00000E+00  9.000E+00
#rwgt            1           1   2.8042423329126768E-002           4       22337           0
</event>
<event>
      5   9999  3.19816E-02  2.01777E+01 -1.00000E+00  1.66053E-01
      21    -1     0     0   511   501  0.000000000E+00  0.000000000E+00  9.215431632E+02  9.215431632E+02  0.000000000E+00  0.00000E+00  9.000E+00
      21    -1     0     0   501   502  0.000000000E+00  0.000000000E+00 -4.866976294E+01  4.866976294E+01  0.000000000E+00  0.00000E+00  9.000E+00
      25     1     1     2     0     0 -5.413152818E+01 -8.052347663E+01  6.760000399E+02  6.942732219E+02  1.250000000E+02  0.00000E+00  9.000E+00
      25     1     1     2     0     0  7.341051725E+01  8.647821360E+01  1.537258435E+02  2.283072938E+02  1.250000000E+02  0.00000E+00  9.000E+00
      21     1     1     2   511   502 -1.927898906E+01 -5.954736972E+00  4.314751688E+01  4.763241044E+01  0.000000000E+00  0.00000E+00  9.000E+00
#rwgt            1           1   3.4965875973701356E-002           4       22531           0
</event>
<event>
      5   9999  3.19816E-02  9.57704E+00 -1.00000E+00  1.97952E-01
      21    -1     0     0   502   501  0.000000000E+00  0.000000000E+00  2.625521375E+02  2.625521375E+02  0.000000000E+00  0.00000E+00  9.000E+00
      21    -1     0     0   512   502  0.000000000E+00  0.000000000E+00 -1.957088913E+02  1.957088913E+02  0.000000000E+00  0.00000E+00  9.000E+00
      25     1     1     2     0     0 -2.876927615E+01 -5.811398237E+01  2.080915116E+02  2.512607877E+02  1.250000000E+02  0.00000E+00  9.000E+00
      25     1     1     2     0     0  3.774944462E+01  5.478587473E+01 -1.300067973E+02  1.922323593E+02  1.250000000E+02  0.00000E+00  9.000E+00
      21     1     1     2   512   501 -8.980168470E+00  3.328107641E+00 -1.124146815E+01  1.476788179E+01  2.665600750E-07  0.00000E+00  9.000E+00
#rwgt            1           1   2.9353411471236806E-002           4       22668           0
</event>
<event>
      5   9999  3.19816E-02  2.58330E+02 -1.00000E+00  1.07746E-01
      21    -1     0     0   502   511  0.000000000E+00  0.000000000E+00  1.645105994E+02  1.645105994E+02  0.000000000E+00  0.00000E+00  9.000E+00
      21    -1     0     0   501   502  0.000000000E+00  0.000000000E+00 -2.322610080E+03  2.322610080E+03  0.000000000E+00  0.00000E+00  9.000E+00
      25     1     1     2     0     0  3.691757859E+02  3.809444651E+02 -1.016517894E+03  1.153404992E+03  1.250000000E+02  0.00000E+00  9.000E+00
      25     1     1     2     0     0 -1.276705408E+02 -2.892410539E+02 -9.587162910E+02  1.017212898E+03  1.250000000E+02  0.00000E+00  9.000E+00
      21     1     1     2   501   511 -2.415052452E+02 -9.170341121E+01 -1.828652951E+02  3.165027886E+02  9.725607898E-06  0.00000E+00  9.000E+00
#rwgt            2          11   3.5524609975882797E-003           4       22891           0
</event>
<event>
      5   9999  3.19816E-02  4.61187E+01 -1.00000E+00  1.41108E-01
       1    -1     0     0   502     0  0.000000000E+00  0.000000000E+00  1.323380728E+03  1.323380728E+03  0.000000000E+00  0.00000E+00  9.000E+00
      21    -1     0     0   501   502  0.000000000E+00  0.000000000E+00 -2.945283057E+02  2.945283057E+02  0.000000000E+00  0.00000E+00  9.000E+00
      25     1     1     2     0     0 -4.363320461E+02  2.360106566E+02  3.274583582E+02  6.074048575E+02  1.250000000E+02  0.00000E+00  9.000E+00
      25     1     1     2     0     0  4.457206415E+02 -2.811635767E+02  3.257231178E+02  6.320129718E+02  1.250000000E+02  0.00000E+00  9.000E+00
       1     1     1     2   501     0 -9.388595365E+00  4.515292004E+01  3.756709465E+02  3.784912046E+02  5.394796609E-06  0.00000E+00  9.000E+00
#rwgt            1           1   2.9491446662759855E-002           4       22971           0
</event>
<event>
      5   9999  3.19816E-02  5.52411E+01 -1.00000E+00  1.36650E-01
      21    -1     0     0   502   501  0.000000000E+00  0.000000000E+00  5.289728029E+02  5.289728029E+02  0.000000000E+00  0.00000E+00  9.000E+00
      21    -1     0     0   511   502  0.000000000E+00  0.000000000E+00 -8.910089134E+02  8.910089134E+02  0.000000000E+00  0.00000E+00  9.000E+00
      25     1     1     2     0     0 -4.029337045E+02  1.825338050E+02  1.496381032E+02  4.834156826E+02  1.250000000E+02  0.00000E+00  9.000E+00
      25     1     1     2     0     0  4.101350253E+02 -2.373035516E+02 -7.422068066E+01  4.956384004E+02  1.250000000E+02  0.00000E+00  9.000E+00
      21     1     1     2   511   501 -7.201320759E+00  5.476974655E+01 -4.374535331E+02  4.409276332E+02  5.394796609E-06  0.00000E+00  9.000E+00
#rwgt            1           1   2.3232640318524317E-002           4       23075           0
</event>
<event>
      5   9999  3.19816E-02  1.15618E+02 -1.00000E+00  1.21058E-01
      21    -1     0     0   512   501  0.000000000E+00  0.000000000E+00  6.665501273E+02  6.665501273E+02  0.000000000E+00  0.00000E+00  9.000E+00
      21    -1     0     0   501   502  0.000000000E+00  0.000000000E+00 -3.966601540E+02  3.966601540E+02  0.000000000E+00  0.00000E+00  9.000E+00
      25     1     1     2     0     0 -2.390960247E+02  2.992073571E+01 -3.084484103E+02  4.108863362E+02  1.250000000E+02  0.00000E+00  9.000E+00
      25     1     1     2     0     0  1.264266384E+02 -3.976429766E+00  2.728274322E+02  3.256674910E+02  1.250000000E+02  0.00000E+00  9.000E+00
      21     1     1     2   512   502  1.126693863E+02 -2.594430595E+01  3.055109513E+02  3.266564541E+02  3.814697266E-06  0.00000E+00  9.000E+00
#rwgt            1           1   2.2615939593542151E-002           4       23167           0
</event>
<event>
      5   9999  3.19816E-02  9.14412E+00 -1.00000E+00  2.00359E-01
      21    -1     0     0   502   501  0.000000000E+00  0.000000000E+00  3.876790078E+02  3.876790078E+02  0.000000000E+00  0.00000E+00  9.000E+00
      21    -1     0     0   501   511  0.000000000E+00  0.000000000E+00 -2.245230668E+02  2.245230668E+02  0.000000000E+00  0.00000E+00  9.000E+00
      25     1     1     2     0     0  2.099746111E+02 -1.076283734E+02  2.019497265E+02  3.347863439E+02  1.250000000E+02  0.00000E+00  9.000E+00
      25     1     1     2     0     0 -2.120753177E+02  9.872882904E+01 -3.506437096E+01  2.675403375E+02  1.250000000E+02  0.00000E+00  9.000E+00
      21     1     1     2   502   511  2.100706603E+00  8.899544348E+00 -3.729414491E+00  9.875393170E+00  2.190014490E-07  0.00000E+00  9.000E+00
#rwgt            1           1   2.4486561133096330E-002           4       23238           0
</event>
<event>
      5   9999  3.19816E-02  2.64327E+01 -1.00000E+00  1.56959E-01
      21    -1     0     0   502   501  0.000000000E+00  0.000000000E+00  5.911210603E+02  5.911210603E+02  0.000000000E+00  0.00000E+00  9.000E+00
      21    -1     0     0   512   502  0.000000000E+00  0.000000000E+00 -2.668269109E+02  2.668269109E+02  0.000000000E+00  0.00000E+00  9.000E+00
      25     1     1     2     0     0  6.081313451E+01 -3.493088326E+02  1.572181287E+02  4.075014575E+02  1.250000000E+02  0.00000E+00  9.000E+00
      25     1     1     2     0     0 -3.639694381E+01  3.391827804E+02  1.947173527E+02  4.122008533E+02  1.250000000E+02  0.00000E+00  9.000E+00
      21     1     1     2   512   501 -2.441619071E+01  1.012605213E+01 -2.764133205E+01  3.824566038E+01  7.539457465E-07  0.00000E+00  9.000E+00
#rwgt            1           1   2.5909177707867374E-002           4       23512           0
</event>
<event>
      5   9999  3.19816E-02  9.71853E+01 -1.00000E+00  1.24388E-01
      21    -1     0     0   502   501  0.000000000E+00  0.000000000E+00  3.087488287E+02  3.087488287E+02  0.000000000E+00  0.00000E+00  9.000E+00
       2    -1     0     0   501     0  0.000000000E+00  0.000000000E+00 -5.678382988E+02  5.678382988E+02  0.000000000E+00  0.00000E+00  9.000E+00
      25     1     1     2     0     0 -3.262286066E+01  7.263695292E+01  4.415013244E+01  1.546435002E+02  1.250000000E+02  0.00000E+00  9.000E+00
      25     1     1     2     0     0 -4.745024933E+01 -1.277121336E+02  1.625094627E+02  2.461630368E+02  1.250000000E+02  0.00000E+00  9.000E+00
       2     1     1     2   502     0  8.007310999E+01  5.507518070E+01 -4.657490652E+02  4.757805904E+02  5.394796609E-06  0.00000E+00  9.000E+00
#rwgt            1           1   2.5025699668824702E-002           4       23689           0
</event>
<event>
      5   9999  3.19816E-02  1.82202E+02 -1.00000E+00  1.13142E-01
      21    -1     0     0   502   501  0.000000000E+00  0.000000000E+00  1.360933386E+03  1.360933386E+03  0.000000000E+00  0.00000E+00  9.000E+00
       2    -1     0     0   501     0  0.000000000E+00  0.000000000E+00 -1.261404336E+03  1.261404336E+03  0.000000000E+00  0.00000E+00  9.000E+00
      25     1     1     2     0     0 -8.879253307E+01  1.252443788E+02  9.357283295E+02  9.564427714E+02  1.250000000E+02  0.00000E+00  9.000E+00
      25     1     1     2     0     0  1.418359232E+02  4.906517377E+01  3.847165233E+02  4.314587161E+02  1.250000000E+02  0.00000E+00  9.000E+00
       2     1     1     2   502     0 -5.304339010E+01 -1.743095526E+02 -1.220915802E+03  1.234436234E+03  1.525878906E-05  0.00000E+00  9.000E+00
#rwgt            1           1   2.6340818685007740E-002           4       23727           0
</event>
<event>
      5   9999  3.19816E-02  3.76752E+01 -1.00000E+00  1.46472E-01
      21    -1     0     0   502   501  0.000000000E+00  0.000000000E+00  2.418973797E+02  2.418973797E+02  0.000000000E+00  0.00000E+00  9.000E+00
      21    -1     0     0   501   511  0.000000000E+00  0.000000000E+00 -7.149085051E+02  7.149085051E+02  0.000000000E+00  0.00000E+00  9.000E+00
      25     1     1     2     0     0  2.783583547E+02  2.771363333E+01 -2.715640945E+02  4.094184614E+02  1.250000000E+02  0.00000E+00  9.000E+00
      25     1     1     2     0     0 -3.070153898E+02 -5.217167158E+01  6.923185340E+00  3.356385904E+02  1.250000000E+02  0.00000E+00  9.000E+00
      21     1     1     2   502   511  2.865703509E+01  2.445803825E+01 -2.083702163E+02  2.117488331E+02  2.697398305E-06  0.00000E+00  9.000E+00
#rwgt            1           1   2.9111592029807405E-002           4       23754           0
</event>
<event>
      5   9999  3.19816E-02  4.40215E+01 -1.00000E+00  1.42306E-01
      21    -1     0     0   502   501  0.000000000E+00  0.000000000E+00  4.705248999E+02  4.705248999E+02  0.000000000E+00  0.00000E+00  9.000E+00
      21    -1     0     0   501   512  0.000000000E+00  0.000000000E+00 -6.729061340E+02  6.729061340E+02  0.000000000E+00  0.00000E+00  9.000E+00
      25     1     1     2     0     0 -1.374430236E+02 -4.554028731E+02 -2.786898545E+02  5.653100004E+02  1.250000000E+02  0.00000E+00  9.000E+00
      25     1     1     2     0     0  1.747595497E+02  4.787559771E+02  8.911836048E+01  5.322736777E+02  1.250000000E+02  0.00000E+00  9.000E+00
      21     1     1     2   502   512 -3.731652607E+01 -2.335310400E+01 -1.280974005E+01  4.584735570E+01  9.233911863E-07  0.00000E+00  9.000E+00
#rwgt            1           1   3.0377622279885899E-002           4       23877           0
</event>
<event>
      5   9999  3.19816E-02  1.70923E+01 -1.00000E+00  1.72203E-01
      21    -1     0     0   502   511  0.000000000E+00  0.000000000E+00  4.539680890E+01  4.539680890E+01  0.000000000E+00  0.00000E+00  9.000E+00
      21    -1     0     0   501   502  0.000000000E+00  0.000000000E+00 -1.401758202E+03  1.401758202E+03  0.000000000E+00  0.00000E+00  9.000E+00
      25     1     1     2     0     0  3.494383963E+01  1.381885494E+02 -1.139777155E+03  1.155436761E+03  1.250000000E+02  0.00000E+00  9.000E+00
      25     1     1     2     0     0 -3.262448021E+01 -1.212543558E+02 -1.873970195E+02  2.578945878E+02  1.250000000E+02  0.00000E+00  9.000E+00
      21     1     1     2   501   511 -2.319359422E+00 -1.693419364E+01 -2.918721853E+01  3.382366137E+01  4.768371582E-07  0.00000E+00  9.000E+00
#rwgt            1           1   2.8159130921784657E-002           4       23989           0
</event>
<event>
      5   9999  3.19816E-02  1.35446E+02 -1.00000E+00  1.18178E-01
       2    -1     0     0   502     0  0.000000000E+00  0.000000000E+00  9.419877728E+02  9.419877728E+02  0.000000000E+00  0.00000E+00  9.000E+00
      21    -1     0     0   501   502  0.000000000E+00  0.000000000E+00 -2.506745593E+03  2.506745593E+03  0.000000000E+00  0.00000E+00  9.000E+00
      25     1     1     2     0     0  2.012323623E+02  1.284545775E+02 -2.398984099E+03  2.414072233E+03  1.250000000E+02  0.00000E+00  9.000E+00
      25     1     1     2     0     0 -8.046476453E+01 -1.897798498E+02  5.966478793E+01  2.483462435E+02  1.250000000E+02  0.00000E+00  9.000E+00
       2     1     1     2   501     0 -1.207675978E+02  6.132527230E+01  7.745614907E+02  7.863148889E+02  0.000000000E+00  0.00000E+00  9.000E+00
#rwgt            1           1   2.6377773811899156E-002           4       24233           0
</event>
<event>
      5   9999  3.19816E-02  1.69926E+02 -1.00000E+00  1.14287E-01
      21    -1     0     0   502   511  0.000000000E+00  0.000000000E+00  2.451396213E+02  2.451396213E+02  0.000000000E+00  0.00000E+00  9.000E+00
      21    -1     0     0   501   502  0.000000000E+00  0.000000000E+00 -3.785820707E+02  3.785820707E+02  0.000000000E+00  0.00000E+00  9.000E+00
      25     1     1     2     0     0  9.217703218E+00 -2.119982221E+02 -1.888489851E+02  3.103500465E+02  1.250000000E+02  0.00000E+00  9.000E+00
      25     1     1     2     0     0 -2.435299055E+01  4.274794377E+01 -9.734849308E-01  1.343368993E+02  1.250000000E+02  0.00000E+00  9.000E+00
      21     1     1     2   501   511  1.513528734E+01  1.692502783E+02  5.638002064E+01  1.790347462E+02  1.907348633E-06  0.00000E+00  9.000E+00
#rwgt            1           1   2.5771053847218364E-002           4       24301           0
</event>
<event>
      5   9999  3.19816E-02  4.56548E+02 -1.00000E+00  9.99868E-02
       2    -1     0     0   502     0  0.000000000E+00  0.000000000E+00  3.246949631E+03  3.246949631E+03  0.000000000E+00  0.00000E+00  9.000E+00
      21    -1     0     0   501   502  0.000000000E+00  0.000000000E+00 -6.363834491E+02  6.363834491E+02  0.000000000E+00  0.00000E+00  9.000E+00
      25     1     1     2     0     0 -2.612784321E+02 -5.424505085E+02 -3.396313875E+02  7.024908915E+02  1.250000000E+02  0.00000E+00  9.000E+00
      25     1     1     2     0     0 -1.249497044E+02  2.990093226E+02  2.165089796E+02  4.092922450E+02  1.250000000E+02  0.00000E+00  9.000E+00
       2     1     1     2   501     0  3.862281365E+02  2.434411859E+02  2.733688589E+03  2.771549943E+03  4.315837288E-05  0.00000E+00  9.000E+00
#rwgt            2          18   2.3486977180345518E-003           4       24363           0
</event>
<event>
      5   9999  3.19816E-02  9.81406E+01 -1.00000E+00  1.24196E-01
       1    -1     0     0   502     0  0.000000000E+00  0.000000000E+00  6.974758721E+02  6.974758721E+02  0.000000000E+00  0.00000E+00  9.000E+00
      21    -1     0     0   501   502  0.000000000E+00  0.000000000E+00 -4.493723312E+02  4.493723312E+02  0.000000000E+00  0.00000E+00  9.000E+00
      25     1     1     2     0     0 -3.028756871E+01  2.119578408E+02 -2.979642403E+02  3.876224343E+02  1.250000000E+02  0.00000E+00  9.000E+00
      25     1     1     2     0     0  1.252396529E+02 -1.871450845E+02  6.146492639E+01  2.647851780E+02  1.250000000E+02  0.00000E+00  9.000E+00
       1     1     1     2   501     0 -9.495208418E+01 -2.481275630E+01  4.846028548E+02  4.944405910E+02  5.394796609E-06  0.00000E+00  9.000E+00
#rwgt            1           1   2.5661137323231543E-002           4       24397           0
</event>
<event>
      5   9999  3.19816E-02  3.68890E+01 -1.00000E+00  1.47055E-01
      21    -1     0     0   502   501  0.000000000E+00  0.000000000E+00  2.420884460E+02  2.420884460E+02  0.000000000E+00  0.00000E+00  9.000E+00
       2    -1     0     0   501     0  0.000000000E+00  0.000000000E+00 -1.751600745E+03  1.751600745E+03  0.000000000E+00  0.00000E+00  9.000E+00
      25     1     1     2     0     0 -1.976090494E+00  1.984685093E+02  1.605036832E+02  2.842183780E+02  1.250000000E+02  0.00000E+00  9.000E+00
      25     1     1     2     0     0  3.881329624E+01 -2.004218594E+02 -7.202052619E+02  7.589440118E+02  1.250000000E+02  0.00000E+00  9.000E+00
       2     1     1     2   502     0 -3.683720574E+01  1.953350163E+00 -9.498107202E+02  9.505268011E+02  1.078959322E-05  0.00000E+00  9.000E+00
#rwgt            1           1   3.0469718704583131E-002           4       24494           0
</event>
<event>
      5   9999  3.19816E-02  3.27048E+01 -1.00000E+00  1.50481E-01
      21    -1     0     0   502   511  0.000000000E+00  0.000000000E+00  8.346313566E+02  8.346313566E+02  0.000000000E+00  0.00000E+00  9.000E+00
      21    -1     0     0   501   502  0.000000000E+00  0.000000000E+00 -7.631662212E+02  7.631662212E+02  0.000000000E+00  0.00000E+00  9.000E+00
      25     1     1     2     0     0 -5.109630150E+02  1.605294527E+02 -4.823088837E+02  7.315051382E+02  1.250000000E+02  0.00000E+00  9.000E+00
      25     1     1     2     0     0  5.433510897E+02 -1.650702558E+02  3.920374497E+02  7.012823669E+02  1.250000000E+02  0.00000E+00  9.000E+00
      21     1     1     2   501   511 -3.238807471E+01  4.540803031E+00  1.617365693E+02  1.650100728E+02  2.697398305E-06  0.00000E+00  9.000E+00
#rwgt            1           1   3.2767665600291297E-002           4       24639           0
</event>
<event>
      5   9999  3.19816E-02  2.61223E+02 -1.00000E+00  1.07583E-01
       1    -1     0     0   502     0  0.000000000E+00  0.000000000E+00  1.524569320E+03  1.524569320E+03  0.000000000E+00  0.00000E+00  9.000E+00
      21    -1     0     0   501   502  0.000000000E+00  0.000000000E+00 -2.714725488E+02  2.714725488E+02  0.000000000E+00  0.00000E+00  9.000E+00
      25     1     1     2     0     0  5.173944097E+01 -1.923065381E+02  1.383933005E+02  2.728304968E+02  1.250000000E+02  0.00000E+00  9.000E+00
      25     1     1     2     0     0 -2.045223750E+02 -1.957749303E+01 -1.146399608E+02  2.664207212E+02  1.250000000E+02  0.00000E+00  9.000E+00
       1     1     1     2   501     0  1.527829340E+02  2.118840311E+02  1.229343432E+03  1.256790651E+03  2.642899792E-05  0.00000E+00  9.000E+00
#rwgt            2          17   1.1197737767375058E-003           4       24841           0
</event>
<event>
      5   9999  3.19816E-02  6.48268E+01 -1.00000E+00  1.32932E-01
      21    -1     0     0   502   501  0.000000000E+00  0.000000000E+00  6.437343783E+01  6.437343783E+01  0.000000000E+00  0.00000E+00  9.000E+00
      21    -1     0     0   511   502  0.000000000E+00  0.000000000E+00 -2.062977169E+03  2.062977169E+03  0.000000000E+00  0.00000E+00  9.000E+00
      25     1     1     2     0     0  1.807917788E+02  2.237471581E+02 -7.847314566E+02  8.450898870E+02  1.250000000E+02  0.00000E+00  9.000E+00
      25     1     1     2     0     0 -2.437083575E+02 -2.081261472E+02 -9.443956510E+02  1.005096215E+03  1.250000000E+02  0.00000E+00  9.000E+00
      21     1     1     2   511   501  6.291657871E+01 -1.562101094E+01 -2.694766240E+02  2.771645048E+02  3.814697266E-06  0.00000E+00  9.000E+00
#rwgt            1           1   2.7444587972670107E-002           4       24860           0
</event>
<event>
      5   9999  3.19816E-02  2.06821E+01 -1.00000E+00  1.65176E-01
      21    -1     0     0   502   501  0.000000000E+00  0.000000000E+00  7.375500830E+02  7.375500830E+02  0.000000000E+00  0.00000E+00  9.000E+00
      21    -1     0     0   501   512  0.000000000E+00  0.000000000E+00 -6.018371974E+02  6.018371974E+02  0.000000000E+00  0.00000E+00  9.000E+00
      25     1     1     2     0     0 -4.253661158E+02 -6.625924572E+01  2.045354211E+02  4.927335574E+02  1.250000000E+02  0.00000E+00  9.000E+00
      25     1     1     2     0     0  4.451182019E+02  6.012707571E+01  2.487296610E+02  5.284287304E+02  1.250000000E+02  0.00000E+00  9.000E+00
      21     1     1     2   502   512 -1.975208604E+01  6.132170008E+00 -3.175521965E+02  3.182249926E+02  5.394796609E-06  0.00000E+00  9.000E+00
#rwgt            1           1   2.5876015123345732E-002           4       24957           0
</event>
<event>
      5   9999  3.19816E-02  2.91170E+02 -1.00000E+00  1.06015E-01
      21    -1     0     0   502   501  0.000000000E+00  0.000000000E+00  3.120579429E+02  3.120579429E+02  0.000000000E+00  0.00000E+00  9.000E+00
       2    -1     0     0   501     0  0.000000000E+00  0.000000000E+00 -1.419932201E+03  1.419932201E+03  0.000000000E+00  0.00000E+00  9.000E+00
      25     1     1     2     0     0  7.405922729E+01 -7.003539637E+01 -6.305668556E+02  6.508681013E+02  1.250000000E+02  0.00000E+00  9.000E+00
      25     1     1     2     0     0  9.261160535E+01 -1.687133137E+02  2.246669165E+02  3.211562159E+02  1.250000000E+02  0.00000E+00  9.000E+00
       2     1     1     2   502     0 -1.666708326E+02  2.387487100E+02 -7.019743193E+02  7.599658268E+02  7.629394531E-06  0.00000E+00  9.000E+00
#rwgt            1           1   2.5854804875637589E-002           4       25118           0
</event>
<event>
      5   9999  3.19816E-02  5.30216E+01 -1.00000E+00  1.37637E-01
      21    -1     0     0   502   501  0.000000000E+00  0.000000000E+00  8.985096853E+02  8.985096853E+02  0.000000000E+00  0.00000E+00  9.000E+00
      21    -1     0     0   501   511  0.000000000E+00  0.000000000E+00 -1.319767773E+02  1.319767773E+02  0.000000000E+00  0.00000E+00  9.000E+00
      25     1     1     2     0     0 -2.255984577E+02 -4.961077188E+00  8.369609479E+01  2.711997653E+02  1.250000000E+02  0.00000E+00  9.000E+00
      25     1     1     2     0     0  2.057216906E+02 -4.419386993E+01  6.553596461E+02  6.995682796E+02  1.250000000E+02  0.00000E+00  9.000E+00
      21     1     1     2   502   511  1.987676711E+01  4.915494711E+01  2.747716714E+01  5.971841768E+01  0.000000000E+00  0.00000E+00  9.000E+00
#rwgt            1           1   2.8525343725549879E-002           4       25183           0
</event>
<event>
      5   9999  3.19816E-02  1.59574E+01 -1.00000E+00  1.74889E-01
      21    -1     0     0   512   501  0.000000000E+00  0.000000000E+00  6.001640097E+01  6.001640097E+01  0.000000000E+00  0.00000E+00  9.000E+00
      21    -1     0     0   501   502  0.000000000E+00  0.000000000E+00 -5.385465150E+02  5.385465150E+02  0.000000000E+00  0.00000E+00  9.000E+00
      25     1     1     2     0     0 -1.026971538E+01  9.357276095E+01 -2.694908367E+02  3.116274053E+02  1.250000000E+02  0.00000E+00  9.000E+00
      25     1     1     2     0     0  5.793096477E+00 -1.088893457E+02 -2.135004934E+02  2.703662520E+02  1.250000000E+02  0.00000E+00  9.000E+00
      21     1     1     2   512   502  4.476618904E+00  1.531658474E+01  4.461216032E+00  1.656925868E+01  3.039252468E-07  0.00000E+00  9.000E+00
#rwgt            1           1   2.6620681226351941E-002           4       25292           0
</event>
<event>
      5   9999  3.19816E-02  6.57310E+01 -1.00000E+00  1.32620E-01
      21    -1     0     0   502   501  0.000000000E+00  0.000000000E+00  9.743802978E+02  9.743802978E+02  0.000000000E+00  0.00000E+00  9.000E+00
      21    -1     0     0   501   511  0.000000000E+00  0.000000000E+00 -1.581501083E+02  1.581501083E+02  0.000000000E+00  0.00000E+00  9.000E+00
      25     1     1     2     0     0  2.894134608E+02 -2.207654494E+02  4.732939937E+02  6.100243761E+02  1.250000000E+02  0.00000E+00  9.000E+00
      25     1     1     2     0     0 -2.262006332E+02  2.027459666E+02  2.844650262E+02  4.345319373E+02  1.250000000E+02  0.00000E+00  9.000E+00
      21     1     1     2   502   511 -6.321282760E+01  1.801948282E+01  5.847116959E+01  8.797409282E+01  1.651812370E-06  0.00000E+00  9.000E+00
#rwgt            2          11   3.9318268115708845E-003           4       25414           0
</event>
<event>
      5   9999  3.19816E-02  6.02870E+02 -1.00000E+00  9.65972E-02
      21    -1     0     0   512   501  0.000000000E+00  0.000000000E+00  4.168375043E+02  4.168375043E+02  0.000000000E+00  0.00000E+00  9.000E+00
      21    -1     0     0   501   502  0.000000000E+00  0.000000000E+00 -2.350139091E+03  2.350139091E+03  0.000000000E+00  0.00000E+00  9.000E+00
      25     1     1     2     0     0 -3.140121872E+02  5.311522441E+02 -1.056687014E+03  1.230015775E+03  1.250000000E+02  0.00000E+00  9.000E+00
      25     1     1     2     0     0 -2.349989459E+02 -2.820765680E+02 -8.490793398E+02  9.334625971E+02  1.250000000E+02  0.00000E+00  9.000E+00
      21     1     1     2   512   502  5.490111331E+02 -2.490756761E+02 -2.753523263E+01  6.034982234E+02  1.719591419E-05  0.00000E+00  9.000E+00
#rwgt            2          11   2.4358274498276103E-003           4       25524           0
</event>
<event>
      5   9999  3.19816E-02  3.32208E+01 -1.00000E+00  1.50026E-01
      21    -1     0     0   502   501  0.000000000E+00  0.000000000E+00  8.592319325E+02  8.592319325E+02  0.000000000E+00  0.00000E+00  9.000E+00
      21    -1     0     0   501   511  0.000000000E+00  0.000000000E+00 -1.736609513E+03  1.736609513E+03  0.000000000E+00  0.00000E+00  9.000E+00
      25     1     1     2     0     0 -1.401741618E+02  1.193476753E+03 -4.871207521E+02  1.302669253E+03  1.250000000E+02  0.00000E+00  9.000E+00
      25     1     1     2     0     0  1.128256268E+02 -1.174617263E+03 -3.426257055E+02  1.235100284E+03  1.250000000E+02  0.00000E+00  9.000E+00
      21     1     1     2   502   511  2.734853499E+01 -1.885948970E+01 -4.763112280E+01  5.807190867E+01  0.000000000E+00  0.00000E+00  9.000E+00
#rwgt            1           1   7.0244375723883104E-002           4       25544           0
</event>
<event>
      5   9999  3.19816E-02  1.04819E+02 -1.00000E+00  1.22916E-01
      21    -1     0     0   502   512  0.000000000E+00  0.000000000E+00  3.372656458E+02  3.372656458E+02  0.000000000E+00  0.00000E+00  9.000E+00
      21    -1     0     0   501   502  0.000000000E+00  0.000000000E+00 -1.123458324E+03  1.123458324E+03  0.000000000E+00  0.00000E+00  9.000E+00
      25     1     1     2     0     0  2.901038892E+02 -2.312188955E+01 -9.938865854E+02  1.043134906E+03  1.250000000E+02  0.00000E+00  9.000E+00
      25     1     1     2     0     0 -1.962020081E+02  6.969847573E+01  1.960770373E+02  3.121286755E+02  1.250000000E+02  0.00000E+00  9.000E+00
      21     1     1     2   501   512 -9.390188111E+01 -4.657658618E+01  1.161687025E+01  1.054603875E+02  2.494865601E-06  0.00000E+00  9.000E+00
#rwgt            1           1   2.6089304538886415E-002           4       25790           0
</event>
<event>
      5   9999  3.19816E-02  6.10698E+01 -1.00000E+00  1.34295E-01
      21    -1     0     0   502   501  0.000000000E+00  0.000000000E+00  4.885455990E+02  4.885455990E+02  0.000000000E+00  0.00000E+00  9.000E+00
      21    -1     0     0   501   511  0.000000000E+00  0.000000000E+00 -9.210642638E+02  9.210642638E+02  0.000000000E+00  0.00000E+00  9.000E+00
      25     1     1     2     0     0 -2.042745615E+01  2.616690835E+02  4.053850968E+02  4.988487415E+02  1.250000000E+02  0.00000E+00  9.000E+00
      25     1     1     2     0     0 -1.521293294E+01 -2.120778690E+02 -4.096132216E+02  4.781385230E+02  1.250000000E+02  0.00000E+00  9.000E+00
      21     1     1     2   502   511  3.564038909E+01 -4.959121451E+01 -4.282905400E+02  4.326225983E+02  5.394796609E-06  0.00000E+00  9.000E+00
#rwgt            1           1   3.1803546684186959E-002           4       25875           0
</event>
<event>
      5   9999  3.19816E-02  7.88535E+01 -1.00000E+00  1.28654E-01
      21    -1     0     0   502   501  0.000000000E+00  0.000000000E+00  1.078622056E+02  1.078622056E+02  0.000000000E+00  0.00000E+00  9.000E+00
      -3    -1     0     0     0   502  0.000000000E+00  0.000000000E+00 -5.711987227E+02  5.711987227E+02  0.000000000E+00  0.00000E+00  9.000E+00
      25     1     1     2     0     0  3.356194189E+01 -4.758091075E+00  2.408788762E+01  1.317356053E+02  1.250000000E+02  0.00000E+00  9.000E+00
      25     1     1     2     0     0 -1.081934579E+02 -2.069804639E+01 -3.711923106E+02  4.068697150E+02  1.250000000E+02  0.00000E+00  9.000E+00
      -3     1     1     2     0   501  7.463151606E+01  2.545613747E+01 -1.162320941E+02  1.404556080E+02  1.348699152E-06  0.00000E+00  9.000E+00
#rwgt            1           1   2.7124977189566728E-002           4       26038           0
</event>
<event>
      5   9999  3.19816E-02  6.53120E+01 -1.00000E+00  1.32764E-01
      21    -1     0     0   502   501  0.000000000E+00  0.000000000E+00  5.693371497E+02  5.693371497E+02  0.000000000E+00  0.00000E+00  9.000E+00
      21    -1     0     0   511   502  0.000000000E+00  0.000000000E+00 -1.880051832E+02  1.880051832E+02  0.000000000E+00  0.00000E+00  9.000E+00
      25     1     1     2     0     0 -1.126749688E+02  6.243268942E+01 -6.526863310E+01  1.909934129E+02  1.250000000E+02  0.00000E+00  9.000E+00
      25     1     1     2     0     0  1.176522724E+02 -1.275547602E+02  4.527787943E+02  5.007453551E+02  1.250000000E+02  0.00000E+00  9.000E+00
      21     1     1     2   511   501 -4.977303609E+00  6.512207075E+01 -6.178194738E+00  6.560356499E+01  1.281153277E-06  0.00000E+00  9.000E+00
#rwgt            1           1   3.1610702580831422E-002           4       26118           0
</event>
<event>
      5   9999  3.19816E-02  3.20257E+01 -1.00000E+00  1.51095E-01
      21    -1     0     0   512   501  0.000000000E+00  0.000000000E+00  1.062665117E+02  1.062665117E+02  0.000000000E+00  0.00000E+00  9.000E+00
      21    -1     0     0   501   502  0.000000000E+00  0.000000000E+00 -1.089242155E+03  1.089242155E+03  0.000000000E+00  0.00000E+00  9.000E+00
      25     1     1     2     0     0 -2.549583754E+02  1.153847875E+02 -7.282438044E+02  7.901148404E+02  1.250000000E+02  0.00000E+00  9.000E+00
      25     1     1     2     0     0  2.370529362E+02 -8.883220335E+01 -2.379943973E+02  3.692581591E+02  1.250000000E+02  0.00000E+00  9.000E+00
      21     1     1     2   512   502  1.790543923E+01 -2.655258411E+01 -1.673744116E+01  3.613566678E+01  7.907449699E-07  0.00000E+00  9.000E+00
#rwgt            1           1   2.8718202535827232E-002           4       26309           0
</event>
<event>
      5   9999  3.19816E-02  1.74861E+01 -1.00000E+00  1.71331E-01
      21    -1     0     0   502   511  0.000000000E+00  0.000000000E+00  2.021531777E+02  2.021531777E+02  0.000000000E+00  0.00000E+00  9.000E+00
      21    -1     0     0   501   502  0.000000000E+00  0.000000000E+00 -2.257127499E+02  2.257127499E+02  0.000000000E+00  0.00000E+00  9.000E+00
      25     1     1     2     0     0 -1.250295218E+02  8.541787197E-01 -1.179211582E+02  2.125170828E+02  1.250000000E+02  0.00000E+00  9.000E+00
      25     1     1     2     0     0  1.086121012E+02 -6.873416048E+00  5.904557775E+01  1.759409351E+02  1.250000000E+02  0.00000E+00  9.000E+00
      21     1     1     2   501   511  1.641742058E+01  6.019237328E+00  3.531600815E+01  3.940790971E+01  6.743495762E-07  0.00000E+00  9.000E+00
#rwgt            1           1   2.3514708568804912E-002           4       26479           0
</event>
<event>
      5   9999  3.19816E-02  1.09216E+02 -1.00000E+00  1.22130E-01
      21    -1     0     0   512   501  0.000000000E+00  0.000000000E+00  2.972544858E+02  2.972544858E+02  0.000000000E+00  0.00000E+00  9.000E+00
      21    -1     0     0   501   502  0.000000000E+00  0.000000000E+00 -4.319182479E+03  4.319182479E+03  0.000000000E+00  0.00000E+00  9.000E+00
      25     1     1     2     0     0 -2.230441894E+02 -4.563519782E+02 -4.083029428E+02  6.635827993E+02  1.250000000E+02  0.00000E+00  9.000E+00
      25     1     1     2     0     0  3.153627128E+02  5.147085465E+02 -3.737334545E+03  3.787832233E+03  1.250000000E+02  0.00000E+00  9.000E+00
      21     1     1     2   512   502 -9.231852333E+01 -5.835656834E+01  1.237094949E+02  1.650219317E+02  6.607249480E-06  0.00000E+00  9.000E+00
#rwgt            1           1   1.0042042371860651E-002           4       26571           0
</event>
<event>
      5   9999  3.19816E-02  2.82454E+01 -1.00000E+00  1.54880E-01
      21    -1     0     0   511   501  0.000000000E+00  0.000000000E+00  1.549570770E+02  1.549570770E+02  0.000000000E+00  0.00000E+00  9.000E+00
      21    -1     0     0   501   502  0.000000000E+00  0.000000000E+00 -3.672380191E+02  3.672380191E+02  0.000000000E+00  0.00000E+00  9.000E+00
      25     1     1     2     0     0 -3.096311711E+01  1.632296043E+02 -2.241062017E+01  2.091168435E+02  1.250000000E+02  0.00000E+00  9.000E+00
      25     1     1     2     0     0  5.081045871E+01 -1.431326374E+02 -2.023451377E+02  2.822006544E+02  1.250000000E+02  0.00000E+00  9.000E+00
      21     1     1     2   511   502 -1.984734160E+01 -2.009696690E+01  1.247481572E+01  3.087759826E+01  4.768371582E-07  0.00000E+00  9.000E+00
#rwgt            1           1   2.5569699336692533E-002           4       26689           0
</event>
<event>
      5   9999  3.19816E-02  1.46333E+02 -1.00000E+00  1.16821E-01
      21    -1     0     0   502   512  0.000000000E+00  0.000000000E+00  7.231776402E+02  7.231776402E+02  0.000000000E+00  0.00000E+00  9.000E+00
      21    -1     0     0   501   502  0.000000000E+00  0.000000000E+00 -2.368935524E+02  2.368935524E+02  0.000000000E+00  0.00000E+00  9.000E+00
      25     1     1     2     0     0 -1.788237017E+02  1.849085259E+02  9.061356519E+01  3.000081623E+02  1.250000000E+02  0.00000E+00  9.000E+00
      25     1     1     2     0     0  3.183362010E+02 -1.407525372E+02  2.158020870E+02  4.281877559E+02  1.250000000E+02  0.00000E+00  9.000E+00
      21     1     1     2   501   512 -1.395124992E+02 -4.415598866E+01  1.798684355E+02  2.318752744E+02  3.303624740E-06  0.00000E+00  9.000E+00
#rwgt            1           1   2.7924022985927281E-002           4       26841           0
</event>
<event>
      5   9999  3.19816E-02  2.81809E+02 -1.00000E+00  1.06482E-01
      21    -1     0     0   502   501  0.000000000E+00  0.000000000E+00  4.268467254E+02  4.268467254E+02  0.000000000E+00  0.00000E+00  9.000E+00
      21    -1     0     0   501   511  0.000000000E+00  0.000000000E+00 -6.266466576E+02  6.266466576E+02  0.000000000E+00  0.00000E+00  9.000E+00
      25     1     1     2     0     0  3.021716628E+02  1.159666845E+02 -2.011980490E+02  4.010756046E+02  1.250000000E+02  0.00000E+00  9.000E+00
      25     1     1     2     0     0 -2.562457000E+02  1.620750180E+02  1.164651387E+02  3.480219803E+02  1.250000000E+02  0.00000E+00  9.000E+00
      21     1     1     2   502   511 -4.592596284E+01 -2.780417025E+02 -1.150670219E+02  3.043957981E+02  2.336015456E-06  0.00000E+00  9.000E+00
#rwgt            1           1   2.5472782104761709E-002           4       26939           0
</event>
<event>
      5   9999  3.19816E-02  8.62408E+01 -1.00000E+00  1.26790E-01
      21    -1     0     0   502   501  0.000000000E+00  0.000000000E+00  1.129729910E+03  1.129729910E+03  0.000000000E+00  0.00000E+00  9.000E+00
      21    -1     0     0   501   512  0.000000000E+00  0.000000000E+00 -3.550360800E+02  3.550360800E+02  0.000000000E+00  0.00000E+00  9.000E+00
      25     1     1     2     0     0  3.083040029E+02  3.961865135E+02  1.464422116E+02  5.376666560E+02  1.250000000E+02  0.00000E+00  9.000E+00
      25     1     1     2     0     0 -3.190996110E+02 -4.817489543E+02  6.256836090E+02  8.608203037E+02  1.250000000E+02  0.00000E+00  9.000E+00
      21     1     1     2   502   512  1.079560809E+01  8.556244082E+01  2.568009649E+00  8.627903051E+01  1.672385674E-06  0.00000E+00  9.000E+00
#rwgt            1           1   3.0091467416301712E-002           4       26975           0
</event>
<event>
      5   9999  3.19816E-02  3.34654E+01 -1.00000E+00  1.49814E-01
      21    -1     0     0   511   501  0.000000000E+00  0.000000000E+00  1.909402210E+03  1.909402210E+03  0.000000000E+00  0.00000E+00  9.000E+00
      21    -1     0     0   501   502  0.000000000E+00  0.000000000E+00 -2.105353945E+03  2.105353945E+03  0.000000000E+00  0.00000E+00  9.000E+00
      25     1     1     2     0     0  6.067162378E+02  5.938638688E+02  1.666258350E+03  1.874252058E+03  1.250000000E+02  0.00000E+00  9.000E+00
      25     1     1     2     0     0 -6.216421598E+02 -6.238163677E+02 -1.895169990E+03  2.093532929E+03  1.250000000E+02  0.00000E+00  9.000E+00
      21     1     1     2   511   502  1.492592197E+01  2.995249889E+01  3.295990461E+01  4.697116826E+01  6.743495762E-07  0.00000E+00  9.000E+00
#rwgt            1           1   1.4134023957494374E-002           4       27042           0
</event>
<event>
      5   9999  3.19816E-02  1.25460E+02 -1.00000E+00  1.19554E-01
      21    -1     0     0   502   501  0.000000000E+00  0.000000000E+00  4.505308092E+02  4.505308092E+02  0.000000000E+00  0.00000E+00  9.000E+00
      21    -1     0     0   512   502  0.000000000E+00  0.000000000E+00 -5.163069976E+02  5.163069976E+02  0.000000000E+00  0.00000E+00  9.000E+00
      25     1     1     2     0     0  1.626646686E+02  6.194237618E+01  1.733533500E+02  2.756320670E+02  1.250000000E+02  0.00000E+00  9.000E+00
      25     1     1     2     0     0 -2.305798786E+02  4.354626813E+01  1.338687354E+02  2.976729685E+02  1.250000000E+02  0.00000E+00  9.000E+00
      21     1     1     2   512   501  6.791520996E+01 -1.054886443E+02 -3.729982738E+02  3.935327713E+02  5.394796609E-06  0.00000E+00  9.000E+00
#rwgt            1           1   2.9576728343097752E-002           4       27305           0
</event>
<event>
      5   9999  3.19816E-02  2.70065E+01 -1.00000E+00  1.56280E-01
      21    -1     0     0   502   511  0.000000000E+00  0.000000000E+00  1.260419201E+03  1.260419201E+03  0.000000000E+00  0.00000E+00  9.000E+00
      21    -1     0     0   501   502  0.000000000E+00  0.000000000E+00 -6.234778036E+02  6.234778036E+02  0.000000000E+00  0.00000E+00  9.000E+00
      25     1     1     2     0     0 -2.758848568E+02 -3.033677067E+02 -4.363440374E+02  6.116907215E+02  1.250000000E+02  0.00000E+00  9.000E+00
      25     1     1     2     0     0  3.010087303E+02  2.934611421E+02  3.855819386E+02  5.839727126E+02  1.250000000E+02  0.00000E+00  9.000E+00
      21     1     1     2   501   511 -2.512387352E+01  9.906564620E+00  6.877034964E+02  6.882335708E+02  1.078959322E-05  0.00000E+00  9.000E+00
#rwgt            1           1   3.2192966763852096E-002           4       27343           0
</event>
<event>
      5   9999  3.19816E-02  1.69668E+02 -1.00000E+00  1.14312E-01
      21    -1     0     0   502   501  0.000000000E+00  0.000000000E+00  1.616648181E+02  1.616648181E+02  0.000000000E+00  0.00000E+00  9.000E+00
       2    -1     0     0   501     0  0.000000000E+00  0.000000000E+00 -1.087792965E+03  1.087792965E+03  0.000000000E+00  0.00000E+00  9.000E+00
      25     1     1     2     0     0  1.500262315E+02  2.725067245E+02 -1.118855111E+02  3.534277191E+02  1.250000000E+02  0.00000E+00  9.000E+00
      25     1     1     2     0     0 -7.547237666E+01 -1.200962443E+02 -3.008124515E+02  3.552918779E+02  1.250000000E+02  0.00000E+00  9.000E+00
       2     1     1     2   502     0 -7.455385479E+01 -1.524104803E+02 -5.134301847E+02  5.407381865E+02  7.629394531E-06  0.00000E+00  9.000E+00
#rwgt            2          13   8.1501640118806216E-004           4       27594           0
</event>
<event>
      5   9999  3.19816E-02  6.21891E+02 -1.00000E+00  9.62329E-02
       2    -1     0     0   502     0  0.000000000E+00  0.000000000E+00  3.493408998E+03  3.493408998E+03  0.000000000E+00  0.00000E+00  9.000E+00
      21    -1     0     0   501   502  0.000000000E+00  0.000000000E+00 -1.182076801E+03  1.182076801E+03  0.000000000E+00  0.00000E+00  9.000E+00
      25     1     1     2     0     0 -8.271617265E+01 -1.387087860E+03 -4.038980561E+02  1.452450803E+03  1.250000000E+02  0.00000E+00  9.000E+00
      25     1     1     2     0     0  3.294076519E+02  8.162184495E+02  7.544418047E+02  1.165988591E+03  1.250000000E+02  0.00000E+00  9.000E+00
       2     1     1     2   501     0 -2.466914793E+02  5.708694102E+02  1.960788449E+03  2.057046405E+03  3.051757812E-05  0.00000E+00  9.000E+00
#rwgt            2          18   1.0880245992590312E-003           4       27643           0
</event>
<event>
      5   9999  3.19816E-02  7.49806E+01 -1.00000E+00  1.29727E-01
      21    -1     0     0   511   501  0.000000000E+00  0.000000000E+00  3.417147396E+02  3.417147396E+02  0.000000000E+00  0.00000E+00  9.000E+00
      21    -1     0     0   501   502  0.000000000E+00  0.000000000E+00 -2.861482074E+02  2.861482074E+02  0.000000000E+00  0.00000E+00  9.000E+00
      25     1     1     2     0     0  1.201776081E+02 -7.916652486E+01  1.566498413E+02  2.467269116E+02  1.250000000E+02  0.00000E+00  9.000E+00
      25     1     1     2     0     0 -7.445796810E+01  1.385954571E+02 -1.817921896E+02  2.709724893E+02  1.250000000E+02  0.00000E+00  9.000E+00
      21     1     1     2   511   502 -4.571963996E+01 -5.942893228E+01  8.070888057E+01  1.101635460E+02  9.536743164E-07  0.00000E+00  9.000E+00
#rwgt            1           1   3.0434561767695913E-002           4       27662           0
</event>
<event>
      5   9999  3.19816E-02  9.66171E+01 -1.00000E+00  1.24504E-01
      21    -1     0     0   512   501  0.000000000E+00  0.000000000E+00  6.668765689E+02  6.668765689E+02  0.000000000E+00  0.00000E+00  9.000E+00
      21    -1     0     0   501   502  0.000000000E+00  0.000000000E+00 -4.394722456E+02  4.394722456E+02  0.000000000E+00  0.00000E+00  9.000E+00
      25     1     1     2     0     0  1.344638600E+02  7.953615012E+01 -3.454596713E+02  3.992166246E+02  1.250000000E+02  0.00000E+00  9.000E+00
      25     1     1     2     0     0 -2.191289168E+02 -3.298842010E+01  2.048326063E+02  3.266299353E+02  1.250000000E+02  0.00000E+00  9.000E+00
      21     1     1     2   512   502  8.466505675E+01 -4.654773001E+01  3.680313884E+02  3.805022547E+02  5.394796609E-06  0.00000E+00  9.000E+00
#rwgt            1           1   2.9322409449176821E-002           4       27724           0
</event>
<event>
      5   9999  3.19816E-02  1.52457E+02 -1.00000E+00  1.16115E-01
      21    -1     0     0   502   501  0.000000000E+00  0.000000000E+00  1.479656100E+02  1.479656100E+02  0.000000000E+00  0.00000E+00  9.000E+00
      21    -1     0     0   501   511  0.000000000E+00  0.000000000E+00 -1.070180140E+03  1.070180140E+03  0.000000000E+00  0.00000E+00  9.000E+00
      25     1     1     2     0     0 -2.548897627E+02  4.742103719E+01 -4.663724345E+02  5.480381315E+02  1.250000000E+02  0.00000E+00  9.000E+00
      25     1     1     2     0     0  2.428010316E+02  1.045563969E+02 -1.506283538E+02  3.289350727E+02  1.250000000E+02  0.00000E+00  9.000E+00
      21     1     1     2   502   511  1.208873112E+01 -1.519774341E+02 -3.052137412E+02  3.411725454E+02  3.814697266E-06  0.00000E+00  9.000E+00
#rwgt            1           1   2.6882602391553406E-002           4       27829           0
</event>
<event>
      5   9999  3.19816E-02  2.28278E+01 -1.00000E+00  1.61766E-01
      21    -1     0     0   502   501  0.000000000E+00  0.000000000E+00  7.686942699E+01  7.686942699E+01  0.000000000E+00  0.00000E+00  9.000E+00
      21    -1     0     0   501   512  0.000000000E+00  0.000000000E+00 -9.781787754E+02  9.781787754E+02  0.000000000E+00  0.00000E+00  9.000E+00
      25     1     1     2     0     0 -4.126868447E+01  1.758046248E+02 -2.431380536E+02  3.276453624E+02  1.250000000E+02  0.00000E+00  9.000E+00
      25     1     1     2     0     0  4.725007987E+01 -1.537744085E+02 -2.683867978E+02  3.369504593E+02  1.250000000E+02  0.00000E+00  9.000E+00
      21     1     1     2   502   512 -5.981395402E+00 -2.203021626E+01 -3.897844969E+02  3.904523807E+02  0.000000000E+00  0.00000E+00  9.000E+00
#rwgt            1           1   2.7402676492918054E-002           4       27900           0
</event>
<event>
      5   9999  3.19816E-02  5.36069E+02 -1.00000E+00  9.80001E-02
      21    -1     0     0   502   511  0.000000000E+00  0.000000000E+00  9.427688777E+02  9.427688777E+02  0.000000000E+00  0.00000E+00  9.000E+00
      21    -1     0     0   501   502  0.000000000E+00  0.000000000E+00 -1.914681909E+03  1.914681909E+03  0.000000000E+00  0.00000E+00  9.000E+00
      25     1     1     2     0     0 -7.683881098E+02  7.969655532E+01 -7.436291128E+02  1.079528177E+03  1.250000000E+02  0.00000E+00  9.000E+00
      25     1     1     2     0     0  4.731469425E+02 -5.271370023E+02 -7.434437548E+02  1.034444327E+03  1.250000000E+02  0.00000E+00  9.000E+00
      21     1     1     2   501   511  2.952411673E+02  4.474404469E+02  5.151598361E+02  7.434782829E+02  7.629394531E-06  0.00000E+00  9.000E+00
#rwgt            2          11   2.5176116156241548E-003           4       28004           0
</event>
<event>
      5   9999  3.19816E-02  1.37368E+02 -1.00000E+00  1.17928E-01
      21    -1     0     0   502   501  0.000000000E+00  0.000000000E+00  7.907649002E+02  7.907649002E+02  0.000000000E+00  0.00000E+00  9.000E+00
      21    -1     0     0   512   502  0.000000000E+00  0.000000000E+00 -6.856799082E+02  6.856799082E+02  0.000000000E+00  0.00000E+00  9.000E+00
      25     1     1     2     0     0 -4.998925918E+02  2.978271685E+02  2.585439304E+02  6.488941282E+02  1.250000000E+02  0.00000E+00  9.000E+00
      25     1     1     2     0     0  4.191857331E+02 -4.089868798E+02  2.854892901E+01  5.995222999E+02  1.250000000E+02  0.00000E+00  9.000E+00
      21     1     1     2   512   501  8.070685868E+01  1.111597113E+02 -1.820078674E+02  2.280283803E+02  0.000000000E+00  0.00000E+00  9.000E+00
#rwgt            1           1   3.2770041812175348E-002           4       28024           0
</event>
<event>
      5   9999  3.19816E-02  8.73789E+01 -1.00000E+00  1.26522E-01
      21    -1     0     0   511   501  0.000000000E+00  0.000000000E+00  1.441545271E+03  1.441545271E+03  0.000000000E+00  0.00000E+00  9.000E+00
      21    -1     0     0   501   502  0.000000000E+00  0.000000000E+00 -4.721612055E+01  4.721612055E+01  0.000000000E+00  0.00000E+00  9.000E+00
      25     1     1     2     0     0  4.481283794E+01 -1.252112978E+02  4.872292674E+02  5.202916668E+02  1.250000000E+02  0.00000E+00  9.000E+00
      25     1     1     2     0     0 -9.867078832E+01  1.940182071E+02  6.411202042E+02  6.885049784E+02  1.250000000E+02  0.00000E+00  9.000E+00
      21     1     1     2   511   502  5.385795037E+01 -6.880690926E+01  2.659796785E+02  2.799647459E+02  5.394796609E-06  0.00000E+00  9.000E+00
#rwgt            1           1   2.9985729696854854E-002           4       28104           0
</event>
<event>
      5   9999  3.19816E-02  1.17514E+02 -1.00000E+00  1.20756E-01
      21    -1     0     0   502   501  0.000000000E+00  0.000000000E+00  9.252826968E+01  9.252826968E+01  0.000000000E+00  0.00000E+00  9.000E+00
       2    -1     0     0   501     0  0.000000000E+00  0.000000000E+00 -1.152290777E+03  1.152290777E+03  0.000000000E+00  0.00000E+00  9.000E+00
      25     1     1     2     0     0  8.300940249E+01  1.167921457E+02 -5.691505432E+01  1.984824667E+02  1.250000000E+02  0.00000E+00  9.000E+00
      25     1     1     2     0     0 -5.268156432E+00 -2.866867538E+01 -2.198943510E+02  2.546137703E+02  1.250000000E+02  0.00000E+00  9.000E+00
       2     1     1     2   502     0 -7.774124606E+01 -8.812347031E+01 -7.829531022E+02  7.917228098E+02  1.525878906E-05  0.00000E+00  9.000E+00
#rwgt            2          13   7.0781540097823498E-004           4       28224           0
</event>
<event>
      5   9999  3.19816E-02  2.83060E+02 -1.00000E+00  1.06419E-01
      21    -1     0     0   502   501  0.000000000E+00  0.000000000E+00  1.335061811E+03  1.335061811E+03  0.000000000E+00  0.00000E+00  9.000E+00
      21    -1     0     0   511   502  0.000000000E+00  0.000000000E+00 -1.116565857E+03  1.116565857E+03  0.000000000E+00  0.00000E+00  9.000E+00
      25     1     1     2     0     0 -1.173945430E+02  5.768693334E+02  1.167876125E+03  1.313818613E+03  1.250000000E+02  0.00000E+00  9.000E+00
      25     1     1     2     0     0  8.275021788E+01 -2.959376827E+02 -3.989152357E+02  5.188304886E+02  1.250000000E+02  0.00000E+00  9.000E+00
      21     1     1     2   511   501  3.464432509E+01 -2.809316508E+02 -5.504649340E+02  6.189785660E+02  1.078959322E-05  0.00000E+00  9.000E+00
#rwgt            1           1   3.0878341419777099E-002           4       28243           0
</event>
<event>
      5   9999  3.19816E-02  1.20181E+02 -1.00000E+00  1.20341E-01
      21    -1     0     0   502   501  0.000000000E+00  0.000000000E+00  2.386689855E+02  2.386689855E+02  0.000000000E+00  0.00000E+00  9.000E+00
      21    -1     0     0   501   512  0.000000000E+00  0.000000000E+00 -2.148476475E+03  2.148476475E+03  0.000000000E+00  0.00000E+00  9.000E+00
      25     1     1     2     0     0  2.364682584E+02  3.048643792E+02 -4.971992233E+01  4.086032276E+02  1.250000000E+02  0.00000E+00  9.000E+00
      25     1     1     2     0     0 -1.636725089E+02 -4.004895551E+02 -8.555002309E+02  9.667917144E+02  1.250000000E+02  0.00000E+00  9.000E+00
      21     1     1     2   502   512 -7.279574954E+01  9.562517587E+01 -1.004587337E+03  1.011750519E+03  1.078959322E-05  0.00000E+00  9.000E+00
#rwgt            2          11   1.3233271278250756E-003           4       28422           0
</event>
<event>
      5   9999  3.19816E-02  1.08843E+03 -1.00000E+00  9.01164E-02
       2    -1     0     0   502     0  0.000000000E+00  0.000000000E+00  1.687329938E+03  1.687329938E+03  0.000000000E+00  0.00000E+00  9.000E+00
      21    -1     0     0   501   502  0.000000000E+00  0.000000000E+00 -7.998568575E+02  7.998568575E+02  0.000000000E+00  0.00000E+00  9.000E+00
      25     1     1     2     0     0  3.742635532E+02  2.151205864E+02 -6.016588386E+01  4.534258567E+02  1.250000000E+02  0.00000E+00  9.000E+00
      25     1     1     2     0     0  3.276780606E+02  6.167177488E+02  4.160020045E+02  8.224331953E+02  1.250000000E+02  0.00000E+00  9.000E+00
       2     1     1     2   501     0 -7.019416138E+02 -8.318383351E+02  5.316369599E+02  1.211327743E+03  2.530383904E-05  0.00000E+00  9.000E+00
#rwgt            2          18   1.0710138355405163E-003           4       28607           0
</event>
<event>
      5   9999  3.19816E-02  2.75793E+01 -1.00000E+00  1.55622E-01
      21    -1     0     0   511   501  0.000000000E+00  0.000000000E+00  1.793639253E+03  1.793639253E+03  0.000000000E+00  0.00000E+00  9.000E+00
      21    -1     0     0   501   502  0.000000000E+00  0.000000000E+00 -9.500181815E+01  9.500181815E+01  0.000000000E+00  0.00000E+00  9.000E+00
      25     1     1     2     0     0  2.225134499E+02  1.932209215E+01  1.263543925E+02  2.854400307E+02  1.250000000E+02  0.00000E+00  9.000E+00
      25     1     1     2     0     0 -2.430198790E+02 -8.801839802E-01  1.239111481E+03  1.268889948E+03  1.250000000E+02  0.00000E+00  9.000E+00
      21     1     1     2   511   502  2.050642910E+01 -1.844190817E+01  3.331715606E+02  3.343110922E+02  3.814697266E-06  0.00000E+00  9.000E+00
#rwgt            1           1   2.5134831906621434E-002           4       28626           0
</event>
<event>
      5   9999  3.19816E-02  1.51312E+01 -1.00000E+00  1.77028E-01
      21    -1     0     0   502   512  0.000000000E+00  0.000000000E+00  4.296318551E+01  4.296318551E+01  0.000000000E+00  0.00000E+00  9.000E+00
      21    -1     0     0   501   502  0.000000000E+00  0.000000000E+00 -2.365045770E+03  2.365045770E+03  0.000000000E+00  0.00000E+00  9.000E+00
      25     1     1     2     0     0  3.476173224E+01  2.745729237E+02 -9.042504448E+02  9.538828730E+02  1.250000000E+02  0.00000E+00  9.000E+00
      25     1     1     2     0     0 -4.850015078E+01 -2.682318391E+02 -1.394048492E+03  1.425937160E+03  1.250000000E+02  0.00000E+00  9.000E+00
      21     1     1     2   501   512  1.373841853E+01 -6.341084553E+00 -2.378364769E+01  2.818892326E+01  3.371747881E-07  0.00000E+00  9.000E+00
#rwgt            1           1   6.9596987219429404E-002           4       28783           0
</event>
<event>
      5   9999  3.19816E-02  5.28464E+01 -1.00000E+00  1.37717E-01
      21    -1     0     0   502   501  0.000000000E+00  0.000000000E+00  3.883306614E+02  3.883306614E+02  0.000000000E+00  0.00000E+00  9.000E+00
       2    -1     0     0   501     0  0.000000000E+00  0.000000000E+00 -6.852873398E+02  6.852873398E+02  0.000000000E+00  0.00000E+00  9.000E+00
      25     1     1     2     0     0  2.232414569E+02  2.273600228E+01  2.223414849E+02  3.397269635E+02  1.250000000E+02  0.00000E+00  9.000E+00
      25     1     1     2     0     0 -2.258370261E+02  3.004665900E+01 -5.376662934E+01  2.653695810E+02  1.250000000E+02  0.00000E+00  9.000E+00
       2     1     1     2   502     0  2.595569211E+00 -5.278266128E+01 -4.655315339E+02  4.685214567E+02  0.000000000E+00  0.00000E+00  9.000E+00
#rwgt            1           1   2.5321489515857453E-002           4       28961           0
</event>
<event>
      5   9999  3.19816E-02  3.16174E+01 -1.00000E+00  1.51473E-01
      21    -1     0     0   502   501  0.000000000E+00  0.000000000E+00  9.398174536E+02  9.398174536E+02  0.000000000E+00  0.00000E+00  9.000E+00
      21    -1     0     0   501   511  0.000000000E+00  0.000000000E+00 -2.475003809E+02  2.475003809E+02  0.000000000E+00  0.00000E+00  9.000E+00
      25     1     1     2     0     0  3.237326928E+02 -2.680019527E+02  2.505996465E+02  5.050278070E+02  1.250000000E+02  0.00000E+00  9.000E+00
      25     1     1     2     0     0 -3.551608880E+02  2.645481832E+02  4.557884656E+02  6.476828876E+02  1.250000000E+02  0.00000E+00  9.000E+00
      21     1     1     2   502   511  3.142819515E+01  3.453769448E+00 -1.407103934E+01  3.460713976E+01  6.529361695E-07  0.00000E+00  9.000E+00
#rwgt            1           1   2.5061702624576666E-002           4       29046           0
</event>
<event>
      5   9999  3.19816E-02  1.39189E+02 -1.00000E+00  1.17696E-01
      21    -1     0     0   502   501  0.000000000E+00  0.000000000E+00  7.405613006E+02  7.405613006E+02  0.000000000E+00  0.00000E+00  9.000E+00
      21    -1     0     0   501   512  0.000000000E+00  0.000000000E+00 -5.347368085E+02  5.347368085E+02  0.000000000E+00  0.00000E+00  9.000E+00
      25     1     1     2     0     0 -2.277885653E+02 -1.769321913E+02  4.694027733E+02  5.649394607E+02  1.250000000E+02  0.00000E+00  9.000E+00
      25     1     1     2     0     0  9.116242819E+01  1.503446093E+02  1.573481984E+02  2.670160021E+02  1.250000000E+02  0.00000E+00  9.000E+00
      21     1     1     2   502   512  1.366261371E+02  2.658758200E+01 -4.209264795E+02  4.433426463E+02  5.394796609E-06  0.00000E+00  9.000E+00
#rwgt            1           1   2.8348029831390922E-002           4       29227           0
</event>
<event>
      5   9999  3.19816E-02  4.48021E+00 -1.00000E+00  2.52383E-01
      21    -1     0     0   502   501  0.000000000E+00  0.000000000E+00  3.104547402E+02  3.104547402E+02  0.000000000E+00  0.00000E+00  9.000E+00
      21    -1     0     0   511   502  0.000000000E+00  0.000000000E+00 -1.007816327E+02  1.007816327E+02  0.000000000E+00  0.00000E+00  9.000E+00
      25     1     1     2     0     0 -3.575604259E+01  9.705184816E+01  1.654049033E+02  2.316923344E+02  1.250000000E+02  0.00000E+00  9.000E+00
      25     1     1     2     0     0  3.995652247E+01 -9.861013976E+01  5.061336046E+01  1.717765863E+02  1.250000000E+02  0.00000E+00  9.000E+00
      21     1     1     2   511   501 -4.200479882E+00  1.558291599E+00 -6.345156295E+00  7.767452115E+00  1.884864366E-07  0.00000E+00  9.000E+00
#rwgt            1           1   3.0542619344996358E-002           4       29259           0
</event>
<event>
      5   9999  3.19816E-02  2.39086E+01 -1.00000E+00  1.60217E-01
      21    -1     0     0   502   501  0.000000000E+00  0.000000000E+00  1.052665994E+03  1.052665994E+03  0.000000000E+00  0.00000E+00  9.000E+00
      21    -1     0     0   512   502  0.000000000E+00  0.000000000E+00 -6.406816602E+01  6.406816602E+01  0.000000000E+00  0.00000E+00  9.000E+00
      25     1     1     2     0     0 -1.931152122E+01 -2.120707820E+01  7.239600142E+02  7.352317846E+02  1.250000000E+02  0.00000E+00  9.000E+00
      25     1     1     2     0     0  2.802504035E+01  4.347129819E+01  3.055271291E+02  3.341361747E+02  1.250000000E+02  0.00000E+00  9.000E+00
      21     1     1     2   512   501 -8.713519128E+00 -2.226421999E+01 -4.088931501E+01  4.736620092E+01  3.053247565E-06  0.00000E+00  9.000E+00
#rwgt            1           1   2.7012382696342350E-002           4       29476           0
</event>
<event>
      5   9999  3.19816E-02  1.22618E+02 -1.00000E+00  1.19972E-01
      21    -1     0     0   502   501  0.000000000E+00  0.000000000E+00  9.646159552E+02  9.646159552E+02  0.000000000E+00  0.00000E+00  9.000E+00
      21    -1     0     0   511   502  0.000000000E+00  0.000000000E+00 -5.247915131E+02  5.247915131E+02  0.000000000E+00  0.00000E+00  9.000E+00
      25     1     1     2     0     0 -2.209921080E+02 -4.364203771E+01  8.468718500E+02  8.851887198E+02  1.250000000E+02  0.00000E+00  9.000E+00
      25     1     1     2     0     0  2.924430996E+02 -5.600650638E+01 -2.766974207E+02  4.252601061E+02  1.250000000E+02  0.00000E+00  9.000E+00
      21     1     1     2   511   501 -7.145099153E+01  9.964854408E+01 -1.303499871E+02  1.789586424E+02  1.907348633E-06  0.00000E+00  9.000E+00
#rwgt            1           1   2.7108175696990217E-002           4       29612           0
</event>
<event>
      5   9999  3.19816E-02  1.06355E+02 -1.00000E+00  1.22636E-01
      21    -1     0     0   502   512  0.000000000E+00  0.000000000E+00  3.141948180E+02  3.141948180E+02  0.000000000E+00  0.00000E+00  9.000E+00
      21    -1     0     0   501   502  0.000000000E+00  0.000000000E+00 -3.217303759E+02  3.217303759E+02  0.000000000E+00  0.00000E+00  9.000E+00
      25     1     1     2     0     0 -6.626817596E+01 -4.623250309E+01  2.182591585E+02  2.641798171E+02  1.250000000E+02  0.00000E+00  9.000E+00
      25     1     1     2     0     0  7.552228934E-01 -3.754979354E+01 -2.309340899E+02  2.652661140E+02  1.250000000E+02  0.00000E+00  9.000E+00
      21     1     1     2   501   512  6.551295306E+01  8.378229663E+01  5.139373449E+00  1.064792628E+02  9.156639275E-07  0.00000E+00  9.000E+00
#rwgt            1           1   2.8049562939537934E-002           4       29708           0
</event>
<event>
      5   9999  3.19816E-02  2.05436E+02 -1.00000E+00  1.11226E-01
      21    -1     0     0   502   511  0.000000000E+00  0.000000000E+00  2.024956913E+02  2.024956913E+02  0.000000000E+00  0.00000E+00  9.000E+00
      21    -1     0     0   501   502  0.000000000E+00  0.000000000E+00 -7.820364247E+02  7.820364247E+02  0.000000000E+00  0.00000E+00  9.000E+00
      25     1     1     2     0     0  1.102493540E+02 -2.084847266E+01 -2.464764408E+02  2.982703719E+02  1.250000000E+02  0.00000E+00  9.000E+00
      25     1     1     2     0     0  1.209877316E+01 -1.441821038E+02 -4.213143832E+02  4.626723126E+02  1.250000000E+02  0.00000E+00  9.000E+00
      21     1     1     2   501   511 -1.223481272E+02  1.650305764E+02  8.825009057E+01  2.235894315E+02  1.348699152E-06  0.00000E+00  9.000E+00
#rwgt            2          11   9.7439397148183175E-003           4       29776           0
</event>
<event>
      5   9999  3.19816E-02  1.46747E+02 -1.00000E+00  1.16772E-01
      21    -1     0     0   502   501  0.000000000E+00  0.000000000E+00  7.330105398E+01  7.330105398E+01  0.000000000E+00  0.00000E+00  9.000E+00
       1    -1     0     0   501     0  0.000000000E+00  0.000000000E+00 -3.902929117E+03  3.902929117E+03  0.000000000E+00  0.00000E+00  9.000E+00
      25     1     1     2     0     0 -1.199569410E+02  2.835607097E+02 -1.179534590E+03  1.225448160E+03  1.250000000E+02  0.00000E+00  9.000E+00
      25     1     1     2     0     0 -8.981064601E+00 -3.536302838E+02 -6.917010788E+02  7.868992436E+02  1.250000000E+02  0.00000E+00  9.000E+00
       1     1     1     2   502     0  1.289380056E+02  7.006957406E+01 -1.958392394E+03  1.963882767E+03  2.157918644E-05  0.00000E+00  9.000E+00
#rwgt            2          12   7.3489129301225443E-004           4       29796           0
</event>
<event>
      5   9999  3.19816E-02  2.53293E+01 -1.00000E+00  1.58326E-01
      21    -1     0     0   502   501  0.000000000E+00  0.000000000E+00  3.032156315E+02  3.032156315E+02  0.000000000E+00  0.00000E+00  9.000E+00
      21    -1     0     0   501   511  0.000000000E+00  0.000000000E+00 -3.139110400E+02  3.139110400E+02  0.000000000E+00  0.00000E+00  9.000E+00
      25     1     1     2     0     0 -7.933020436E+01  1.087059654E+02 -5.918602881E+01  1.929721592E+02  1.250000000E+02  0.00000E+00  9.000E+00
      25     1     1     2     0     0  1.007364831E+02 -9.516553636E+01  1.982474355E+02  2.722707550E+02  1.250000000E+02  0.00000E+00  9.000E+00
      21     1     1     2   502   511 -2.140627878E+01 -1.354042902E+01 -1.497568153E+02  1.518837572E+02  1.907348633E-06  0.00000E+00  9.000E+00
#rwgt            1           1   2.8556473624252683E-002           4       29815           0
</event>
<event>
      5   9999  3.19816E-02  1.78485E+01 -1.00000E+00  1.70553E-01
      21    -1     0     0   502   512  0.000000000E+00  0.000000000E+00  2.916793982E+02  2.916793982E+02  0.000000000E+00  0.00000E+00  9.000E+00
      21    -1     0     0   501   502  0.000000000E+00  0.000000000E+00 -3.962777705E+02  3.962777705E+02  0.000000000E+00  0.00000E+00  9.000E+00
      25     1     1     2     0     0  1.408153961E+02  1.386886771E+02  1.397588749E+02  2.724354383E+02  1.250000000E+02  0.00000E+00  9.000E+00
      25     1     1     2     0     0 -1.520255082E+02 -1.525776661E+02 -2.805706192E+02  3.751487328E+02  1.250000000E+02  0.00000E+00  9.000E+00
      21     1     1     2   501   512  1.121011209E+01  1.388898895E+01  3.621337201E+01  4.037299765E+01  4.768371582E-07  0.00000E+00  9.000E+00
#rwgt            1           1   2.3551285619067327E-002           4       29916           0
</event>
<event>
      5   9999  3.19816E-02  8.80380E+01 -1.00000E+00  1.26369E-01
      21    -1     0     0   502   501  0.000000000E+00  0.000000000E+00  2.045208387E+02  2.045208387E+02  0.000000000E+00  0.00000E+00  9.000E+00
      21    -1     0     0   501   511  0.000000000E+00  0.000000000E+00 -1.534152946E+03  1.534152946E+03  0.000000000E+00  0.00000E+00  9.000E+00
      25     1     1     2     0     0  1.460765380E+02  4.543858274E+02 -8.809967896E+02  1.009745106E+03  1.250000000E+02  0.00000E+00  9.000E+00
      25     1     1     2     0     0 -2.171389566E+02 -4.024164294E+02 -3.159118197E+02  5.696609404E+02  1.250000000E+02  0.00000E+00  9.000E+00
      21     1     1     2   502   511  7.106241869E+01 -5.196939798E+01 -1.327234979E+02  1.592677386E+02  3.814697266E-06  0.00000E+00  9.000E+00
#rwgt            1           1   3.0249643558253825E-002           4       30143           0
</event>
<event>
      5   9999  3.19816E-02  5.74647E+01 -1.00000E+00  1.35713E-01
      21    -1     0     0   502   501  0.000000000E+00  0.000000000E+00  1.066751053E+02  1.066751053E+02  0.000000000E+00  0.00000E+00  9.000E+00
      21    -1     0     0   501   512  0.000000000E+00  0.000000000E+00 -1.405898295E+03  1.405898295E+03  0.000000000E+00  0.00000E+00  9.000E+00
      25     1     1     2     0     0 -2.521200842E+02 -1.134091746E+02 -2.984806404E+02  4.256076485E+02  1.250000000E+02  0.00000E+00  9.000E+00
      25     1     1     2     0     0  2.844969517E+02  1.608848098E+02 -7.215892662E+02  8.019591677E+02  1.250000000E+02  0.00000E+00  9.000E+00
      21     1     1     2   502   512 -3.237686749E+01 -4.747563524E+01 -2.791532830E+02  2.850065840E+02  6.607249480E-06  0.00000E+00  9.000E+00
#rwgt            1           1   2.8040307784519290E-002           4       30206           0
</event>
<event>
      5   9999  3.19816E-02  4.85888E+01 -1.00000E+00  1.39789E-01
      21    -1     0     0   502   501  0.000000000E+00  0.000000000E+00  4.595439462E+02  4.595439462E+02  0.000000000E+00  0.00000E+00  9.000E+00
      21    -1     0     0   501   511  0.000000000E+00  0.000000000E+00 -1.230419938E+02  1.230419938E+02  0.000000000E+00  0.00000E+00  9.000E+00
      25     1     1     2     0     0  1.151789896E+02 -1.554973624E+02  1.671189335E+02  2.846038779E+02  1.250000000E+02  0.00000E+00  9.000E+00
      25     1     1     2     0     0 -7.764255634E+01  1.246446251E+02  1.546852735E+02  2.472188969E+02  1.250000000E+02  0.00000E+00  9.000E+00
      21     1     1     2   502   511 -3.753643329E+01  3.085273733E+01  1.469774539E+01  5.076316524E+01  5.057621821E-07  0.00000E+00  9.000E+00
#rwgt            1           1   3.0857287208383655E-002           4       30283           0
</event>
<event>
      5   9999  3.19816E-02  2.18465E+01 -1.00000E+00  1.63266E-01
      21    -1     0     0   502   501  0.000000000E+00  0.000000000E+00  7.911587394E+02  7.911587394E+02  0.000000000E+00  0.00000E+00  9.000E+00
      -2    -1     0     0     0   502  0.000000000E+00  0.000000000E+00 -1.542088038E+02  1.542088038E+02  0.000000000E+00  0.00000E+00  9.000E+00
      25     1     1     2     0     0 -1.948830865E+02 -1.461084796E+02  2.896457187E+02  3.985558274E+02  1.250000000E+02  0.00000E+00  9.000E+00
      25     1     1     2     0     0  1.929134041E+02  1.243509111E+02  4.067513639E+02  4.834774065E+02  1.250000000E+02  0.00000E+00  9.000E+00
      -2     1     1     2     0   501  1.969682409E+00  2.175756847E+01 -5.944714704E+01  6.333430923E+01  1.651812370E-06  0.00000E+00  9.000E+00
#rwgt            1           1   2.9357772073728593E-002           4       30438           0
</event>
<event>
      5   9999  3.19816E-02  8.91976E+01 -1.00000E+00  1.26103E-01
      21    -1     0     0   502   511  0.000000000E+00  0.000000000E+00  7.320951054E+02  7.320951054E+02  0.000000000E+00  0.00000E+00  9.000E+00
      21    -1     0     0   501   502  0.000000000E+00  0.000000000E+00 -3.275393985E+02  3.275393985E+02  0.000000000E+00  0.00000E+00  9.000E+00
      25     1     1     2     0     0  1.994263806E+02  1.358390631E+02  2.031768649E+01  2.725086067E+02  1.250000000E+02  0.00000E+00  9.000E+00
      25     1     1     2     0     0 -1.125966540E+02 -1.562551715E+02 -1.309164629E+02  2.643062719E+02  1.250000000E+02  0.00000E+00  9.000E+00
      21     1     1     2   501   511 -8.682972667E+01  2.041610845E+01  5.151544833E+02  5.228196253E+02  0.000000000E+00  0.00000E+00  9.000E+00
#rwgt            1           1   2.7574807704574700E-002           4       30610           0
</event>
<event>
      5   9999  3.19816E-02  2.39385E+01 -1.00000E+00  1.60175E-01
      21    -1     0     0   502   501  0.000000000E+00  0.000000000E+00  3.958229099E+02  3.958229099E+02  0.000000000E+00  0.00000E+00  9.000E+00
      21    -1     0     0   501   512  0.000000000E+00  0.000000000E+00 -7.912852904E+02  7.912852904E+02  0.000000000E+00  0.00000E+00  9.000E+00
      25     1     1     2     0     0 -9.851556595E+01 -3.560362780E+02 -4.750828483E+02  6.146510072E+02  1.250000000E+02  0.00000E+00  9.000E+00
      25     1     1     2     0     0  9.318370564E+01  3.793734113E+02  1.953299167E+02  4.542974406E+02  1.250000000E+02  0.00000E+00  9.000E+00
      21     1     1     2   502   512  5.331860311E+00 -2.333713338E+01 -1.157094489E+02  1.181597524E+02  0.000000000E+00  0.00000E+00  9.000E+00
#rwgt            1           1   3.6635393531450282E-002           4       30737           0
</event>
<event>
      5   9999  3.19816E-02  4.80333E+01 -1.00000E+00  1.40077E-01
       2    -1     0     0   502     0  0.000000000E+00  0.000000000E+00  1.266214135E+03  1.266214135E+03  0.000000000E+00  0.00000E+00  9.000E+00
      21    -1     0     0   501   502  0.000000000E+00  0.000000000E+00 -4.287608292E+02  4.287608292E+02  0.000000000E+00  0.00000E+00  9.000E+00
      25     1     1     2     0     0 -4.586641503E+02  3.626146567E+02  1.248245757E+02  6.107932275E+02  1.250000000E+02  0.00000E+00  9.000E+00
      25     1     1     2     0     0  4.106667779E+02 -3.644713684E+02  2.450367552E+02  6.141291332E+02  1.250000000E+02  0.00000E+00  9.000E+00
       2     1     1     2   501     0  4.799737244E+01  1.856711733E+00  4.675919749E+02  4.700526035E+02  5.394796609E-06  0.00000E+00  9.000E+00
#rwgt            1           1   3.0775373520420826E-002           4       30871           0
</event>
<event>
      5   9999  3.19816E-02  1.97210E+01 -1.00000E+00  1.66874E-01
      21    -1     0     0   502   501  0.000000000E+00  0.000000000E+00  1.965191293E+02  1.965191293E+02  0.000000000E+00  0.00000E+00  9.000E+00
      21    -1     0     0   511   502  0.000000000E+00  0.000000000E+00 -7.267639516E+02  7.267639516E+02  0.000000000E+00  0.00000E+00  9.000E+00
      25     1     1     2     0     0 -2.468930212E+01 -1.465118635E+02  1.273029740E+02  2.321773783E+02  1.250000000E+02  0.00000E+00  9.000E+00
      25     1     1     2     0     0  4.277673041E+01  1.386528412E+02 -6.165588969E+02  6.456193402E+02  1.250000000E+02  0.00000E+00  9.000E+00
      21     1     1     2   511   501 -1.808742829E+01  7.859022274E+00 -4.098889939E+01  4.548636242E+01  6.743495762E-07  0.00000E+00  9.000E+00
#rwgt            1           1   2.7767789752519017E-002           4       30980           0
</event>
<event>
      5   9999  3.19816E-02  3.73861E+02 -1.00000E+00  1.02576E-01
      21    -1     0     0   502   501  0.000000000E+00  0.000000000E+00  3.368219957E+02  3.368219957E+02  0.000000000E+00  0.00000E+00  9.000E+00
       2    -1     0     0   501     0  0.000000000E+00  0.000000000E+00 -1.549175959E+03  1.549175959E+03  0.000000000E+00  0.00000E+00  9.000E+00
      25     1     1     2     0     0 -1.413460688E+02 -1.021813783E+02  1.500635703E+02  2.618469407E+02  1.250000000E+02  0.00000E+00  9.000E+00
      25     1     1     2     0     0  8.487404983E+01  4.717530475E+02 -9.203425984E+02  1.045184214E+03  1.250000000E+02  0.00000E+00  9.000E+00
       2     1     1     2   502     0  5.647201895E+01 -3.695716692E+02 -4.420749349E+02  5.789668001E+02  0.000000000E+00  0.00000E+00  9.000E+00
#rwgt            2          13   9.2448111140909885E-004           4       31239           0
</event>
<event>
      5   9999  3.19816E-02  5.56187E+01 -1.00000E+00  1.36487E-01
      21    -1     0     0   502   501  0.000000000E+00  0.000000000E+00  8.626767146E+01  8.626767146E+01  0.000000000E+00  0.00000E+00  9.000E+00
       1    -1     0     0   501     0  0.000000000E+00  0.000000000E+00 -9.917185812E+02  9.917185812E+02  0.000000000E+00  0.00000E+00  9.000E+00
      25     1     1     2     0     0  1.338857203E+02 -2.801431480E+01 -4.312674719E+01  1.902501098E+02  1.250000000E+02  0.00000E+00  9.000E+00
      25     1     1     2     0     0 -8.905962997E+01 -4.910729920E+00 -5.798848698E+02  5.998726491E+02  1.250000000E+02  0.00000E+00  9.000E+00
       1     1     1     2   502     0 -4.482609038E+01  3.292504472E+01 -2.824392927E+02  2.878634938E+02  0.000000000E+00  0.00000E+00  9.000E+00
#rwgt            1           1   2.9217197188280478E-002           4       31258           0
</event>
<event>
      5   9999  3.19816E-02  9.92358E+01 -1.00000E+00  1.23978E-01
      21    -1     0     0   502   501  0.000000000E+00  0.000000000E+00  2.251547182E+02  2.251547182E+02  0.000000000E+00  0.00000E+00  9.000E+00
       1    -1     0     0   501     0  0.000000000E+00  0.000000000E+00 -9.145621564E+02  9.145621564E+02  0.000000000E+00  0.00000E+00  9.000E+00
      25     1     1     2     0     0  4.541570423E+01 -4.682027718E+01 -3.804780907E+01  1.460389000E+02  1.250000000E+02  0.00000E+00  9.000E+00
      25     1     1     2     0     0 -1.080882341E+02  1.237611322E+02  1.044540516E+02  2.313774688E+02  1.250000000E+02  0.00000E+00  9.000E+00
       1     1     1     2   502     0  6.267252986E+01 -7.694085498E+01 -7.558136807E+02  7.623005058E+02  0.000000000E+00  0.00000E+00  9.000E+00
#rwgt            1           1   3.6192315092675620E-002           4       31325           0
</event>
<event>
      5   9999  3.19816E-02  8.84340E+01 -1.00000E+00  1.26277E-01
      21    -1     0     0   511   501  0.000000000E+00  0.000000000E+00  2.211955560E+02  2.211955560E+02  0.000000000E+00  0.00000E+00  9.000E+00
      21    -1     0     0   501   502  0.000000000E+00  0.000000000E+00 -1.614620548E+03  1.614620548E+03  0.000000000E+00  0.00000E+00  9.000E+00
      25     1     1     2     0     0 -4.717373943E+02  7.349095079E+00 -3.766516984E+02  6.165076482E+02  1.250000000E+02  0.00000E+00  9.000E+00
      25     1     1     2     0     0  5.367404897E+02  5.261057496E+01 -9.756654010E+02  1.121787057E+03  1.250000000E+02  0.00000E+00  9.000E+00
      21     1     1     2   511   502 -6.500309540E+01 -5.995967004E+01 -4.110789262E+01  9.752139908E+01  1.907348633E-06  0.00000E+00  9.000E+00
#rwgt            1           1   2.4002879726837362E-002           4       31439           0
</event>
<event>
      5   9999  3.19816E-02  2.50376E+02 -1.00000E+00  1.08208E-01
      21    -1     0     0   502   501  0.000000000E+00  0.000000000E+00  1.194744614E+02  1.194744614E+02  0.000000000E+00  0.00000E+00  9.000E+00
      21    -1     0     0   501   512  0.000000000E+00  0.000000000E+00 -1.835184332E+03  1.835184332E+03  0.000000000E+00  0.00000E+00  9.000E+00
      25     1     1     2     0     0  2.500491093E+02 -1.590662847E+02 -1.181389036E+03  1.224390336E+03  1.250000000E+02  0.00000E+00  9.000E+00
      25     1     1     2     0     0 -1.518500164E+00  1.287220622E+02 -5.197339101E+01  1.868098191E+02  1.250000000E+02  0.00000E+00  9.000E+00
      21     1     1     2   502   512 -2.485306091E+02  3.034422247E+01 -4.823474436E+02  5.434586386E+02  9.344061824E-06  0.00000E+00  9.000E+00
#rwgt            1           1   3.1727224829818358E-002           4       31551           0
</event>
<event>
      5   9999  3.19816E-02  3.02839E+02 -1.00000E+00  1.05459E-01
      21    -1     0     0   511   501  0.000000000E+00  0.000000000E+00  3.955639827E+02  3.955639827E+02  0.000000000E+00  0.00000E+00  9.000E+00
      21    -1     0     0   501   502  0.000000000E+00  0.000000000E+00 -1.245899090E+03  1.245899090E+03  0.000000000E+00  0.00000E+00  9.000E+00
      25     1     1     2     0     0  6.191227622E+01 -1.815345478E+02  6.582647728E+00  2.290333016E+02  1.250000000E+02  0.00000E+00  9.000E+00
      25     1     1     2     0     0 -6.794805361E+01  4.843134727E+02 -9.664970902E+02  1.090375212E+03  1.250000000E+02  0.00000E+00  9.000E+00
      21     1     1     2   511   502  6.035777387E+00 -3.027789248E+02  1.095793355E+02  3.220545586E+02  5.223489356E-06  0.00000E+00  9.000E+00
#rwgt            2          11   4.1258252542485342E-003           4       31699           0
</event>
<event>
      5   9999  3.19816E-02  3.28669E+01 -1.00000E+00  1.50337E-01
      21    -1     0     0   502   512  0.000000000E+00  0.000000000E+00  4.848017167E+02  4.848017167E+02  0.000000000E+00  0.00000E+00  9.000E+00
      21    -1     0     0   501   502  0.000000000E+00  0.000000000E+00 -5.277738177E+02  5.277738177E+02  0.000000000E+00  0.00000E+00  9.000E+00
      25     1     1     2     0     0 -3.295677950E+02  2.899077563E+02 -9.103364542E+01  4.653746483E+02  1.250000000E+02  0.00000E+00  9.000E+00
      25     1     1     2     0     0  3.584936612E+02 -2.743024907E+02 -2.295538011E+01  4.689472369E+02  1.250000000E+02  0.00000E+00  9.000E+00
      21     1     1     2   501   512 -2.892586614E+01 -1.560526564E+01  7.101692454E+01  7.825364923E+01  9.536743164E-07  0.00000E+00  9.000E+00
#rwgt            1           1   2.9573249853530544E-002           4       31764           0
</event>
<event>
      5   9999  3.19816E-02  2.92107E+01 -1.00000E+00  1.53848E-01
      21    -1     0     0   502   501  0.000000000E+00  0.000000000E+00  2.158413173E+03  2.158413173E+03  0.000000000E+00  0.00000E+00  9.000E+00
      21    -1     0     0   501   511  0.000000000E+00  0.000000000E+00 -3.240698164E+02  3.240698164E+02  0.000000000E+00  0.00000E+00  9.000E+00
      25     1     1     2     0     0  1.213712927E+02 -6.298387875E+02  4.870167993E+02  8.150081299E+02  1.250000000E+02  0.00000E+00  9.000E+00
      25     1     1     2     0     0 -9.584999301E+01  6.156286305E+02  1.438033559E+03  1.572180444E+03  1.250000000E+02  0.00000E+00  9.000E+00
      21     1     1     2   502   511 -2.552129969E+01  1.421015704E+01 -9.070700214E+01  9.529441504E+01  2.697398305E-06  0.00000E+00  9.000E+00
#rwgt            1           1   2.9937843547919511E-002           4       31911           0
</event>
<event>
      5   9999  3.19816E-02  2.17026E+01 -1.00000E+00  1.63494E-01
      21    -1     0     0   502   501  0.000000000E+00  0.000000000E+00  2.038183419E+02  2.038183419E+02  0.000000000E+00  0.00000E+00  9.000E+00
      21    -1     0     0   512   502  0.000000000E+00  0.000000000E+00 -7.593102690E+02  7.593102690E+02  0.000000000E+00  0.00000E+00  9.000E+00
      25     1     1     2     0     0 -3.399778591E+02 -6.010571696E+01 -1.384230237E+02  3.924074099E+02  1.250000000E+02  0.00000E+00  9.000E+00
      25     1     1     2     0     0  3.359619252E+02  8.143355835E+01 -3.985765287E+02  5.422085289E+02  1.250000000E+02  0.00000E+00  9.000E+00
      21     1     1     2   512   501  4.015933880E+00 -2.132784139E+01 -1.849237477E+01  2.851267206E+01  4.768371582E-07  0.00000E+00  9.000E+00
#rwgt            1           1   2.8031150630250180E-002           4       32111           0
</event>
<event>
      5   9999  3.19816E-02  7.06241E+01 -1.00000E+00  1.31026E-01
      21    -1     0     0   502   501  0.000000000E+00  0.000000000E+00  1.963517543E+03  1.963517543E+03  0.000000000E+00  0.00000E+00  9.000E+00
      21    -1     0     0   501   511  0.000000000E+00  0.000000000E+00 -3.683763541E+01  3.683763541E+01  0.000000000E+00  0.00000E+00  9.000E+00
      25     1     1     2     0     0 -1.860709325E+01  1.098969100E+02  5.240924086E+02  5.502012427E+02  1.250000000E+02  0.00000E+00  9.000E+00
      25     1     1     2     0     0  8.336096331E+00 -1.797701142E+02  1.333411928E+03  1.351295362E+03  1.250000000E+02  0.00000E+00  9.000E+00
      21     1     1     2   502   511  1.027099692E+01  6.987320419E+01  6.917557079E+01  9.885857391E+01  1.651812370E-06  0.00000E+00  9.000E+00
#rwgt            1           1   7.2611880431815337E-002           4       32385           0
</event>
<event>
      5   9999  3.19816E-02  1.42221E+01 -1.00000E+00  1.79590E-01
      21    -1     0     0   502   501  0.000000000E+00  0.000000000E+00  3.040723407E+02  3.040723407E+02  0.000000000E+00  0.00000E+00  9.000E+00
      21    -1     0     0   501   512  0.000000000E+00  0.000000000E+00 -6.372504880E+02  6.372504880E+02  0.000000000E+00  0.00000E+00  9.000E+00
      25     1     1     2     0     0 -4.613754280E+01 -3.921108476E+02 -9.412214969E+01  4.246923224E+02  1.250000000E+02  0.00000E+00  9.000E+00
      25     1     1     2     0     0  4.629062943E+01  4.063321518E+02 -1.943730670E+02  4.697387882E+02  1.250000000E+02  0.00000E+00  9.000E+00
      21     1     1     2   502   512 -1.530866316E-01 -1.422130424E+01 -4.468293060E+01  4.689171800E+01  1.066240300E-06  0.00000E+00  9.000E+00
#rwgt            1           1   2.6710808017342963E-002           4       32463           0
</event>
<event>
      5   9999  3.19816E-02  1.08550E+02 -1.00000E+00  1.22246E-01
      21    -1     0     0   502   501  0.000000000E+00  0.000000000E+00  8.622707030E+02  8.622707030E+02  0.000000000E+00  0.00000E+00  9.000E+00
      21    -1     0     0   511   502  0.000000000E+00  0.000000000E+00 -2.382994331E+02  2.382994331E+02  0.000000000E+00  0.00000E+00  9.000E+00
      25     1     1     2     0     0 -1.853080491E+02 -1.066899458E+02  6.749385163E+02  7.189498024E+02  1.250000000E+02  0.00000E+00  9.000E+00
      25     1     1     2     0     0  1.299169524E+02  2.000440961E+02 -2.883458189E+01  2.708366445E+02  1.250000000E+02  0.00000E+00  9.000E+00
      21     1     1     2   511   501  5.539109664E+01 -9.335415030E+01 -2.213266447E+01  1.107836892E+02  1.617033478E-06  0.00000E+00  9.000E+00
#rwgt            2          11   3.5759581584078894E-003           4       32909           0
</event>
<event>
      5   9999  3.19816E-02  2.09974E+01 -1.00000E+00  1.64644E-01
       2    -1     0     0   502     0  0.000000000E+00  0.000000000E+00  1.321558519E+03  1.321558519E+03  0.000000000E+00  0.00000E+00  9.000E+00
      21    -1     0     0   501   502  0.000000000E+00  0.000000000E+00 -9.161588913E+01  9.161588913E+01  0.000000000E+00  0.00000E+00  9.000E+00
      25     1     1     2     0     0  2.723072990E+01 -7.665449853E+01 -1.717365060E+01  1.501244786E+02  1.250000000E+02  0.00000E+00  9.000E+00
      25     1     1     2     0     0 -3.778375136E+01  5.850166413E+01  6.499619791E+02  6.655265816E+02  1.250000000E+02  0.00000E+00  9.000E+00
       2     1     1     2   501     0  1.055302146E+01  1.815283440E+01  5.971543012E+02  5.975233477E+02  7.629394531E-06  0.00000E+00  9.000E+00
#rwgt            1           1   2.9562742353340596E-002           4       32944           0
</event>
<event>
      5   9999  4.03302E-02  7.97409E+01 -1.00000E+00  1.28418E-01
      21    -1     0     0   502   501  0.000000000E+00  0.000000000E+00  1.093924794E+03  1.093924794E+03  0.000000000E+00  0.00000E+00  9.000E+00
      -4    -1     0     0     0   502  0.000000000E+00  0.000000000E+00 -1.688764689E+03  1.688764689E+03  0.000000000E+00  0.00000E+00  9.000E+00
      25     1     1     2     0     0 -3.118448904E+02  1.303473028E+02  1.043061642E+03  1.103557993E+03  1.250000000E+02  0.00000E+00  9.000E+00
      25     1     1     2     0     0  2.410309578E+02 -9.368673717E+01 -1.188825816E+03  1.223031050E+03  1.250000000E+02  0.00000E+00  9.000E+00
      -4     1     1     2     0   501  7.081393258E+01 -3.666056563E+01 -4.490757201E+02  4.561004413E+02  5.394796609E-06  0.00000E+00  9.000E+00
#rwgt            1           1   9.6856230940829416E-002           4       33072           0
</event>
<event>
      5   9999  3.19816E-02  3.68472E+01 -1.00000E+00  1.47087E-01
      21    -1     0     0   511   501  0.000000000E+00  0.000000000E+00  6.167895782E+02  6.167895782E+02  0.000000000E+00  0.00000E+00  9.000E+00
      21    -1     0     0   501   502  0.000000000E+00  0.000000000E+00 -2.029845002E+02  2.029845002E+02  0.000000000E+00  0.00000E+00  9.000E+00
      25     1     1     2     0     0  5.080838614E+01 -2.993282854E+02  2.417129068E+02  4.077119619E+02  1.250000000E+02  0.00000E+00  9.000E+00
      25     1     1     2     0     0 -4.388571106E+01  2.631371937E+02  6.899252005E+01  3.025757858E+02  1.250000000E+02  0.00000E+00  9.000E+00
      21     1     1     2   511   502 -6.922675081E+00  3.619109166E+01  1.030996511E+02  1.094863307E+02  1.348699152E-06  0.00000E+00  9.000E+00
#rwgt            1           1   3.0014299047500075E-002           4       33207           0
</event>
<event>
      5   9999  3.19816E-02  5.37655E+01 -1.00000E+00  1.37300E-01
      21    -1     0     0   502   501  0.000000000E+00  0.000000000E+00  9.597894883E+01  9.597894883E+01  0.000000000E+00  0.00000E+00  9.000E+00
      21    -1     0     0   501   512  0.000000000E+00  0.000000000E+00 -5.751948072E+02  5.751948072E+02  0.000000000E+00  0.00000E+00  9.000E+00
      25     1     1     2     0     0 -7.106642410E+00  2.570201122E+01 -4.205723921E+02  4.395648243E+02  1.250000000E+02  0.00000E+00  9.000E+00
      25     1     1     2     0     0  5.994670597E+01 -1.576942901E+01  1.510721338E+01  1.403406938E+02  1.250000000E+02  0.00000E+00  9.000E+00
      21     1     1     2   502   512 -5.284006356E+01 -9.932582215E+00 -7.375067966E+01  9.126823794E+01  1.348699152E-06  0.00000E+00  9.000E+00
#rwgt            2          11   2.2889882160612393E-003           4       33977           0
</event>
<event>
      5   9999  3.19816E-02  7.06726E+01 -1.00000E+00  1.31011E-01
       2    -1     0     0   502     0  0.000000000E+00  0.000000000E+00  3.176996646E+03  3.176996646E+03  0.000000000E+00  0.00000E+00  9.000E+00
      21    -1     0     0   501   502  0.000000000E+00  0.000000000E+00 -2.355584163E+02  2.355584163E+02  0.000000000E+00  0.00000E+00  9.000E+00
      25     1     1     2     0     0 -5.780003703E+01 -2.067699629E+01 -1.931237247E+02  2.380969455E+02  1.250000000E+02  0.00000E+00  9.000E+00
      25     1     1     2     0     0  1.262181389E+01  7.502350976E+01  2.548043249E+02  2.938334242E+02  1.250000000E+02  0.00000E+00  9.000E+00
       2     1     1     2   501     0  4.517822314E+01 -5.434651348E+01  2.879757629E+03  2.880624693E+03  3.051757812E-05  0.00000E+00  9.000E+00
#rwgt            1           1   2.6753312600208506E-002           4       34012           0
</event>
<event>
      5   9999  3.19816E-02  3.17777E+01 -1.00000E+00  1.51323E-01
      21    -1     0     0   502   501  0.000000000E+00  0.000000000E+00  3.478306792E+02  3.478306792E+02  0.000000000E+00  0.00000E+00  9.000E+00
      21    -1     0     0   501   511  0.000000000E+00  0.000000000E+00 -9.878523459E+02  9.878523459E+02  0.000000000E+00  0.00000E+00  9.000E+00
      25     1     1     2     0     0  1.199235727E+02 -4.194124210E+02  7.155196252E+01  4.593834188E+02  1.250000000E+02  0.00000E+00  9.000E+00
      25     1     1     2     0     0 -1.367726940E+02  3.924693012E+02 -4.988799452E+02  6.612451300E+02  1.250000000E+02  0.00000E+00  9.000E+00
      21     1     1     2   502   511  1.684912127E+01  2.694311979E+01 -2.126936840E+02  2.150544764E+02  2.697398305E-06  0.00000E+00  9.000E+00
#rwgt            1           1   2.5166299905309265E-002           4       34110           0
</event>
<event>
      5   9999  3.19816E-02  8.32907E+02 -1.00000E+00  9.29387E-02
      21    -1     0     0   502   501  0.000000000E+00  0.000000000E+00  2.851250439E+03  2.851250439E+03  0.000000000E+00  0.00000E+00  9.000E+00
       1    -1     0     0   501     0  0.000000000E+00  0.000000000E+00 -5.996515787E+02  5.996515787E+02  0.000000000E+00  0.00000E+00  9.000E+00
      25     1     1     2     0     0  2.704920206E+01  1.118345847E+03  1.165099486E+03  1.620034229E+03  1.250000000E+02  0.00000E+00  9.000E+00
      25     1     1     2     0     0 -2.133388861E+02 -3.065389517E+02  8.926961295E+02  9.757105046E+02  1.250000000E+02  0.00000E+00  9.000E+00
       1     1     1     2   502     0  1.862896841E+02 -8.118068956E+02  1.938032454E+02  8.551572838E+02  3.814697266E-06  0.00000E+00  9.000E+00
#rwgt            2          12   1.1816373728803959E-004           4       34329           0
</event>
<event>
      5   9999  3.19816E-02  2.14724E+02 -1.00000E+00  1.10536E-01
      21    -1     0     0   502   501  0.000000000E+00  0.000000000E+00  9.352509648E+02  9.352509648E+02  0.000000000E+00  0.00000E+00  9.000E+00
      21    -1     0     0   511   502  0.000000000E+00  0.000000000E+00 -1.228676121E+03  1.228676121E+03  0.000000000E+00  0.00000E+00  9.000E+00
      25     1     1     2     0     0 -4.375847755E+02  8.010871240E+02  1.550296403E+02  9.342805817E+02  1.250000000E+02  0.00000E+00  9.000E+00
      25     1     1     2     0     0  6.138272413E+02 -6.784288320E+02 -4.148378125E+02  1.012306758E+03  1.250000000E+02  0.00000E+00  9.000E+00
      21     1     1     2   511   501 -1.762424658E+02 -1.226582920E+02 -3.361698354E+01  2.173397454E+02  1.784161275E-06  0.00000E+00  9.000E+00
#rwgt            2          11   9.1179891570760327E-003           4       34378           0
</event>
<event>
      5   9999  3.19816E-02  6.70689E+01 -1.00000E+00  1.32168E-01
      21    -1     0     0   502   501  0.000000000E+00  0.000000000E+00  6.072145147E+02  6.072145147E+02  0.000000000E+00  0.00000E+00  9.000E+00
       2    -1     0     0   501     0  0.000000000E+00  0.000000000E+00 -2.724915384E+02  2.724915384E+02  0.000000000E+00  0.00000E+00  9.000E+00
      25     1     1     2     0     0  5.226444803E+01 -1.208255912E+02  3.396381705E+02  3.851097024E+02  1.250000000E+02  0.00000E+00  9.000E+00
      25     1     1     2     0     0 -9.293710866E+01  1.741545260E+02  1.818993909E+02  2.961072331E+02  1.250000000E+02  0.00000E+00  9.000E+00
       2     1     1     2   502     0  4.067266063E+01 -5.332893480E+01 -1.868145851E+02  1.984891177E+02  2.697398305E-06  0.00000E+00  9.000E+00
#rwgt            2          13   3.4143025319932581E-004           4       34398           0
</event>
<event>
      5   9999  3.19816E-02  2.86417E+01 -1.00000E+00  1.54451E-01
      21    -1     0     0   502   511  0.000000000E+00  0.000000000E+00  2.692747018E+02  2.692747018E+02  0.000000000E+00  0.00000E+00  9.000E+00
      21    -1     0     0   501   502  0.000000000E+00  0.000000000E+00 -6.582870900E+02  6.582870900E+02  0.000000000E+00  0.00000E+00  9.000E+00
      25     1     1     2     0     0  3.825256615E+01 -2.549848749E+02 -5.153502970E+02  5.896536898E+02  1.250000000E+02  0.00000E+00  9.000E+00
      25     1     1     2     0     0 -5.916357458E+01  2.354125670E+02  1.392527153E+02  3.064893538E+02  1.250000000E+02  0.00000E+00  9.000E+00
      21     1     1     2   501   511  2.091100843E+01  1.957230790E+01 -1.291480664E+01  3.141874823E+01  3.769728732E-07  0.00000E+00  9.000E+00
#rwgt            1           1   2.5676524256157879E-002           4       34432           0
</event>
<event>
      5   9999  3.19816E-02  4.03993E+01 -1.00000E+00  1.44573E-01
      21    -1     0     0   512   501  0.000000000E+00  0.000000000E+00  2.156439906E+02  2.156439906E+02  0.000000000E+00  0.00000E+00  9.000E+00
      21    -1     0     0   501   502  0.000000000E+00  0.000000000E+00 -2.063816051E+02  2.063816051E+02  0.000000000E+00  0.00000E+00  9.000E+00
      25     1     1     2     0     0 -2.595310715E+01  1.091680493E+02  6.079579315E+01  1.786402956E+02  1.250000000E+02  0.00000E+00  9.000E+00
      25     1     1     2     0     0  1.815921460E+01 -1.488084130E+02 -5.513314065E+01  2.028259452E+02  1.250000000E+02  0.00000E+00  9.000E+00
      21     1     1     2   512   502  7.793892555E+00  3.964036368E+01  3.599732958E+00  4.055935492E+01  7.702617635E-07  0.00000E+00  9.000E+00
#rwgt            1           1   2.4372624315359859E-002           4       34596           0
</event>
<event>
      5   9999  3.19816E-02  4.89079E+01 -1.00000E+00  1.39625E-01
      21    -1     0     0   511   501  0.000000000E+00  0.000000000E+00  1.153475681E+03  1.153475681E+03  0.000000000E+00  0.00000E+00  9.000E+00
      21    -1     0     0   501   502  0.000000000E+00  0.000000000E+00 -2.336656353E+03  2.336656353E+03  0.000000000E+00  0.00000E+00  9.000E+00
      25     1     1     2     0     0 -2.972192404E+02  5.708769070E+02 -4.996548295E+02  8.243298299E+02  1.250000000E+02  0.00000E+00  9.000E+00
      25     1     1     2     0     0  3.451124953E+02 -5.807876023E+02 -1.603518993E+03  1.744509970E+03  1.250000000E+02  0.00000E+00  9.000E+00
      21     1     1     2   511   502 -4.789325496E+01  9.910695318E+00  9.199931502E+02  9.212922349E+02  1.078959322E-05  0.00000E+00  9.000E+00
#rwgt            1           1   2.3805606880931803E-002           4       34674           0
</event>
<event>
      5   9999  3.19816E-02  1.56628E+01 -1.00000E+00  1.75633E-01
       2    -1     0     0   502     0  0.000000000E+00  0.000000000E+00  2.947282608E+03  2.947282608E+03  0.000000000E+00  0.00000E+00  9.000E+00
      21    -1     0     0   501   502  0.000000000E+00  0.000000000E+00 -2.719755792E+02  2.719755792E+02  0.000000000E+00  0.00000E+00  9.000E+00
      25     1     1     2     0     0  3.535656651E+01  3.078582601E+02 -8.660165730E+01  3.451834905E+02  1.250000000E+02  0.00000E+00  9.000E+00
      25     1     1     2     0     0 -4.881346321E+01 -2.998436088E+02  4.252141275E+02  5.373276451E+02  1.250000000E+02  0.00000E+00  9.000E+00
       2     1     1     2   501     0  1.345689670E+01 -8.014651288E+00  2.336694558E+03  2.336747051E+03  0.000000000E+00  0.00000E+00  9.000E+00
#rwgt            1           1   2.7670969436204940E-002           4       34805           0
</event>
<event>
      5   9999  3.19816E-02  2.16579E+01 -1.00000E+00  1.63565E-01
      21    -1     0     0   502   501  0.000000000E+00  0.000000000E+00  1.345235996E+01  1.345235996E+01  0.000000000E+00  0.00000E+00  9.000E+00
      21    -1     0     0   511   502  0.000000000E+00  0.000000000E+00 -2.943421902E+03  2.943421902E+03  0.000000000E+00  0.00000E+00  9.000E+00
      25     1     1     2     0     0  3.712536407E+01 -9.171704609E+01 -2.023284568E+03  2.029555556E+03  1.250000000E+02  0.00000E+00  9.000E+00
      25     1     1     2     0     0 -5.873707770E+01  9.030267741E+01 -6.857412833E+02  7.053160466E+02  1.250000000E+02  0.00000E+00  9.000E+00
      21     1     1     2   511   501  2.161171364E+01  1.414368671E+00 -2.209436901E+02  2.220026595E+02  3.814697266E-06  0.00000E+00  9.000E+00
#rwgt            1           1   3.3837904702483150E-002           4       35068           0
</event>
<event>
      5   9999  3.19816E-02  1.00004E+02 -1.00000E+00  1.23827E-01
      21    -1     0     0   502   501  0.000000000E+00  0.000000000E+00  1.249602393E+03  1.249602393E+03  0.000000000E+00  0.00000E+00  9.000E+00
      21    -1     0     0   501   512  0.000000000E+00  0.000000000E+00 -1.205341236E+02  1.205341236E+02  0.000000000E+00  0.00000E+00  9.000E+00
      25     1     1     2     0     0  2.365704341E+02 -7.136269884E+01  6.580288894E+02  7.139224218E+02  1.250000000E+02  0.00000E+00  9.000E+00
      25     1     1     2     0     0 -3.265382530E+02  2.769724411E+01  4.078319001E+02  5.379091250E+02  1.250000000E+02  0.00000E+00  9.000E+00
      21     1     1     2   502   512  8.996781890E+01  4.366545473E+01  6.320748017E+01  1.183049700E+02  1.348699152E-06  0.00000E+00  9.000E+00
#rwgt            1           1   3.6115897846031239E-002           4       35170           0
</event>
<event>
      5   9999  3.19816E-02  2.83334E+01 -1.00000E+00  1.54784E-01
      21    -1     0     0   511   501  0.000000000E+00  0.000000000E+00  2.781690027E+02  2.781690027E+02  0.000000000E+00  0.00000E+00  9.000E+00
      21    -1     0     0   501   502  0.000000000E+00  0.000000000E+00 -3.743185544E+02  3.743185544E+02  0.000000000E+00  0.00000E+00  9.000E+00
      25     1     1     2     0     0 -2.010555313E+02  1.170209442E+02  9.606118915E+01  2.810159784E+02  1.250000000E+02  0.00000E+00  9.000E+00
      25     1     1     2     0     0  1.997858719E+02 -8.871596152E+01 -2.180687792E+02  3.331124569E+02  1.250000000E+02  0.00000E+00  9.000E+00
      21     1     1     2   511   502  1.269659386E+00 -2.830498266E+01  2.585803844E+01  3.835912186E+01  3.371747881E-07  0.00000E+00  9.000E+00
#rwgt            1           1   2.7118199385421288E-002           4       35224           0
</event>
<event>
      5   9999  3.19816E-02  5.21556E+01 -1.00000E+00  1.38038E-01
      21    -1     0     0   502   501  0.000000000E+00  0.000000000E+00  1.962127315E+03  1.962127315E+03  0.000000000E+00  0.00000E+00  9.000E+00
      21    -1     0     0   512   502  0.000000000E+00  0.000000000E+00 -4.952765361E+01  4.952765361E+01  0.000000000E+00  0.00000E+00  9.000E+00
      25     1     1     2     0     0  2.438135689E+01 -2.329477847E+01  9.051776940E+01  1.579733010E+02  1.250000000E+02  0.00000E+00  9.000E+00
      25     1     1     2     0     0 -5.927494529E+01 -1.546915937E+01  1.783206524E+03  1.788631690E+03  1.250000000E+02  0.00000E+00  9.000E+00
      21     1     1     2   512   501  3.489358840E+01  3.876393784E+01  3.887536801E+01  6.504997791E+01  2.132480600E-06  0.00000E+00  9.000E+00
#rwgt            1           1   2.6694243711730042E-002           4       35363           0
</event>
<event>
      5   9999  3.19816E-02  4.26170E+01 -1.00000E+00  1.43154E-01
      21    -1     0     0   502   501  0.000000000E+00  0.000000000E+00  8.125222946E+02  8.125222946E+02  0.000000000E+00  0.00000E+00  9.000E+00
       1    -1     0     0   501     0  0.000000000E+00  0.000000000E+00 -1.567700514E+03  1.567700514E+03  0.000000000E+00  0.00000E+00  9.000E+00
      25     1     1     2     0     0  3.848008462E+02  2.661005642E+02  5.618625315E+02  7.417517818E+02  1.250000000E+02  0.00000E+00  9.000E+00
      25     1     1     2     0     0 -4.273628422E+02 -2.639360187E+02 -2.575990969E+02  5.781725656E+02  1.250000000E+02  0.00000E+00  9.000E+00
       1     1     1     2   502     0  4.256199597E+01 -2.164545511E+00 -1.059441654E+03  1.060298462E+03  0.000000000E+00  0.00000E+00  9.000E+00
#rwgt            1           1   2.8147714142091898E-002           4       35427           0
</event>
<event>
      5   9999  3.19816E-02  1.70067E+02 -1.00000E+00  1.14273E-01
      21    -1     0     0   502   501  0.000000000E+00  0.000000000E+00  2.534634276E+02  2.534634276E+02  0.000000000E+00  0.00000E+00  9.000E+00
       2    -1     0     0   501     0  0.000000000E+00  0.000000000E+00 -1.656736748E+03  1.656736748E+03  0.000000000E+00  0.00000E+00  9.000E+00
      25     1     1     2     0     0 -3.559919196E+01 -2.783534777E+02 -5.068067762E+02  5.926432902E+02  1.250000000E+02  0.00000E+00  9.000E+00
      25     1     1     2     0     0 -1.334603305E+02  2.598684144E+02  7.895756124E+01  3.274180036E+02  1.250000000E+02  0.00000E+00  9.000E+00
       2     1     1     2   502     0  1.690595225E+02  1.848506333E+01 -9.754241050E+02  9.901388813E+02  1.525878906E-05  0.00000E+00  9.000E+00
#rwgt            1           1   3.4832927478446449E-002           4       35625           0
</event>
<event>
      5   9999  3.19816E-02  1.85205E+02 -1.00000E+00  1.12877E-01
      21    -1     0     0   502   511  0.000000000E+00  0.000000000E+00  9.006277966E+02  9.006277966E+02  0.000000000E+00  0.00000E+00  9.000E+00
      21    -1     0     0   501   502  0.000000000E+00  0.000000000E+00 -7.686298215E+02  7.686298215E+02  0.000000000E+00  0.00000E+00  9.000E+00
      25     1     1     2     0     0 -4.555447893E+01 -3.229174666E+02 -5.676515032E+02  6.664864063E+02  1.250000000E+02  0.00000E+00  9.000E+00
      25     1     1     2     0     0  8.049646475E+01  5.047959294E+02  5.754022289E+02  7.797508168E+02  1.250000000E+02  0.00000E+00  9.000E+00
      21     1     1     2   501   511 -3.494198581E+01 -1.818784628E+02  1.242472493E+02  2.230203950E+02  0.000000000E+00  0.00000E+00  9.000E+00
#rwgt            1           1   2.6910438413814599E-002           4       35710           0
</event>
<event>
      5   9999  3.19816E-02  3.79386E+01 -1.00000E+00  1.46280E-01
      21    -1     0     0   512   501  0.000000000E+00  0.000000000E+00  3.632393850E+02  3.632393850E+02  0.000000000E+00  0.00000E+00  9.000E+00
      21    -1     0     0   501   502  0.000000000E+00  0.000000000E+00 -4.215692179E+02  4.215692179E+02  0.000000000E+00  0.00000E+00  9.000E+00
      25     1     1     2     0     0  2.147479899E+02 -2.879030397E+02  2.790899596E+01  3.813250208E+02  1.250000000E+02  0.00000E+00  9.000E+00
      25     1     1     2     0     0 -1.879561591E+02  2.610416170E+02 -1.055910214E+02  3.608943161E+02  1.250000000E+02  0.00000E+00  9.000E+00
      21     1     1     2   512   502 -2.679183077E+01  2.686142266E+01  1.935219254E+01  4.258926601E+01  9.830249847E-07  0.00000E+00  9.000E+00
#rwgt            1           1   3.0356309062194015E-002           4       35768           0
</event>
<event>
      5   9999  3.19816E-02  3.21564E+01 -1.00000E+00  1.50975E-01
      21    -1     0     0   502   501  0.000000000E+00  0.000000000E+00  9.787012771E+01  9.787012771E+01  0.000000000E+00  0.00000E+00  9.000E+00
      21    -1     0     0   511   502  0.000000000E+00  0.000000000E+00 -1.796375311E+03  1.796375311E+03  0.000000000E+00  0.00000E+00  9.000E+00
      25     1     1     2     0     0  2.311489125E+02  1.958471715E+02 -2.973879449E+02  4.425500244E+02  1.250000000E+02  0.00000E+00  9.000E+00
      25     1     1     2     0     0 -2.612107740E+02 -1.844315436E+02 -1.204822094E+03  1.252783836E+03  1.250000000E+02  0.00000E+00  9.000E+00
      21     1     1     2   511   501  3.006186152E+01 -1.141562790E+01 -1.962951441E+02  1.989115775E+02  0.000000000E+00  0.00000E+00  9.000E+00
#rwgt            1           1   2.8835996855746806E-002           4       35877           0
</event>
<event>
      5   9999  3.19816E-02  5.24032E+01 -1.00000E+00  1.37922E-01
      21    -1     0     0   502   512  0.000000000E+00  0.000000000E+00  4.438650267E+02  4.438650267E+02  0.000000000E+00  0.00000E+00  9.000E+00
      21    -1     0     0   501   502  0.000000000E+00  0.000000000E+00 -5.661427633E+02  5.661427633E+02  0.000000000E+00  0.00000E+00  9.000E+00
      25     1     1     2     0     0  4.317865923E+02 -8.585170957E+01 -2.511812682E+02  5.220413842E+02  1.250000000E+02  0.00000E+00  9.000E+00
      25     1     1     2     0     0 -3.913085004E+02  5.257071747E+01  9.302645082E+01  4.244584118E+02  1.250000000E+02  0.00000E+00  9.000E+00
      21     1     1     2   501   512 -4.047809192E+01  3.328099210E+01  3.587708082E+01  6.350799390E+01  1.581489940E-06  0.00000E+00  9.000E+00
#rwgt            1           1   2.8448994708296562E-002           4       35996           0
</event>
<event>
      5   9999  3.19816E-02  5.14843E+01 -1.00000E+00  1.38355E-01
      -5    -1     0     0     0   501  0.000000000E+00  0.000000000E+00  8.314930514E+02  8.314930514E+02  0.000000000E+00  0.00000E+00  9.000E+00
      21    -1     0     0   501   502  0.000000000E+00  0.000000000E+00 -7.414333543E+02  7.414333543E+02  0.000000000E+00  0.00000E+00  9.000E+00
      25     1     1     2     0     0  1.793822363E+02 -5.256614279E+02 -2.260212924E+02  6.125426908E+02  1.250000000E+02  0.00000E+00  9.000E+00
      25     1     1     2     0     0 -1.687133449E+02  4.752947433E+02 -1.100650301E+02  5.311389616E+02  1.250000000E+02  0.00000E+00  9.000E+00
      -5     1     1     2     0   502 -1.066889138E+01  5.036668464E+01  4.261460196E+02  4.292447533E+02  5.394796609E-06  0.00000E+00  9.000E+00
#rwgt            1           1   2.9503444781105580E-002           4       36093           0
</event>
<event>
      5   9999  3.19816E-02  6.84116E+01 -1.00000E+00  1.31728E-01
      21    -1     0     0   511   501  0.000000000E+00  0.000000000E+00  2.902877080E+02  2.902877080E+02  0.000000000E+00  0.00000E+00  9.000E+00
      21    -1     0     0   501   502  0.000000000E+00  0.000000000E+00 -8.206496418E+02  8.206496418E+02  0.000000000E+00  0.00000E+00  9.000E+00
      25     1     1     2     0     0 -1.635104284E+02 -1.161760175E+01 -5.686242663E+01  2.138433174E+02  1.250000000E+02  0.00000E+00  9.000E+00
      25     1     1     2     0     0  1.871986405E+02 -5.256193859E+01 -6.595402536E+02  6.988736899E+02  1.250000000E+02  0.00000E+00  9.000E+00
      21     1     1     2   511   502 -2.368821213E+01  6.417954034E+01  1.860407464E+02  1.982203423E+02  0.000000000E+00  0.00000E+00  9.000E+00
#rwgt            1           1   3.2320605949260180E-002           4       36191           0
</event>
<event>
      5   9999  3.19816E-02  1.26989E+02 -1.00000E+00  1.19334E-01
      21    -1     0     0   502   512  0.000000000E+00  0.000000000E+00  1.409856752E+02  1.409856752E+02  0.000000000E+00  0.00000E+00  9.000E+00
      21    -1     0     0   501   502  0.000000000E+00  0.000000000E+00 -8.359352815E+02  8.359352815E+02  0.000000000E+00  0.00000E+00  9.000E+00
      25     1     1     2     0     0 -6.424574760E+01 -4.206271318E+01 -6.694153774E+02  6.853019301E+02  1.250000000E+02  0.00000E+00  9.000E+00
      25     1     1     2     0     0  6.226347469E+01 -8.491053975E+01 -1.111238404E+01  1.638139955E+02  1.250000000E+02  0.00000E+00  9.000E+00
      21     1     1     2   501   512  1.982272917E+00  1.269732529E+02 -1.442184493E+01  1.278050311E+02  3.194275142E-06  0.00000E+00  9.000E+00
#rwgt            1           1   2.8654001287915367E-002           4       36239           0
</event>
<event>
      5   9999  3.19816E-02  2.81607E+01 -1.00000E+00  1.54973E-01
      21    -1     0     0   502   501  0.000000000E+00  0.000000000E+00  6.199532194E+02  6.199532194E+02  0.000000000E+00  0.00000E+00  9.000E+00
      21    -1     0     0   511   502  0.000000000E+00  0.000000000E+00 -1.527710490E+03  1.527710490E+03  0.000000000E+00  0.00000E+00  9.000E+00
      25     1     1     2     0     0 -8.099388976E+02  4.905314021E+02 -5.660763862E+02  1.110265531E+03  1.250000000E+02  0.00000E+00  9.000E+00
      25     1     1     2     0     0  8.083742154E+02 -4.624142176E+02 -2.986237706E+02  9.859497640E+02  1.250000000E+02  0.00000E+00  9.000E+00
      21     1     1     2   511   501  1.564682221E+00 -2.811718453E+01 -4.305711334E+01  5.144841402E+01  6.743495762E-07  0.00000E+00  9.000E+00
#rwgt            1           1   4.4098938068957150E-002           4       36269           0
</event>
<event>
      5   9999  3.19816E-02  8.11222E+01 -1.00000E+00  1.28057E-01
      21    -1     0     0   512   501  0.000000000E+00  0.000000000E+00  1.758616233E+02  1.758616233E+02  0.000000000E+00  0.00000E+00  9.000E+00
      21    -1     0     0   501   502  0.000000000E+00  0.000000000E+00 -6.826066712E+02  6.826066712E+02  0.000000000E+00  0.00000E+00  9.000E+00
      25     1     1     2     0     0 -1.028933497E+02  2.813271277E+02 -3.185095375E+02  4.547585290E+02  1.250000000E+02  0.00000E+00  9.000E+00
      25     1     1     2     0     0  4.344614418E+01 -2.261289634E+02 -1.881910436E+02  3.225875763E+02  1.250000000E+02  0.00000E+00  9.000E+00
      21     1     1     2   512   502  5.944720554E+01 -5.519816438E+01 -4.446677248E-02  8.112218917E+01  2.523849811E-07  0.00000E+00  9.000E+00
#rwgt            1           1   2.7997134196600545E-002           4       36514           0
</event>
<event>
      5   9999  3.19816E-02  1.94335E+02 -1.00000E+00  1.12104E-01
      21    -1     0     0   502   501  0.000000000E+00  0.000000000E+00  3.723596502E+02  3.723596502E+02  0.000000000E+00  0.00000E+00  9.000E+00
       2    -1     0     0   501     0  0.000000000E+00  0.000000000E+00 -1.196502885E+03  1.196502885E+03  0.000000000E+00  0.00000E+00  9.000E+00
      25     1     1     2     0     0 -2.298706748E+02 -1.444320905E+01 -1.529819699E+02  3.034429378E+02  1.250000000E+02  0.00000E+00  9.000E+00
      25     1     1     2     0     0  2.451871332E+02 -1.792867986E+02  1.921301477E+02  3.805252687E+02  1.250000000E+02  0.00000E+00  9.000E+00
       2     1     1     2   502     0 -1.531645845E+01  1.937300077E+02 -8.632914126E+02  8.848943286E+02  0.000000000E+00  0.00000E+00  9.000E+00
#rwgt            2          13   1.5933594001711125E-003           4       36580           0
</event>
<event>
      5   9999  3.19816E-02  6.95872E+01 -1.00000E+00  1.31351E-01
      21    -1     0     0   502   501  0.000000000E+00  0.000000000E+00  3.119250537E+02  3.119250537E+02  0.000000000E+00  0.00000E+00  9.000E+00
      21    -1     0     0   511   502  0.000000000E+00  0.000000000E+00 -2.495455637E+03  2.495455637E+03  0.000000000E+00  0.00000E+00  9.000E+00
      25     1     1     2     0     0 -7.457331085E+02  2.913715622E+01 -5.393090245E+02  9.292179868E+02  1.250000000E+02  0.00000E+00  9.000E+00
      25     1     1     2     0     0  6.872642817E+02  8.595860303E+00 -9.434124026E+02  1.173907170E+03  1.250000000E+02  0.00000E+00  9.000E+00
      21     1     1     2   511   501  5.846882685E+01 -3.773301652E+01 -7.008091558E+02  7.042555340E+02  7.629394531E-06  0.00000E+00  9.000E+00
#rwgt            2          11   1.2788462219723987E-003           4       36614           0
</event>
<event>
      5   9999  3.19816E-02  5.66509E+01 -1.00000E+00  1.36050E-01
      21    -1     0     0   512   501  0.000000000E+00  0.000000000E+00  9.038917362E+01  9.038917362E+01  0.000000000E+00  0.00000E+00  9.000E+00
      21    -1     0     0   501   502  0.000000000E+00  0.000000000E+00 -6.042217531E+02  6.042217531E+02  0.000000000E+00  0.00000E+00  9.000E+00
      25     1     1     2     0     0 -5.478004698E+01 -1.399544538E+02 -2.576040205E+02  3.233773864E+02  1.250000000E+02  0.00000E+00  9.000E+00
      25     1     1     2     0     0  7.291961432E+00  1.708446779E+02 -1.968186405E+02  2.891429645E+02  1.250000000E+02  0.00000E+00  9.000E+00
      21     1     1     2   512   502  4.748808554E+01 -3.089022416E+01 -5.940991849E+01  8.209057579E+01  9.536743164E-07  0.00000E+00  9.000E+00
#rwgt            1           1   2.5544903600285711E-002           4       36634           0
</event>
<event>
      5   9999  3.19816E-02  6.85644E+01 -1.00000E+00  1.31678E-01
      21    -1     0     0   502   501  0.000000000E+00  0.000000000E+00  1.766211825E+02  1.766211825E+02  0.000000000E+00  0.00000E+00  9.000E+00
      21    -1     0     0   501   511  0.000000000E+00  0.000000000E+00 -4.657002450E+02  4.657002450E+02  0.000000000E+00  0.00000E+00  9.000E+00
      25     1     1     2     0     0  5.006889809E+01  1.076923137E+02 -2.313407192E+02  2.885273944E+02  1.250000000E+02  0.00000E+00  9.000E+00
      25     1     1     2     0     0 -8.188636117E+01 -1.684271928E+02  4.564351707E+01  2.297420860E+02  1.250000000E+02  0.00000E+00  9.000E+00
      21     1     1     2   502   511  3.181746308E+01  6.073487916E+01 -1.033818604E+02  1.240519471E+02  1.907348633E-06  0.00000E+00  9.000E+00
#rwgt            1           1   2.7068038188718939E-002           4       36688           0
</event>
<event>
      5   9999  3.19816E-02  3.77920E+01 -1.00000E+00  1.46386E-01
      21    -1     0     0   502   501  0.000000000E+00  0.000000000E+00  1.063604657E+02  1.063604657E+02  0.000000000E+00  0.00000E+00  9.000E+00
      21    -1     0     0   501   512  0.000000000E+00  0.000000000E+00 -8.718267748E+02  8.718267748E+02  0.000000000E+00  0.00000E+00  9.000E+00
      25     1     1     2     0     0 -3.000396258E+00 -2.184107579E+01  5.528165603E+01  1.384452833E+02  1.250000000E+02  0.00000E+00  9.000E+00
      25     1     1     2     0     0 -2.611898592E+01 -2.248335016E+00 -4.727768906E+02  4.897246622E+02  1.250000000E+02  0.00000E+00  9.000E+00
      21     1     1     2   502   512  2.911938218E+01  2.408941080E+01 -3.479710745E+02  3.500172950E+02  3.814697266E-06  0.00000E+00  9.000E+00
#rwgt            1           1   3.3664781763190252E-002           4       36774           0
</event>
<event>
      5   9999  3.19816E-02  3.09420E+02 -1.00000E+00  1.05158E-01
      21    -1     0     0   502   511  0.000000000E+00  0.000000000E+00  6.844521350E+02  6.844521350E+02  0.000000000E+00  0.00000E+00  9.000E+00
      21    -1     0     0   501   502  0.000000000E+00  0.000000000E+00 -2.935304725E+02  2.935304725E+02  0.000000000E+00  0.00000E+00  9.000E+00
      25     1     1     2     0     0 -7.241700377E-01  9.790253003E+01 -7.629491740E+01  1.761571578E+02  1.250000000E+02  0.00000E+00  9.000E+00
      25     1     1     2     0     0 -5.532964145E+01  2.063974326E+02  7.495762179E+00  2.476740920E+02  1.250000000E+02  0.00000E+00  9.000E+00
      21     1     1     2   501   511  5.605381149E+01 -3.042999626E+02  4.597208178E+02  5.541513578E+02  7.629394531E-06  0.00000E+00  9.000E+00
#rwgt            2          11   2.8432476567196432E-003           4       36868           0
</event>
<event>
      5   9999  3.19816E-02  3.09793E+01 -1.00000E+00  1.52077E-01
      21    -1     0     0   502   501  0.000000000E+00  0.000000000E+00  5.356135259E+02  5.356135259E+02  0.000000000E+00  0.00000E+00  9.000E+00
      21    -1     0     0   512   502  0.000000000E+00  0.000000000E+00 -2.333515795E+02  2.333515795E+02  0.000000000E+00  0.00000E+00  9.000E+00
      25     1     1     2     0     0  1.594264434E+02  1.518922646E+02  2.452301364E+02  3.524923697E+02  1.250000000E+02  0.00000E+00  9.000E+00
      25     1     1     2     0     0 -1.886979764E+02 -1.620358116E+02  1.515926252E+02  3.169666457E+02  1.250000000E+02  0.00000E+00  9.000E+00
      21     1     1     2   512   501  2.927153301E+01  1.014354695E+01 -9.456081511E+01  9.950608999E+01  1.907348633E-06  0.00000E+00  9.000E+00
#rwgt            1           1   2.7973351659217514E-002           4       36888           0
</event>
<event>
      5   9999  3.19816E-02  5.27085E+01 -1.00000E+00  1.37781E-01
      21    -1     0     0   502   501  0.000000000E+00  0.000000000E+00  1.209272950E+03  1.209272950E+03  0.000000000E+00  0.00000E+00  9.000E+00
       1    -1     0     0   501     0  0.000000000E+00  0.000000000E+00 -2.169295519E+03  2.169295519E+03  0.000000000E+00  0.00000E+00  9.000E+00
      25     1     1     2     0     0  4.715534924E+02 -3.544739706E+01  1.008295564E+03  1.120671299E+03  1.250000000E+02  0.00000E+00  9.000E+00
      25     1     1     2     0     0 -4.214332671E+02  5.176155839E+01 -1.947865496E+02  4.835825240E+02  1.250000000E+02  0.00000E+00  9.000E+00
       1     1     1     2   502     0 -5.012022532E+01 -1.631416134E+01 -1.773531583E+03  1.774314647E+03  0.000000000E+00  0.00000E+00  9.000E+00
#rwgt            1           1   2.9697387809592579E-002           4       36986           0
</event>
<event>
      5   9999  3.19816E-02  7.41852E+00 -1.00000E+00  2.12050E-01
      21    -1     0     0   502   511  0.000000000E+00  0.000000000E+00  9.645871806E+02  9.645871806E+02  0.000000000E+00  0.00000E+00  9.000E+00
      21    -1     0     0   501   502  0.000000000E+00  0.000000000E+00 -1.102384628E+02  1.102384628E+02  0.000000000E+00  0.00000E+00  9.000E+00
      25     1     1     2     0     0  8.237869934E+00 -1.010476490E+02  8.698084459E+02  8.845734692E+02  1.250000000E+02  0.00000E+00  9.000E+00
      25     1     1     2     0     0 -2.036007679E+00  1.051184481E+02 -3.699549085E+01  1.674744751E+02  1.250000000E+02  0.00000E+00  9.000E+00
      21     1     1     2   501   511 -6.201862255E+00 -4.070799121E+00  2.153576271E+01  2.277769910E+01  3.371747881E-07  0.00000E+00  9.000E+00
#rwgt            1           1   2.9351987838721529E-002           4       37093           0
</event>
<event>
      5   9999  3.19816E-02  3.89777E+01 -1.00000E+00  1.45541E-01
      21    -1     0     0   502   501  0.000000000E+00  0.000000000E+00  2.035912024E+03  2.035912024E+03  0.000000000E+00  0.00000E+00  9.000E+00
      21    -1     0     0   512   502  0.000000000E+00  0.000000000E+00 -1.204895349E+02  1.204895349E+02  0.000000000E+00  0.00000E+00  9.000E+00
      25     1     1     2     0     0  3.500015255E+02  2.334456070E+02  1.201546368E+03  1.279193728E+03  1.250000000E+02  0.00000E+00  9.000E+00
      25     1     1     2     0     0 -3.188103336E+02 -2.568202162E+02  7.201214065E+02  8.377329481E+02  1.250000000E+02  0.00000E+00  9.000E+00
      21     1     1     2   512   501 -3.119119184E+01  2.337460919E+01 -6.245285184E+00  3.947488303E+01  5.462855929E-07  0.00000E+00  9.000E+00
#rwgt            1           1   3.2614161467477233E-002           4       37337           0
</event>
<event>
      5   9999  3.19816E-02  7.66766E+01 -1.00000E+00  1.29248E-01
      21    -1     0     0   502   501  0.000000000E+00  0.000000000E+00  1.243917936E+03  1.243917936E+03  0.000000000E+00  0.00000E+00  9.000E+00
      21    -1     0     0   501   511  0.000000000E+00  0.000000000E+00 -4.875498662E+02  4.875498662E+02  0.000000000E+00  0.00000E+00  9.000E+00
      25     1     1     2     0     0 -2.583170245E+02 -2.235630602E+02  1.014989802E+03  1.078210288E+03  1.250000000E+02  0.00000E+00  9.000E+00
      25     1     1     2     0     0  1.924946791E+02  1.842347072E+02  8.086248154E+01  3.052218369E+02  1.250000000E+02  0.00000E+00  9.000E+00
      21     1     1     2   502   511  6.582234533E+01  3.932835299E+01 -3.394842143E+02  3.480356767E+02  5.394796609E-06  0.00000E+00  9.000E+00
#rwgt            2          11   7.9877950987387765E-003           4       37514           0
</event>
<event>
      5   9999  3.19816E-02  6.61648E+01 -1.00000E+00  1.32472E-01
      21    -1     0     0   502   501  0.000000000E+00  0.000000000E+00  2.960890353E+02  2.960890353E+02  0.000000000E+00  0.00000E+00  9.000E+00
      21    -1     0     0   501   512  0.000000000E+00  0.000000000E+00 -8.148323747E+02  8.148323747E+02  0.000000000E+00  0.00000E+00  9.000E+00
      25     1     1     2     0     0  1.088338929E+02 -1.097707773E+02 -5.992530200E+02  6.313664719E+02  1.250000000E+02  0.00000E+00  9.000E+00
      25     1     1     2     0     0 -1.666064561E+02  7.752004051E+01  2.276974734E+02  3.181795205E+02  1.250000000E+02  0.00000E+00  9.000E+00
      21     1     1     2   502   512  5.777256320E+01  3.225073682E+01 -1.471877927E+02  1.613754176E+02  1.907348633E-06  0.00000E+00  9.000E+00
#rwgt            1           1   2.8201992412708390E-002           4       37549           0
</event>
<event>
      5   9999  3.19816E-02  1.25577E+02 -1.00000E+00  1.19537E-01
       2    -1     0     0   502     0  0.000000000E+00  0.000000000E+00  2.436644443E+03  2.436644443E+03  0.000000000E+00  0.00000E+00  9.000E+00
      21    -1     0     0   501   502  0.000000000E+00  0.000000000E+00 -1.495443000E+02  1.495443000E+02  0.000000000E+00  0.00000E+00  9.000E+00
      25     1     1     2     0     0  4.842399857E+02 -1.353745447E+02  1.491424184E+03  1.578855828E+03  1.250000000E+02  0.00000E+00  9.000E+00
      25     1     1     2     0     0 -3.655644072E+02  1.764313426E+02  3.692235936E+02  5.627756361E+02  1.250000000E+02  0.00000E+00  9.000E+00
       2     1     1     2   501     0 -1.186755785E+02 -4.105679790E+01  4.264523653E+02  4.445572781E+02  5.394796609E-06  0.00000E+00  9.000E+00
#rwgt            1           1   2.7413792815132426E-002           4       37613           0
</event>
<event>
      5   9999  3.19816E-02  5.81085E+01 -1.00000E+00  1.35451E-01
      21    -1     0     0   502   501  0.000000000E+00  0.000000000E+00  2.734064760E+02  2.734064760E+02  0.000000000E+00  0.00000E+00  9.000E+00
      21    -1     0     0   501   511  0.000000000E+00  0.000000000E+00 -3.975872777E+02  3.975872777E+02  0.000000000E+00  0.00000E+00  9.000E+00
      25     1     1     2     0     0 -1.730583802E+02  1.901159334E+02 -1.089620282E+01  2.860716664E+02  1.250000000E+02  0.00000E+00  9.000E+00
      25     1     1     2     0     0  1.180209934E+02 -2.087567075E+02 -1.512746476E+01  2.708544960E+02  1.250000000E+02  0.00000E+00  9.000E+00
      21     1     1     2   502   511  5.503738677E+01  1.864077405E+01 -9.815713417E+01  1.140675913E+02  1.348699152E-06  0.00000E+00  9.000E+00
#rwgt            1           1   2.7187029047164028E-002           4       37726           0
</event>
<event>
      5   9999  3.19816E-02  6.76244E+01 -1.00000E+00  1.31985E-01
      21    -1     0     0   502   501  0.000000000E+00  0.000000000E+00  3.154520212E+02  3.154520212E+02  0.000000000E+00  0.00000E+00  9.000E+00
      21    -1     0     0   501   512  0.000000000E+00  0.000000000E+00 -1.795912763E+02  1.795912763E+02  0.000000000E+00  0.00000E+00  9.000E+00
      25     1     1     2     0     0  3.111930267E+01  1.337167494E+02  7.273874224E+01  1.994103926E+02  1.250000000E+02  0.00000E+00  9.000E+00
      25     1     1     2     0     0 -5.159967613E+01 -6.926824137E+01  1.304131912E+02  2.002329051E+02  1.250000000E+02  0.00000E+00  9.000E+00
      21     1     1     2   502   512  2.048037346E+01 -6.444850800E+01 -6.729118868E+01  9.539999976E+01  1.651812370E-06  0.00000E+00  9.000E+00
#rwgt            2          11   5.2723121356591466E-003           4       37926           0
</event>
<event>
      5   9999  3.19816E-02  5.10042E+01 -1.00000E+00  1.38585E-01
      21    -1     0     0   502   511  0.000000000E+00  0.000000000E+00  1.307366416E+03  1.307366416E+03  0.000000000E+00  0.00000E+00  9.000E+00
      21    -1     0     0   501   502  0.000000000E+00  0.000000000E+00 -3.485680169E+02  3.485680169E+02  0.000000000E+00  0.00000E+00  9.000E+00
      25     1     1     2     0     0 -4.460030060E+02  4.483542820E+02  4.106818227E+02  7.643459970E+02  1.250000000E+02  0.00000E+00  9.000E+00
      25     1     1     2     0     0  3.952368437E+02 -4.434323226E+02  3.805725302E+02  7.164529560E+02  1.250000000E+02  0.00000E+00  9.000E+00
      21     1     1     2   501   511  5.076616228E+01 -4.921959445E+00  1.675440461E+02  1.751354799E+02  0.000000000E+00  0.00000E+00  9.000E+00
#rwgt            1           1   2.2943255309565837E-002           4       37976           0
</event>
<event>
      5   9999  3.19816E-02  2.78197E+01 -1.00000E+00  1.55351E-01
      21    -1     0     0   502   501  0.000000000E+00  0.000000000E+00  1.842633380E+03  1.842633380E+03  0.000000000E+00  0.00000E+00  9.000E+00
      21    -1     0     0   512   502  0.000000000E+00  0.000000000E+00 -2.260046516E+02  2.260046516E+02  0.000000000E+00  0.00000E+00  9.000E+00
      25     1     1     2     0     0  2.304108878E+02 -4.916380128E+02  1.168471033E+03  1.294506341E+03  1.250000000E+02  0.00000E+00  9.000E+00
      25     1     1     2     0     0 -2.566139881E+02  4.822927377E+02  4.756140769E+02  7.350447428E+02  1.250000000E+02  0.00000E+00  9.000E+00
      21     1     1     2   512   501  2.620310026E+01  9.345275162E+00 -2.745638107E+01  3.908694785E+01  8.920806376E-07  0.00000E+00  9.000E+00
#rwgt            1           1   2.8405034084500319E-002           4       38092           0
</event>
<event>
      5   9999  3.19816E-02  6.60310E+01 -1.00000E+00  1.32518E-01
      21    -1     0     0   502   511  0.000000000E+00  0.000000000E+00  1.761526538E+03  1.761526538E+03  0.000000000E+00  0.00000E+00  9.000E+00
      21    -1     0     0   501   502  0.000000000E+00  0.000000000E+00 -7.606798824E+01  7.606798824E+01  0.000000000E+00  0.00000E+00  9.000E+00
      25     1     1     2     0     0 -2.967339145E+02  3.734835776E+01  7.615455096E+02  8.276608478E+02  1.250000000E+02  0.00000E+00  9.000E+00
      25     1     1     2     0     0  2.999603404E+02 -1.033004964E+02  7.487685266E+02  8.227554343E+02  1.250000000E+02  0.00000E+00  9.000E+00
      21     1     1     2   501   511 -3.226425884E+00  6.595213864E+01  1.751445137E+02  1.871782442E+02  2.697398305E-06  0.00000E+00  9.000E+00
#rwgt            1           1   2.7475372309531100E-002           4       38305           0
</event>
<event>
      5   9999  3.19816E-02  6.72652E+01 -1.00000E+00  1.32103E-01
      21    -1     0     0   502   501  0.000000000E+00  0.000000000E+00  5.596886796E+02  5.596886796E+02  0.000000000E+00  0.00000E+00  9.000E+00
      21    -1     0     0   512   502  0.000000000E+00  0.000000000E+00 -1.365071665E+03  1.365071665E+03  0.000000000E+00  0.00000E+00  9.000E+00
      25     1     1     2     0     0  2.115710413E+02  2.381099165E+01 -2.936008064E+02  3.836087881E+02  1.250000000E+02  0.00000E+00  9.000E+00
      25     1     1     2     0     0 -1.444451258E+02 -2.813765280E+01  4.954145930E+02  5.317111441E+02  1.250000000E+02  0.00000E+00  9.000E+00
      21     1     1     2   512   501 -6.712591551E+01  4.326661147E+00 -1.007196772E+03  1.009440412E+03  1.078959322E-05  0.00000E+00  9.000E+00
#rwgt            1           1   3.0665982534107222E-002           4       38419           0
</event>
<event>
      5   9999  3.19816E-02  9.61479E+01 -1.00000E+00  1.24600E-01
      21    -1     0     0   502   501  0.000000000E+00  0.000000000E+00  6.890780164E+01  6.890780164E+01  0.000000000E+00  0.00000E+00  9.000E+00
       1    -1     0     0   501     0  0.000000000E+00  0.000000000E+00 -2.835934239E+03  2.835934239E+03  0.000000000E+00  0.00000E+00  9.000E+00
      25     1     1     2     0     0 -3.919576027E+01  3.400742627E+02 -5.831102725E+02  6.876259169E+02  1.250000000E+02  0.00000E+00  9.000E+00
      25     1     1     2     0     0  6.374318329E+01 -2.471127962E+02 -1.735145660E+03  1.758261468E+03  1.250000000E+02  0.00000E+00  9.000E+00
       1     1     1     2   502     0 -2.454742301E+01 -9.296146650E+01 -4.487705048E+02  4.589546560E+02  5.394796609E-06  0.00000E+00  9.000E+00
#rwgt            1           1   8.7842409325774751E-002           4       38529           0
</event>
<event>
      5   9999  3.19816E-02  2.57514E+02 -1.00000E+00  1.07793E-01
      21    -1     0     0   502   501  0.000000000E+00  0.000000000E+00  1.618924979E+02  1.618924979E+02  0.000000000E+00  0.00000E+00  9.000E+00
       2    -1     0     0   501     0  0.000000000E+00  0.000000000E+00 -2.171986389E+03  2.171986389E+03  0.000000000E+00  0.00000E+00  9.000E+00
      25     1     1     2     0     0 -2.261711000E+02 -2.881809244E+02 -1.715924237E+02  4.234035564E+02  1.250000000E+02  0.00000E+00  9.000E+00
      25     1     1     2     0     0  2.234351684E+02  3.068165887E+01 -8.003560020E+02  8.408682231E+02  1.250000000E+02  0.00000E+00  9.000E+00
       2     1     1     2   502     0  2.735931627E+00  2.574992655E+02 -1.038145465E+03  1.069607107E+03  0.000000000E+00  0.00000E+00  9.000E+00
#rwgt            2          13   1.6197319031967827E-003           4       38669           0
</event>
<event>
      5   9999  3.19816E-02  3.11177E+01 -1.00000E+00  1.51945E-01
      21    -1     0     0   502   511  0.000000000E+00  0.000000000E+00  3.822966947E+01  3.822966947E+01  0.000000000E+00  0.00000E+00  9.000E+00
      21    -1     0     0   501   502  0.000000000E+00  0.000000000E+00 -2.741326413E+03  2.741326413E+03  0.000000000E+00  0.00000E+00  9.000E+00
      25     1     1     2     0     0 -7.809021956E+01 -2.390239155E+02 -9.898716822E+02  1.028932195E+03  1.250000000E+02  0.00000E+00  9.000E+00
      25     1     1     2     0     0  8.100080512E+01  2.700052370E+02 -1.664408374E+03  1.692732759E+03  1.250000000E+02  0.00000E+00  9.000E+00
      21     1     1     2   501   511 -2.910585556E+00 -3.098132149E+01 -4.881668774E+01  5.789112878E+01  1.348699152E-06  0.00000E+00  9.000E+00
#rwgt            1           1   5.0941298458329586E-002           4       38703           0
</event>
<event>
      5   9999  3.19816E-02  2.68729E+02 -1.00000E+00  1.07169E-01
      21    -1     0     0   502   512  0.000000000E+00  0.000000000E+00  2.173782703E+03  2.173782703E+03  0.000000000E+00  0.00000E+00  9.000E+00
      21    -1     0     0   501   502  0.000000000E+00  0.000000000E+00 -2.829686238E+02  2.829686238E+02  0.000000000E+00  0.00000E+00  9.000E+00
      25     1     1     2     0     0 -1.638677256E+02  2.843148104E+02 -1.436611325E+02  3.794088348E+02  1.250000000E+02  0.00000E+00  9.000E+00
      25     1     1     2     0     0 -1.416280015E+01 -8.301766625E+01  7.741814643E+02  7.887169692E+02  1.250000000E+02  0.00000E+00  9.000E+00
      21     1     1     2   501   512  1.780305258E+02 -2.012971441E+02  1.260293748E+03  1.288625523E+03  1.525878906E-05  0.00000E+00  9.000E+00
#rwgt            1           1   2.5141615370582848E-002           4       38782           0
</event>
<event>
      5   9999  3.19816E-02  3.06418E+01 -1.00000E+00  1.52404E-01
      21    -1     0     0   502   511  0.000000000E+00  0.000000000E+00  1.242037171E+02  1.242037171E+02  0.000000000E+00  0.00000E+00  9.000E+00
      21    -1     0     0   501   502  0.000000000E+00  0.000000000E+00 -2.081892426E+03  2.081892426E+03  0.000000000E+00  0.00000E+00  9.000E+00
      25     1     1     2     0     0  1.429350737E+02 -1.764541971E+02 -5.357268040E+01  2.646914261E+02  1.250000000E+02  0.00000E+00  9.000E+00
      25     1     1     2     0     0 -1.143941034E+02  1.876046767E+02 -1.891416392E+03  1.908235440E+03  1.250000000E+02  0.00000E+00  9.000E+00
      21     1     1     2   501   511 -2.854097026E+01 -1.115047952E+01 -1.269963649E+01  3.316927710E+01  6.743495762E-07  0.00000E+00  9.000E+00
#rwgt            1           1   3.1823559714945340E-002           4       38830           0
</event>
<event>
      5   9999  3.19816E-02  1.48677E+01 -1.00000E+00  1.77747E-01
      21    -1     0     0   502   501  0.000000000E+00  0.000000000E+00  1.714471724E+02  1.714471724E+02  0.000000000E+00  0.00000E+00  9.000E+00
      21    -1     0     0   512   502  0.000000000E+00  0.000000000E+00 -4.224369789E+02  4.224369789E+02  0.000000000E+00  0.00000E+00  9.000E+00
      25     1     1     2     0     0  1.205835308E+00 -1.290978694E+02  1.681276690E+01  1.804865176E+02  1.250000000E+02  0.00000E+00  9.000E+00
      25     1     1     2     0     0 -1.607339845E+01  1.290263913E+02 -3.953463089E+01  1.846460149E+02  1.250000000E+02  0.00000E+00  9.000E+00
      21     1     1     2   512   501  1.486756315E+01  7.147810360E-02 -2.282679425E+02  2.287516188E+02  0.000000000E+00  0.00000E+00  9.000E+00
#rwgt            1           1   2.7129140458685790E-002           4       38969           0
</event>
<event>
      5   9999  3.19816E-02  1.64690E+02 -1.00000E+00  1.14808E-01
       2    -1     0     0   502     0  0.000000000E+00  0.000000000E+00  1.780196012E+03  1.780196012E+03  0.000000000E+00  0.00000E+00  9.000E+00
      21    -1     0     0   501   502  0.000000000E+00  0.000000000E+00 -2.636866996E+02  2.636866996E+02  0.000000000E+00  0.00000E+00  9.000E+00
      25     1     1     2     0     0  5.768368148E+02  2.192079435E+02  4.232201513E+02  7.586389984E+02  1.250000000E+02  0.00000E+00  9.000E+00
      25     1     1     2     0     0 -4.887923792E+02 -8.002809840E+01  8.393172883E+02  9.825482161E+02  1.250000000E+02  0.00000E+00  9.000E+00
       2     1     1     2   501     0 -8.804443557E+01 -1.391798451E+02  2.539718732E+02  3.026954976E+02  3.814697266E-06  0.00000E+00  9.000E+00
#rwgt            1           1   2.9410096403941096E-002           4       39137           0
</event>
<event>
      5   9999  3.19816E-02  1.28238E+01 -1.00000E+00  1.84047E-01
      21    -1     0     0   502   501  0.000000000E+00  0.000000000E+00  2.284076672E+02  2.284076672E+02  0.000000000E+00  0.00000E+00  9.000E+00
       2    -1     0     0   501     0  0.000000000E+00  0.000000000E+00 -2.560698321E+03  2.560698321E+03  0.000000000E+00  0.00000E+00  9.000E+00
      25     1     1     2     0     0  2.956176918E+02 -5.198798924E+02 -4.813559886E+02  7.778132874E+02  1.250000000E+02  0.00000E+00  9.000E+00
      25     1     1     2     0     0 -2.841616620E+02  5.141172335E+02 -1.045225823E+03  1.205481813E+03  1.250000000E+02  0.00000E+00  9.000E+00
       2     1     1     2   502     0 -1.145602981E+01  5.762658844E+00 -8.057088422E+02  8.058108880E+02  0.000000000E+00  0.00000E+00  9.000E+00
#rwgt            1           1   2.9631515014537015E-002           4       39296           0
</event>
<event>
      5   9999  3.19816E-02  3.87368E+01 -1.00000E+00  1.45710E-01
      21    -1     0     0   502   501  0.000000000E+00  0.000000000E+00  5.073053055E+02  5.073053055E+02  0.000000000E+00  0.00000E+00  9.000E+00
      21    -1     0     0   501   511  0.000000000E+00  0.000000000E+00 -1.591506128E+03  1.591506128E+03  0.000000000E+00  0.00000E+00  9.000E+00
      25     1     1     2     0     0 -7.664868986E+02  1.867397618E+02 -1.368481215E+02  8.103865205E+02  1.250000000E+02  0.00000E+00  9.000E+00
      25     1     1     2     0     0  7.955588666E+02 -2.123397233E+02 -8.870442786E+02  1.216747558E+03  1.250000000E+02  0.00000E+00  9.000E+00
      21     1     1     2   502   511 -2.907196802E+01  2.559996156E+01 -6.030842226E+01  7.167735453E+01  1.168007728E-06  0.00000E+00  9.000E+00
#rwgt            1           1   1.4738409025935728E-002           4       39672           0
</event>
<event>
      5   9999  3.19816E-02  7.79871E+01 -1.00000E+00  1.28887E-01
      21    -1     0     0   502   501  0.000000000E+00  0.000000000E+00  8.312821628E+02  8.312821628E+02  0.000000000E+00  0.00000E+00  9.000E+00
      21    -1     0     0   501   512  0.000000000E+00  0.000000000E+00 -7.580380969E+02  7.580380969E+02  0.000000000E+00  0.00000E+00  9.000E+00
      25     1     1     2     0     0  1.511646209E+02 -2.164937480E+02 -5.295198361E+02  6.047615582E+02  1.250000000E+02  0.00000E+00  9.000E+00
      25     1     1     2     0     0 -1.352617824E+02  1.401452578E+02  7.678550125E+02  8.019742909E+02  1.250000000E+02  0.00000E+00  9.000E+00
      21     1     1     2   502   512 -1.590283854E+01  7.634849014E+01 -1.650911105E+02  1.825844106E+02  2.697398305E-06  0.00000E+00  9.000E+00
#rwgt            1           1   3.8264291869285712E-002           4       39814           0
</event>
<event>
      5   9999  3.19816E-02  1.56119E+02 -1.00000E+00  1.15710E-01
       2    -1     0     0   502     0  0.000000000E+00  0.000000000E+00  1.307964616E+03  1.307964616E+03  0.000000000E+00  0.00000E+00  9.000E+00
      21    -1     0     0   501   502  0.000000000E+00  0.000000000E+00 -3.352772811E+02  3.352772811E+02  0.000000000E+00  0.00000E+00  9.000E+00
      25     1     1     2     0     0 -1.665742718E+02  1.329393378E+02 -2.418707212E+02  3.457546837E+02  1.250000000E+02  0.00000E+00  9.000E+00
      25     1     1     2     0     0  1.107552934E+02  1.286004625E+01  1.606865554E+02  2.321148097E+02  1.250000000E+02  0.00000E+00  9.000E+00
       2     1     1     2   501     0  5.581897836E+01 -1.457993840E+02  1.053871500E+03  1.065372404E+03  1.525878906E-05  0.00000E+00  9.000E+00
#rwgt            1           1   2.6740133340989056E-002           4       39904           0
</event>
<event>
      5   9999  3.19816E-02  2.75686E+01 -1.00000E+00  1.55634E-01
      21    -1     0     0   502   501  0.000000000E+00  0.000000000E+00  4.630617711E+02  4.630617711E+02  0.000000000E+00  0.00000E+00  9.000E+00
      21    -1     0     0   511   502  0.000000000E+00  0.000000000E+00 -4.407879051E+02  4.407879051E+02  0.000000000E+00  0.00000E+00  9.000E+00
      25     1     1     2     0     0  1.380772607E+02 -1.462125442E+02  3.808048766E+02  4.484203296E+02  1.250000000E+02  0.00000E+00  9.000E+00
      25     1     1     2     0     0 -1.352151203E+02  1.736321975E+02 -3.279680584E+02  4.142696176E+02  1.250000000E+02  0.00000E+00  9.000E+00
      21     1     1     2   511   501 -2.862140389E+00 -2.741965335E+01 -3.056295217E+01  4.115972889E+01  5.840038640E-07  0.00000E+00  9.000E+00
#rwgt            1           1   2.6561400790577557E-002           4       39933           0
</event>
<event>
      5   9999  3.19816E-02  1.40290E+02 -1.00000E+00  1.17557E-01
      21    -1     0     0   512   501  0.000000000E+00  0.000000000E+00  1.080771946E+03  1.080771946E+03  0.000000000E+00  0.00000E+00  9.000E+00
      21    -1     0     0   501   502  0.000000000E+00  0.000000000E+00 -2.451846243E+02  2.451846243E+02  0.000000000E+00  0.00000E+00  9.000E+00
      25     1     1     2     0     0 -1.725541853E+02 -3.795715359E+02  3.489620315E+02  5.578969413E+02  1.250000000E+02  0.00000E+00  9.000E+00
      25     1     1     2     0     0  2.984697682E+02  3.177115786E+02  3.586846248E+02  5.781907209E+02  1.250000000E+02  0.00000E+00  9.000E+00
      21     1     1     2   512   502 -1.259155829E+02  6.185995727E+01  1.279406652E+02  1.898689078E+02  1.907348633E-06  0.00000E+00  9.000E+00
#rwgt            1           1   2.7624324190342227E-002           4       40085           0
</event>
<event>
      5   9999  3.19816E-02  1.36927E+02 -1.00000E+00  1.17985E-01
      21    -1     0     0   502   511  0.000000000E+00  0.000000000E+00  5.722304140E+02  5.722304140E+02  0.000000000E+00  0.00000E+00  9.000E+00
      21    -1     0     0   501   502  0.000000000E+00  0.000000000E+00 -7.488936577E+02  7.488936577E+02  0.000000000E+00  0.00000E+00  9.000E+00
      25     1     1     2     0     0 -8.005289323E+01  6.071159905E+02 -2.105106373E+02  6.594983094E+02  1.250000000E+02  0.00000E+00  9.000E+00
      25     1     1     2     0     0  1.456962323E+02 -4.869497062E+02  1.738039493E+01  5.237122174E+02  1.250000000E+02  0.00000E+00  9.000E+00
      21     1     1     2   501   511 -6.564333905E+01 -1.201662843E+02  1.646699859E+01  1.379135450E+02  1.092571186E-06  0.00000E+00  9.000E+00
#rwgt            1           1   2.9835573861168762E-002           4       40115           0
</event>
<event>
      5   9999  3.19816E-02  1.79604E+02 -1.00000E+00  1.13376E-01
      21    -1     0     0   502   501  0.000000000E+00  0.000000000E+00  2.729734464E+02  2.729734464E+02  0.000000000E+00  0.00000E+00  9.000E+00
      21    -1     0     0   512   502  0.000000000E+00  0.000000000E+00 -4.506752696E+02  4.506752696E+02  0.000000000E+00  0.00000E+00  9.000E+00
      25     1     1     2     0     0 -1.343222716E+02  2.103773805E+01  7.357637118E-01  1.846905532E+02  1.250000000E+02  0.00000E+00  9.000E+00
      25     1     1     2     0     0  1.595312839E+02 -1.988634334E+02  2.589466662E+00  2.839517583E+02  1.250000000E+02  0.00000E+00  9.000E+00
      21     1     1     2   512   501 -2.520901224E+01  1.778256954E+02 -1.810270536E+02  2.550064046E+02  3.814697266E-06  0.00000E+00  9.000E+00
#rwgt            2          11   2.8632170421616691E-003           4       40240           0
</event>
<event>
      5   9999  3.19816E-02  1.62632E+02 -1.00000E+00  1.15019E-01
       2    -1     0     0   502     0  0.000000000E+00  0.000000000E+00  4.577829203E+02  4.577829203E+02  0.000000000E+00  0.00000E+00  9.000E+00
      21    -1     0     0   501   502  0.000000000E+00  0.000000000E+00 -3.348453773E+02  3.348453773E+02  0.000000000E+00  0.00000E+00  9.000E+00
      25     1     1     2     0     0  7.091425905E+01  5.494455368E+00  1.090547007E+02  1.804908555E+02  1.250000000E+02  0.00000E+00  9.000E+00
      25     1     1     2     0     0 -5.422428856E+01  1.562784044E+02 -2.359068722E+02  3.140704785E+02  1.250000000E+02  0.00000E+00  9.000E+00
       2     1     1     2   501     0 -1.668997048E+01 -1.617728597E+02  2.497897146E+02  2.980669636E+02  4.672030912E-06  0.00000E+00  9.000E+00
#rwgt            2          18   4.4747848664275568E-004           4       40380           0
</event>
<event>
      5   9999  3.19816E-02  1.77455E+02 -1.00000E+00  1.13572E-01
      21    -1     0     0   511   501  0.000000000E+00  0.000000000E+00  3.059001011E+02  3.059001011E+02  0.000000000E+00  0.00000E+00  9.000E+00
      21    -1     0     0   501   502  0.000000000E+00  0.000000000E+00 -2.436511136E+03  2.436511136E+03  0.000000000E+00  0.00000E+00  9.000E+00
      25     1     1     2     0     0 -3.189780029E+01  2.649516002E+01 -1.587826073E+02  2.062919764E+02  1.250000000E+02  0.00000E+00  9.000E+00
      25     1     1     2     0     0  1.753028880E+02  7.802815969E+01 -2.219585015E+03  2.231367772E+03  1.250000000E+02  0.00000E+00  9.000E+00
      21     1     1     2   511   502 -1.434050877E+02 -1.045233197E+02  2.477565870E+02  3.047514888E+02  8.529922400E-06  0.00000E+00  9.000E+00
#rwgt            1           1   8.2226214134461420E-002           4       40414           0
</event>
<event>
      5   9999  3.19816E-02  1.74225E+02 -1.00000E+00  1.13874E-01
      21    -1     0     0   502   512  0.000000000E+00  0.000000000E+00  1.078359236E+03  1.078359236E+03  0.000000000E+00  0.00000E+00  9.000E+00
      21    -1     0     0   501   502  0.000000000E+00  0.000000000E+00 -1.338078458E+02  1.338078458E+02  0.000000000E+00  0.00000E+00  9.000E+00
      25     1     1     2     0     0  1.488651500E+02 -2.287290387E+02  6.925521450E+02  7.548054581E+02  1.250000000E+02  0.00000E+00  9.000E+00
      25     1     1     2     0     0 -2.236146258E+01  1.089329563E+02  2.188396534E+01  1.687315380E+02  1.250000000E+02  0.00000E+00  9.000E+00
      21     1     1     2   501   512 -1.265036874E+02  1.197960824E+02  2.301152796E+02  2.886300854E+02  0.000000000E+00  0.00000E+00  9.000E+00
#rwgt            1           1   3.3501127519242932E-002           4       40452           0
</event>
<event>
      5   9999  3.19816E-02  1.61862E+01 -1.00000E+00  1.74325E-01
      21    -1     0     0   502   501  0.000000000E+00  0.000000000E+00  3.274253785E+02  3.274253785E+02  0.000000000E+00  0.00000E+00  9.000E+00
      21    -1     0     0   511   502  0.000000000E+00  0.000000000E+00 -3.275675928E+02  3.275675928E+02  0.000000000E+00  0.00000E+00  9.000E+00
      25     1     1     2     0     0 -1.488519198E+02 -6.206040237E+01 -2.123807948E+02  2.945148376E+02  1.250000000E+02  0.00000E+00  9.000E+00
      25     1     1     2     0     0  1.434454206E+02  7.731697865E+01  2.475386403E+02  3.216440304E+02  1.250000000E+02  0.00000E+00  9.000E+00
      21     1     1     2   511   501  5.406499204E+00 -1.525657628E+01 -3.530005982E+01  3.883410327E+01  6.743495762E-07  0.00000E+00  9.000E+00
#rwgt            1           1   3.0010079151320392E-002           4       40516           0
</event>
<event>
      5   9999  3.19816E-02  2.98277E+01 -1.00000E+00  1.53214E-01
      21    -1     0     0   502   501  0.000000000E+00  0.000000000E+00  3.094588963E+02  3.094588963E+02  0.000000000E+00  0.00000E+00  9.000E+00
      21    -1     0     0   501   512  0.000000000E+00  0.000000000E+00 -6.388753957E+02  6.388753957E+02  0.000000000E+00  0.00000E+00  9.000E+00
      25     1     1     2     0     0  4.669662572E+01 -2.245225015E+02  2.000463210E+02  3.289900592E+02  1.250000000E+02  0.00000E+00  9.000E+00
      25     1     1     2     0     0 -6.002107614E+01  2.512086137E+02 -4.423234130E+02  5.272412150E+02  1.250000000E+02  0.00000E+00  9.000E+00
      21     1     1     2   502   512  1.332445042E+01 -2.668611219E+01 -8.713940734E+01  9.210301773E+01  1.907348633E-06  0.00000E+00  9.000E+00
#rwgt            1           1   2.8741191305181098E-002           4       40732           0
</event>
<event>
      5   9999  3.19816E-02  6.84164E+01 -1.00000E+00  1.31726E-01
      21    -1     0     0   502   501  0.000000000E+00  0.000000000E+00  4.224192430E+02  4.224192430E+02  0.000000000E+00  0.00000E+00  9.000E+00
      21    -1     0     0   511   502  0.000000000E+00  0.000000000E+00 -9.544914741E+02  9.544914741E+02  0.000000000E+00  0.00000E+00  9.000E+00
      25     1     1     2     0     0  2.886167706E+02  2.316520654E+02 -4.766391261E+02  6.162565831E+02  1.250000000E+02  0.00000E+00  9.000E+00
      25     1     1     2     0     0 -3.449800840E+02 -2.704331917E+02  1.988672032E+02  4.973113050E+02  1.250000000E+02  0.00000E+00  9.000E+00
      21     1     1     2   511   501  5.636331342E+01  3.878112635E+01 -2.543003082E+02  2.633428290E+02  2.697398305E-06  0.00000E+00  9.000E+00
#rwgt            1           1   2.8016742831438606E-002           4       40861           0
</event>
<event>
      5   9999  3.19816E-02  2.95361E+02 -1.00000E+00  1.05812E-01
      21    -1     0     0   502   501  0.000000000E+00  0.000000000E+00  2.214900337E+03  2.214900337E+03  0.000000000E+00  0.00000E+00  9.000E+00
      21    -1     0     0   501   512  0.000000000E+00  0.000000000E+00 -7.654368741E+02  7.654368741E+02  0.000000000E+00  0.00000E+00  9.000E+00
      25     1     1     2     0     0 -9.722531119E+02 -3.027911904E+02  1.188735917E+03  1.570247337E+03  1.250000000E+02  0.00000E+00  9.000E+00
      25     1     1     2     0     0  8.853041091E+02  2.051820243E+01  5.047819104E+02  1.026944078E+03  1.250000000E+02  0.00000E+00  9.000E+00
      21     1     1     2   502   512  8.694900285E+01  2.822729880E+02 -2.440543641E+02  3.831457966E+02  8.092194914E-06  0.00000E+00  9.000E+00
#rwgt            1           1   3.3981913542855222E-002           4       40984           0
</event>
<event>
      5   9999  3.19816E-02  6.24059E+01 -1.00000E+00  1.33797E-01
      21    -1     0     0   502   501  0.000000000E+00  0.000000000E+00  5.853807388E+02  5.853807388E+02  0.000000000E+00  0.00000E+00  9.000E+00
       1    -1     0     0   501     0  0.000000000E+00  0.000000000E+00 -8.654577401E+02  8.654577401E+02  0.000000000E+00  0.00000E+00  9.000E+00
      25     1     1     2     0     0  1.504369148E+02  2.088284752E+02 -3.208087643E+02  4.298649331E+02  1.250000000E+02  0.00000E+00  9.000E+00
      25     1     1     2     0     0 -1.788507704E+02 -2.643906021E+02  4.730349494E+02  5.841892261E+02  1.250000000E+02  0.00000E+00  9.000E+00
       1     1     1     2   502     0  2.841385550E+01  5.556212687E+01 -4.323031863E+02  4.367843198E+02  5.394796609E-06  0.00000E+00  9.000E+00
#rwgt            1           1   2.8953843178892769E-002           4       41032           0
</event>
<event>
      5   9999  3.19816E-02  3.46391E+01 -1.00000E+00  1.48825E-01
      21    -1     0     0   502   501  0.000000000E+00  0.000000000E+00  1.074333876E+03  1.074333876E+03  0.000000000E+00  0.00000E+00  9.000E+00
      21    -1     0     0   511   502  0.000000000E+00  0.000000000E+00 -3.507053569E+02  3.507053569E+02  0.000000000E+00  0.00000E+00  9.000E+00
      25     1     1     2     0     0  1.431280993E+02 -4.973297520E+02  1.017913877E+02  5.420415313E+02  1.250000000E+02  0.00000E+00  9.000E+00
      25     1     1     2     0     0 -1.403233335E+02  4.628043590E+02  6.624207564E+02  8.296413509E+02  1.250000000E+02  0.00000E+00  9.000E+00
      21     1     1     2   511   501 -2.804765835E+00  3.452539302E+01 -4.058362539E+01  5.335635036E+01  8.259061849E-07  0.00000E+00  9.000E+00
#rwgt            1           1   2.5821871024810799E-002           4       41137           0
</event>
<event>
      5   9999  3.19816E-02  2.18209E+02 -1.00000E+00  1.10288E-01
      21    -1     0     0   512   501  0.000000000E+00  0.000000000E+00  5.916274083E+02  5.916274083E+02  0.000000000E+00  0.00000E+00  9.000E+00
      21    -1     0     0   501   502  0.000000000E+00  0.000000000E+00 -2.345432589E+03  2.345432589E+03  0.000000000E+00  0.00000E+00  9.000E+00
      25     1     1     2     0     0  5.366467442E+02 -7.512674399E+02 -4.837600327E+02  1.049781531E+03  1.250000000E+02  0.00000E+00  9.000E+00
      25     1     1     2     0     0 -6.535396198E+02  5.670084677E+02 -1.387143007E+03  1.639635130E+03  1.250000000E+02  0.00000E+00  9.000E+00
      21     1     1     2   512   502  1.168928756E+02  1.842589722E+02  1.170978592E+02  2.476433359E+02  4.046097457E-06  0.00000E+00  9.000E+00
#rwgt            1           1   3.1560412709403469E-002           4       41272           0
</event>
<event>
      5   9999  3.19816E-02  1.86838E+02 -1.00000E+00  1.12735E-01
      21    -1     0     0   502   501  0.000000000E+00  0.000000000E+00  4.567753890E+02  4.567753890E+02  0.000000000E+00  0.00000E+00  9.000E+00
      21    -1     0     0   501   511  0.000000000E+00  0.000000000E+00 -1.798034253E+03  1.798034253E+03  0.000000000E+00  0.00000E+00  9.000E+00
      25     1     1     2     0     0  6.057067780E+02 -3.539091943E+02 -1.417919124E+01  7.127120514E+02  1.250000000E+02  0.00000E+00  9.000E+00
      25     1     1     2     0     0 -4.213097167E+02  3.840115414E+02 -8.628709310E+02  1.041699566E+03  1.250000000E+02  0.00000E+00  9.000E+00
      21     1     1     2   502   511 -1.843970613E+02 -3.010234710E+01 -4.642087419E+02  5.003980252E+02  5.394796609E-06  0.00000E+00  9.000E+00
#rwgt            1           1   2.3011307526026863E-002           4       41349           0
</event>
<event>
      5   9999  3.19816E-02  3.58449E+01 -1.00000E+00  1.47857E-01
       2    -1     0     0   502     0  0.000000000E+00  0.000000000E+00  9.307688427E+02  9.307688427E+02  0.000000000E+00  0.00000E+00  9.000E+00
      21    -1     0     0   501   502  0.000000000E+00  0.000000000E+00 -3.219202787E+02  3.219202787E+02  0.000000000E+00  0.00000E+00  9.000E+00
      25     1     1     2     0     0  1.549508054E+01  2.365549368E+02  2.814824049E+02  3.886588220E+02  1.250000000E+02  0.00000E+00  9.000E+00
      25     1     1     2     0     0  1.965516966E+01 -2.435775206E+02 -1.973662004E+02  3.380750676E+02  1.250000000E+02  0.00000E+00  9.000E+00
       2     1     1     2   501     0 -3.515025020E+01  7.022583828E+00  5.247323595E+02  5.259552318E+02  7.629394531E-06  0.00000E+00  9.000E+00
#rwgt            1           1   2.8614323345256175E-002           4       41435           0
</event>
<event>
      5   9999  3.19816E-02  6.39443E+00 -1.00000E+00  2.21262E-01
      21    -1     0     0   502   511  0.000000000E+00  0.000000000E+00  2.841857245E+02  2.841857245E+02  0.000000000E+00  0.00000E+00  9.000E+00
      21    -1     0     0   501   502  0.000000000E+00  0.000000000E+00 -4.609443808E+02  4.609443808E+02  0.000000000E+00  0.00000E+00  9.000E+00
      25     1     1     2     0     0 -3.008846974E+01  1.434856261E+02 -4.021157271E+01  1.968131385E+02  1.250000000E+02  0.00000E+00  9.000E+00
      25     1     1     2     0     0  2.449535304E+01 -1.403863080E+02 -3.161368434E+02  3.686134039E+02  1.250000000E+02  0.00000E+00  9.000E+00
      21     1     1     2   501   511  5.593116698E+00 -3.099318074E+00  1.795897597E+02  1.797035629E+02  2.697398305E-06  0.00000E+00  9.000E+00
#rwgt            1           1   1.9704051450367296E-002           4       41559           0
</event>
<event>
      5   9999  3.19816E-02  2.43349E+02 -1.00000E+00  1.08632E-01
      21    -1     0     0   502   501  0.000000000E+00  0.000000000E+00  6.163223789E+02  6.163223789E+02  0.000000000E+00  0.00000E+00  9.000E+00
      21    -1     0     0   512   502  0.000000000E+00  0.000000000E+00 -9.920320423E+02  9.920320423E+02  0.000000000E+00  0.00000E+00  9.000E+00
      25     1     1     2     0     0  1.688534264E+02  2.938776678E+02  4.079736303E+02  5.449248079E+02  1.250000000E+02  0.00000E+00  9.000E+00
      25     1     1     2     0     0 -3.845469038E+02 -1.812047319E+02 -3.442331930E+02  5.610997836E+02  1.250000000E+02  0.00000E+00  9.000E+00
      21     1     1     2   512   501  2.156934774E+02 -1.126729360E+02 -4.394501008E+02  5.023298297E+02  7.629394531E-06  0.00000E+00  9.000E+00
#rwgt            1           1   3.0649070413542975E-002           4       41890           0
</event>
<event>
      5   9999  3.19816E-02  9.50133E+01 -1.00000E+00  1.24835E-01
      21    -1     0     0   502   511  0.000000000E+00  0.000000000E+00  1.891845808E+02  1.891845808E+02  0.000000000E+00  0.00000E+00  9.000E+00
      21    -1     0     0   501   502  0.000000000E+00  0.000000000E+00 -3.565114988E+02  3.565114988E+02  0.000000000E+00  0.00000E+00  9.000E+00
      25     1     1     2     0     0  3.241539389E+01  3.677441842E+01  8.075860418E+01  1.566846124E+02  1.250000000E+02  0.00000E+00  9.000E+00
      25     1     1     2     0     0 -2.701661213E+01  5.808533367E+01 -2.577205136E+02  2.935109307E+02  1.250000000E+02  0.00000E+00  9.000E+00
      21     1     1     2   501   511 -5.398781762E+00 -9.485975209E+01  9.634991333E+00  9.550053648E+01  1.656108378E-06  0.00000E+00  9.000E+00
#rwgt            1           1   2.9401945605812808E-002           4       41958           0
</event>
<event>
      5   9999  3.19816E-02  8.16577E+01 -1.00000E+00  1.27920E-01
      21    -1     0     0   502   501  0.000000000E+00  0.000000000E+00  1.516775542E+03  1.516775542E+03  0.000000000E+00  0.00000E+00  9.000E+00
      -3    -1     0     0     0   502  0.000000000E+00  0.000000000E+00 -6.903297377E+01  6.903297377E+01  0.000000000E+00  0.00000E+00  9.000E+00
      25     1     1     2     0     0 -4.051373607E+01 -1.749501161E+02  5.566399096E+02  5.980985662E+02  1.250000000E+02  0.00000E+00  9.000E+00
      25     1     1     2     0     0  3.472955234E+01  9.349750054E+01  8.918250418E+02  9.060490216E+02  1.250000000E+02  0.00000E+00  9.000E+00
      -3     1     1     2     0   501  5.784183733E+00  8.145261559E+01 -7.223828355E-01  8.166092826E+01  1.018306587E-06  0.00000E+00  9.000E+00
#rwgt            1           1   3.1539521137709435E-002           4       41998           0
</event>
<event>
      5   9999  3.19816E-02  6.87036E+02 -1.00000E+00  9.50833E-02
       1    -1     0     0   502     0  0.000000000E+00  0.000000000E+00  6.984852031E+02  6.984852031E+02  0.000000000E+00  0.00000E+00  9.000E+00
      21    -1     0     0   501   502  0.000000000E+00  0.000000000E+00 -2.638106258E+03  2.638106258E+03  0.000000000E+00  0.00000E+00  9.000E+00
      25     1     1     2     0     0  2.513896415E+02  3.182142731E+02 -5.477321769E+02  6.928871575E+02  1.250000000E+02  0.00000E+00  9.000E+00
      25     1     1     2     0     0 -2.869364375E+02 -1.004330237E+03 -1.609708279E+03  1.922965805E+03  1.250000000E+02  0.00000E+00  9.000E+00
       1     1     1     2   501     0  3.554679596E+01  6.861159642E+02  2.178194012E+02  7.207384980E+02  2.697398305E-06  0.00000E+00  9.000E+00
#rwgt            2          17   3.7017019591056296E-004           4       42049           0
</event>
<event>
      5   9999  3.19816E-02  1.58075E+01 -1.00000E+00  1.75265E-01
      21    -1     0     0   502   511  0.000000000E+00  0.000000000E+00  2.440625854E+02  2.440625854E+02  0.000000000E+00  0.00000E+00  9.000E+00
      21    -1     0     0   501   502  0.000000000E+00  0.000000000E+00 -2.799861350E+02  2.799861350E+02  0.000000000E+00  0.00000E+00  9.000E+00
      25     1     1     2     0     0 -1.100022624E+02 -1.484591684E+02  9.153437800E+01  2.411310116E+02  1.250000000E+02  0.00000E+00  9.000E+00
      25     1     1     2     0     0  9.498588447E+01  1.533971718E+02 -1.420128333E+02  2.614300201E+02  1.250000000E+02  0.00000E+00  9.000E+00
      21     1     1     2   501   511  1.501637796E+01 -4.938003372E+00  1.455490574E+01  2.148768869E+01  3.371747881E-07  0.00000E+00  9.000E+00
#rwgt            1           1   2.5752374045995660E-002           4       42083           0
</event>
<event>
      5   9999  3.19816E-02  1.18088E+02 -1.00000E+00  1.20665E-01
      21    -1     0     0   502   512  0.000000000E+00  0.000000000E+00  2.411434085E+02  2.411434085E+02  0.000000000E+00  0.00000E+00  9.000E+00
      21    -1     0     0   501   502  0.000000000E+00  0.000000000E+00 -3.216212991E+03  3.216212991E+03  0.000000000E+00  0.00000E+00  9.000E+00
      25     1     1     2     0     0  4.803697283E+02 -1.653353191E+02 -1.329607043E+02  5.398095891E+02  1.250000000E+02  0.00000E+00  9.000E+00
      25     1     1     2     0     0 -3.690384764E+02  2.047077696E+02 -2.685910013E+03  2.721733320E+03  1.250000000E+02  0.00000E+00  9.000E+00
      21     1     1     2   501   512 -1.113312519E+02 -3.937245051E+01 -1.561988651E+02  1.958134903E+02  0.000000000E+00  0.00000E+00  9.000E+00
#rwgt            1           1   7.9795852524387062E-002           4       42257           0
</event>
<event>
      5   9999  3.19816E-02  9.06700E+01 -1.00000E+00  1.25772E-01
      21    -1     0     0   502   501  0.000000000E+00  0.000000000E+00  3.143275139E+02  3.143275139E+02  0.000000000E+00  0.00000E+00  9.000E+00
       2    -1     0     0   501     0  0.000000000E+00  0.000000000E+00 -2.161869562E+03  2.161869562E+03  0.000000000E+00  0.00000E+00  9.000E+00
      25     1     1     2     0     0 -5.167975496E+02  5.201290634E+01 -1.204236448E+01  5.343735288E+02  1.250000000E+02  0.00000E+00  9.000E+00
      25     1     1     2     0     0  4.303583553E+02 -2.463916792E+01 -1.779559728E+03  1.835285599E+03  1.250000000E+02  0.00000E+00  9.000E+00
       2     1     1     2   502     0  8.643919432E+01 -2.737373842E+01 -5.593995583E+01  1.065379488E+02  6.743495762E-07  0.00000E+00  9.000E+00
#rwgt            1           1   4.0261092831246070E-002           4       42336           0
</event>
<event>
      5   9999  3.19816E-02  3.53662E+01 -1.00000E+00  1.48236E-01
      21    -1     0     0   502   501  0.000000000E+00  0.000000000E+00  1.508549991E+03  1.508549991E+03  0.000000000E+00  0.00000E+00  9.000E+00
      21    -1     0     0   511   502  0.000000000E+00  0.000000000E+00 -2.698720337E+01  2.698720337E+01  0.000000000E+00  0.00000E+00  9.000E+00
      25     1     1     2     0     0  4.925053060E+01  1.976917471E+01  3.393858653E+02  3.655464411E+02  1.250000000E+02  0.00000E+00  9.000E+00
      25     1     1     2     0     0 -8.301323859E+01 -3.029753902E+01  1.114813398E+03  1.125274656E+03  1.250000000E+02  0.00000E+00  9.000E+00
      21     1     1     2   511   501  3.376270799E+01  1.052836431E+01  2.736352427E+01  4.471609740E+01  1.390207266E-06  0.00000E+00  9.000E+00
#rwgt            1           1   2.4337803905256129E-002           4       42502           0
</event>
<event>
      5   9999  3.19816E-02  1.34305E+02 -1.00000E+00  1.18328E-01
      21    -1     0     0   502   512  0.000000000E+00  0.000000000E+00  3.959615369E+02  3.959615369E+02  0.000000000E+00  0.00000E+00  9.000E+00
      21    -1     0     0   501   502  0.000000000E+00  0.000000000E+00 -1.402271812E+03  1.402271812E+03  0.000000000E+00  0.00000E+00  9.000E+00
      25     1     1     2     0     0 -4.116112256E+02  3.326150589E+02 -3.113224233E+02  6.265805852E+02  1.250000000E+02  0.00000E+00  9.000E+00
      25     1     1     2     0     0  4.237552511E+02 -1.988600393E+02 -8.426755477E+02  9.720292725E+02  1.250000000E+02  0.00000E+00  9.000E+00
      21     1     1     2   501   512 -1.214402550E+01 -1.337550196E+02  1.476876960E+02  1.996234911E+02  2.697398305E-06  0.00000E+00  9.000E+00
#rwgt            1           1   2.9901729984507994E-002           4       42585           0
</event>
<event>
      5   9999  3.19816E-02  8.22800E+00 -1.00000E+00  2.06088E-01
      21    -1     0     0   511   501  0.000000000E+00  0.000000000E+00  1.793492512E+02  1.793492512E+02  0.000000000E+00  0.00000E+00  9.000E+00
      21    -1     0     0   501   502  0.000000000E+00  0.000000000E+00 -1.938556462E+03  1.938556462E+03  0.000000000E+00  0.00000E+00  9.000E+00
      25     1     1     2     0     0  1.906747804E+02  4.066012289E+02 -2.452127999E+02  5.267216992E+02  1.250000000E+02  0.00000E+00  9.000E+00
      25     1     1     2     0     0 -1.875108555E+02 -4.141965916E+02 -1.510238678E+03  1.582139375E+03  1.250000000E+02  0.00000E+00  9.000E+00
      21     1     1     2   511   502 -3.163924922E+00  7.595362665E+00 -3.755732107E+00  9.044638112E+00  1.976862425E-07  0.00000E+00  9.000E+00
#rwgt            1           1   3.1874925223327757E-002           4       42647           0
</event>
<event>
      5   9999  3.19816E-02  1.97883E+01 -1.00000E+00  1.66751E-01
      21    -1     0     0   502   501  0.000000000E+00  0.000000000E+00  1.318596642E+03  1.318596642E+03  0.000000000E+00  0.00000E+00  9.000E+00
       1    -1     0     0   501     0  0.000000000E+00  0.000000000E+00 -1.039837013E+03  1.039837013E+03  0.000000000E+00  0.00000E+00  9.000E+00
      25     1     1     2     0     0  5.077278029E+02  4.119114812E+02  1.601988817E+02  6.846512046E+02  1.250000000E+02  0.00000E+00  9.000E+00
      25     1     1     2     0     0 -5.151639864E+02 -3.935735127E+02  7.743962043E+02  1.017648527E+03  1.250000000E+02  0.00000E+00  9.000E+00
       1     1     1     2   502     0  7.436183461E+00 -1.833796849E+01 -6.558354574E+02  6.561339232E+02  7.629394531E-06  0.00000E+00  9.000E+00
#rwgt            1           1   2.9208148533634560E-002           4       43039           0
</event>
<event>
      5   9999  3.19816E-02  1.21618E+02 -1.00000E+00  1.20122E-01
      21    -1     0     0   502   501  0.000000000E+00  0.000000000E+00  6.681499361E+02  6.681499361E+02  0.000000000E+00  0.00000E+00  9.000E+00
       1    -1     0     0   501     0  0.000000000E+00  0.000000000E+00 -1.613709218E+03  1.613709218E+03  0.000000000E+00  0.00000E+00  9.000E+00
      25     1     1     2     0     0 -2.066370568E+02  7.049389195E+02 -2.345931082E+02  7.812148744E+02  1.250000000E+02  0.00000E+00  9.000E+00
      25     1     1     2     0     0  1.347141265E+02 -8.030109113E+02 -4.643857547E+01  8.250793664E+02  1.250000000E+02  0.00000E+00  9.000E+00
       1     1     1     2   502     0  7.192293025E+01  9.807199176E+01 -6.645275983E+02  6.755649135E+02  1.078959322E-05  0.00000E+00  9.000E+00
#rwgt            2          12   5.4950202850082952E-004           4       43374           0
</event>
<event>
      5   9999  3.19816E-02  4.08508E+01 -1.00000E+00  1.44276E-01
      21    -1     0     0   511   501  0.000000000E+00  0.000000000E+00  3.109460368E+02  3.109460368E+02  0.000000000E+00  0.00000E+00  9.000E+00
      21    -1     0     0   501   502  0.000000000E+00  0.000000000E+00 -9.528523386E+01  9.528523386E+01  0.000000000E+00  0.00000E+00  9.000E+00
      25     1     1     2     0     0 -6.057710599E+00  2.791430330E+01  1.882429001E+02  2.277636793E+02  1.250000000E+02  0.00000E+00  9.000E+00
      25     1     1     2     0     0  1.992423690E+01  1.051099640E+01 -3.774427787E+00  1.270696760E+02  1.250000000E+02  0.00000E+00  9.000E+00
      21     1     1     2   511   502 -1.386652631E+01 -3.842529970E+01  3.119233068E+01  5.139791535E+01  9.536743164E-07  0.00000E+00  9.000E+00
#rwgt            1           1   5.3130709016465986E-002           4       43393           0
</event>
<event>
      5   9999  3.19816E-02  6.78815E+01 -1.00000E+00  1.31900E-01
      21    -1     0     0   502   501  0.000000000E+00  0.000000000E+00  1.692819086E+03  1.692819086E+03  0.000000000E+00  0.00000E+00  9.000E+00
      21    -1     0     0   512   502  0.000000000E+00  0.000000000E+00 -3.005927501E+02  3.005927501E+02  0.000000000E+00  0.00000E+00  9.000E+00
      25     1     1     2     0     0  7.866281346E+01  1.803921416E+01  5.169623767E+01  1.575142929E+02  1.250000000E+02  0.00000E+00  9.000E+00
      25     1     1     2     0     0 -2.506741341E+01 -5.969766187E+01  1.580374641E+03  1.586632027E+03  1.250000000E+02  0.00000E+00  9.000E+00
      21     1     1     2   512   501 -5.359540005E+01  4.165844771E+01 -2.398445420E+02  2.492655161E+02  3.814697266E-06  0.00000E+00  9.000E+00
#rwgt            1           1   3.4451389063132248E-002           4       43453           0
</event>
<event>
      5   9999  3.19816E-02  7.46707E+01 -1.00000E+00  1.29816E-01
      21    -1     0     0   511   501  0.000000000E+00  0.000000000E+00  7.455589009E+02  7.455589009E+02  0.000000000E+00  0.00000E+00  9.000E+00
      21    -1     0     0   501   502  0.000000000E+00  0.000000000E+00 -1.869434244E+02  1.869434244E+02  0.000000000E+00  0.00000E+00  9.000E+00
      25     1     1     2     0     0  3.277237252E+02 -1.570424527E+01  3.622956964E+02  5.045122744E+02  1.250000000E+02  0.00000E+00  9.000E+00
      25     1     1     2     0     0 -2.662580460E+02  5.810338033E+01  1.253461846E+02  3.249707923E+02  1.250000000E+02  0.00000E+00  9.000E+00
      21     1     1     2   511   502 -6.146567924E+01 -4.239913507E+01  7.097359554E+01  1.030192586E+02  1.651812370E-06  0.00000E+00  9.000E+00
#rwgt            1           1   2.9860575752978114E-002           4       43552           0
</event>
<event>
      5   9999  3.19816E-02  1.11927E+02 -1.00000E+00  1.21666E-01
      21    -1     0     0   502   501  0.000000000E+00  0.000000000E+00  9.053580951E+01  9.053580951E+01  0.000000000E+00  0.00000E+00  9.000E+00
      21    -1     0     0   512   502  0.000000000E+00  0.000000000E+00 -1.137964166E+03  1.137964166E+03  0.000000000E+00  0.00000E+00  9.000E+00
      25     1     1     2     0     0 -4.731894839E+01 -1.844664582E+02 -1.953463401E+02  3.000869035E+02  1.250000000E+02  0.00000E+00  9.000E+00
      25     1     1     2     0     0 -6.009269468E+01  2.159380480E+02 -5.840246903E+02  6.379264938E+02  1.250000000E+02  0.00000E+00  9.000E+00
      21     1     1     2   512   501  1.074116431E+02 -3.147158980E+01 -2.680573257E+02  2.904865779E+02  3.814697266E-06  0.00000E+00  9.000E+00
#rwgt            1           1   3.0864478858173457E-002           4       43610           0
</event>
<event>
      5   9999  3.19816E-02  7.04298E+01 -1.00000E+00  1.31086E-01
      21    -1     0     0   502   501  0.000000000E+00  0.000000000E+00  1.718119241E+03  1.718119241E+03  0.000000000E+00  0.00000E+00  9.000E+00
      21    -1     0     0   501   511  0.000000000E+00  0.000000000E+00 -4.839452124E+01  4.839452124E+01  0.000000000E+00  0.00000E+00  9.000E+00
      25     1     1     2     0     0  2.364916121E+02 -3.465175158E+01  1.051349948E+03  1.085398885E+03  1.250000000E+02  0.00000E+00  9.000E+00
      25     1     1     2     0     0 -1.665327094E+02  4.278210013E+01  5.009703105E+02  5.442055709E+02  1.250000000E+02  0.00000E+00  9.000E+00
      21     1     1     2   502   511 -6.995890279E+01 -8.130348549E+00  1.174044617E+02  1.369093068E+02  1.348699152E-06  0.00000E+00  9.000E+00
#rwgt            1           1   3.4958102681252309E-002           4       43669           0
</event>
<event>
      5   9999  3.19816E-02  1.07466E+02 -1.00000E+00  1.22438E-01
      21    -1     0     0   502   501  0.000000000E+00  0.000000000E+00  1.339496884E+02  1.339496884E+02  0.000000000E+00  0.00000E+00  9.000E+00
      -1    -1     0     0     0   502  0.000000000E+00  0.000000000E+00 -6.503016417E+02  6.503016417E+02  0.000000000E+00  0.00000E+00  9.000E+00
      25     1     1     2     0     0  8.413212304E+01 -7.574954923E+01  8.845666570E+00  1.688770386E+02  1.250000000E+02  0.00000E+00  9.000E+00
      25     1     1     2     0     0  1.299390083E+01  2.975457556E+01 -4.829201199E+02  4.998910066E+02  1.250000000E+02  0.00000E+00  9.000E+00
      -1     1     1     2     0   501 -9.712602387E+01  4.599497367E+01 -4.227749991E+01  1.154832850E+02  1.168007728E-06  0.00000E+00  9.000E+00
#rwgt            1           1   2.6822398384246441E-002           4       43752           0
</event>
<event>
      5   9999  3.19816E-02  9.56317E+01 -1.00000E+00  1.24707E-01
      21    -1     0     0   502   501  0.000000000E+00  0.000000000E+00  7.643723899E+01  7.643723899E+01  0.000000000E+00  0.00000E+00  9.000E+00
       2    -1     0     0   501     0  0.000000000E+00  0.000000000E+00 -6.767587735E+02  6.767587735E+02  0.000000000E+00  0.00000E+00  9.000E+00
      25     1     1     2     0     0 -1.337045119E+01  1.356806603E+02 -1.338532713E+02  2.283193132E+02  1.250000000E+02  0.00000E+00  9.000E+00
      25     1     1     2     0     0  4.686525226E+01 -4.610655106E+01 -3.221431554E+02  3.517433418E+02  1.250000000E+02  0.00000E+00  9.000E+00
       2     1     1     2   502     0 -3.349480108E+01 -8.957410922E+01 -1.443251079E+02  1.731333576E+02  2.697398305E-06  0.00000E+00  9.000E+00
#rwgt            1           1   2.5530168500460984E-002           4       43855           0
</event>
<event>
      5   9999  3.19816E-02  3.03233E+01 -1.00000E+00  1.52717E-01
      21    -1     0     0   502   501  0.000000000E+00  0.000000000E+00  1.945494935E+02  1.945494935E+02  0.000000000E+00  0.00000E+00  9.000E+00
      21    -1     0     0   511   502  0.000000000E+00  0.000000000E+00 -5.381402480E+02  5.381402480E+02  0.000000000E+00  0.00000E+00  9.000E+00
      25     1     1     2     0     0 -6.378896657E+01 -1.997339225E+01  1.526833309E+02  2.083390702E+02  1.250000000E+02  0.00000E+00  9.000E+00
      25     1     1     2     0     0  4.756115197E+01 -5.642245973E+00 -3.448341303E+02  3.699046844E+02  1.250000000E+02  0.00000E+00  9.000E+00
      21     1     1     2   511   501  1.622781460E+01  2.561563822E+01 -1.514399550E+02  1.544459869E+02  1.907348633E-06  0.00000E+00  9.000E+00
#rwgt            1           1   2.6335950670049180E-002           4       43908           0
</event>
<event>
      5   9999  3.19816E-02  2.17710E+01 -1.00000E+00  1.63385E-01
      21    -1     0     0   502   501  0.000000000E+00  0.000000000E+00  4.217180887E+01  4.217180887E+01  0.000000000E+00  0.00000E+00  9.000E+00
      21    -1     0     0   501   512  0.000000000E+00  0.000000000E+00 -1.528065143E+03  1.528065143E+03  0.000000000E+00  0.00000E+00  9.000E+00
      25     1     1     2     0     0  1.735296539E+02  1.072191921E+02 -8.140141789E+02  8.484412645E+02  1.250000000E+02  0.00000E+00  9.000E+00
      25     1     1     2     0     0 -1.743035996E+02 -8.546191261E+01 -5.279680232E+02  5.762470970E+02  1.250000000E+02  0.00000E+00  9.000E+00
      21     1     1     2   502   512  7.739456903E-01 -2.175727948E+01 -1.439111318E+02  1.455485901E+02  1.907348633E-06  0.00000E+00  9.000E+00
#rwgt            1           1   2.8055820968662420E-002           4       44058           0
</event>
<event>
      5   9999  3.19816E-02  2.59441E+02 -1.00000E+00  1.07683E-01
      21    -1     0     0   502   501  0.000000000E+00  0.000000000E+00  7.519404401E+02  7.519404401E+02  0.000000000E+00  0.00000E+00  9.000E+00
       2    -1     0     0   501     0  0.000000000E+00  0.000000000E+00 -7.620882739E+02  7.620882739E+02  0.000000000E+00  0.00000E+00  9.000E+00
      25     1     1     2     0     0 -3.380030520E+02  1.706774500E+02 -1.146106724E+02  4.148945183E+02  1.250000000E+02  0.00000E+00  9.000E+00
      25     1     1     2     0     0  2.908583126E+02  8.444374835E+01  5.168327024E+02  6.119398230E+02  1.250000000E+02  0.00000E+00  9.000E+00
       2     1     1     2   502     0  4.714473939E+01 -2.551211983E+02 -4.123698638E+02  4.871943728E+02  0.000000000E+00  0.00000E+00  9.000E+00
#rwgt            1           1   3.2457750011468278E-002           4       44190           0
</event>
<event>
      5   9999  3.19816E-02  2.64361E+01 -1.00000E+00  1.56955E-01
      21    -1     0     0   511   501  0.000000000E+00  0.000000000E+00  3.976832440E+02  3.976832440E+02  0.000000000E+00  0.00000E+00  9.000E+00
      21    -1     0     0   501   502  0.000000000E+00  0.000000000E+00 -2.623180122E+02  2.623180122E+02  0.000000000E+00  0.00000E+00  9.000E+00
      25     1     1     2     0     0 -1.388976628E+02  1.594926998E+02  1.279812615E+02  2.770102621E+02  1.250000000E+02  0.00000E+00  9.000E+00
      25     1     1     2     0     0  1.209246271E+02 -1.788792494E+02 -1.026820975E+02  2.697946709E+02  1.250000000E+02  0.00000E+00  9.000E+00
      21     1     1     2   511   502  1.797303569E+01  1.938654960E+01  1.100660678E+02  1.131963232E+02  1.348699152E-06  0.00000E+00  9.000E+00
#rwgt            1           1   2.9428268974185521E-002           4       44237           0
</event>
<event>
      5   9999  3.19816E-02  8.57828E+00 -1.00000E+00  2.03785E-01
      21    -1     0     0   502   501  0.000000000E+00  0.000000000E+00  5.356457806E+01  5.356457806E+01  0.000000000E+00  0.00000E+00  9.000E+00
      21    -1     0     0   501   512  0.000000000E+00  0.000000000E+00 -1.527498803E+03  1.527498803E+03  0.000000000E+00  0.00000E+00  9.000E+00
      25     1     1     2     0     0  2.090157266E+02  1.363120082E+02 -7.250017232E+02  7.768661636E+02  1.250000000E+02  0.00000E+00  9.000E+00
      25     1     1     2     0     0 -2.103575229E+02 -1.447847014E+02 -7.237477614E+02  7.775916147E+02  1.250000000E+02  0.00000E+00  9.000E+00
      21     1     1     2   502   512  1.341796350E+00  8.472693236E+00 -2.518474035E+01  2.660560269E+01  0.000000000E+00  0.00000E+00  9.000E+00
#rwgt            1           1   2.7427985715851175E-002           4       44416           0
</event>
<event>
      5   9999  3.19816E-02  1.59698E+02 -1.00000E+00  1.15325E-01
      21    -1     0     0   502   501  0.000000000E+00  0.000000000E+00  9.668431293E+02  9.668431293E+02  0.000000000E+00  0.00000E+00  9.000E+00
      21    -1     0     0   511   502  0.000000000E+00  0.000000000E+00 -1.640302422E+02  1.640302422E+02  0.000000000E+00  0.00000E+00  9.000E+00
      25     1     1     2     0     0  8.553179126E+01 -8.683526954E+00  6.929572915E+02  7.093700718E+02  1.250000000E+02  0.00000E+00  9.000E+00
      25     1     1     2     0     0 -1.614334230E+02 -1.318238379E+02  9.565112686E+01  2.611750607E+02  1.250000000E+02  0.00000E+00  9.000E+00
      21     1     1     2   511   501  7.590163170E+01  1.405073648E+02  1.420446875E+01  1.603282389E+02  2.795705652E-06  0.00000E+00  9.000E+00
#rwgt            1           1   2.9607110212877024E-002           4       44763           0
</event>
<event>
      5   9999  3.19816E-02  8.40273E+01 -1.00000E+00  1.27325E-01
      21    -1     0     0   502   501  0.000000000E+00  0.000000000E+00  1.072769434E+03  1.072769434E+03  0.000000000E+00  0.00000E+00  9.000E+00
      21    -1     0     0   501   512  0.000000000E+00  0.000000000E+00 -5.746003314E+02  5.746003314E+02  0.000000000E+00  0.00000E+00  9.000E+00
      25     1     1     2     0     0 -1.996815891E+01  6.054689274E+02  5.641328802E+02  8.371751644E+02  1.250000000E+02  0.00000E+00  9.000E+00
      25     1     1     2     0     0  7.951107581E+01 -5.461796247E+02  1.440793513E+02  5.839675103E+02  1.250000000E+02  0.00000E+00  9.000E+00
      21     1     1     2   502   512 -5.954291690E+01 -5.928930266E+01 -2.100431291E+02  2.262270904E+02  2.697398305E-06  0.00000E+00  9.000E+00
#rwgt            1           1   2.7186073961062689E-002           4       44791           0
</event>
<event>
      5   9999  3.19816E-02  5.98830E+01 -1.00000E+00  1.34749E-01
      21    -1     0     0   502   501  0.000000000E+00  0.000000000E+00  3.686623280E+02  3.686623280E+02  0.000000000E+00  0.00000E+00  9.000E+00
      21    -1     0     0   511   502  0.000000000E+00  0.000000000E+00 -9.986882089E+02  9.986882089E+02  0.000000000E+00  0.00000E+00  9.000E+00
      25     1     1     2     0     0  9.375313084E+01 -1.923093645E+02 -2.084409376E+01  2.486604461E+02  1.250000000E+02  0.00000E+00  9.000E+00
      25     1     1     2     0     0 -1.458038189E+02  2.219185244E+02  1.686955967E+02  3.385111364E+02  1.250000000E+02  0.00000E+00  9.000E+00
      21     1     1     2   511   501  5.205068808E+01 -2.960915991E+01 -7.778773839E+02  7.801789544E+02  1.078959322E-05  0.00000E+00  9.000E+00
#rwgt            1           1   2.0943101268236584E-002           4       44912           0
</event>
<event>
      5   9999  3.19816E-02  6.58012E+01 -1.00000E+00  1.32596E-01
      21    -1     0     0   512   501  0.000000000E+00  0.000000000E+00  5.792759069E+02  5.792759069E+02  0.000000000E+00  0.00000E+00  9.000E+00
      21    -1     0     0   501   502  0.000000000E+00  0.000000000E+00 -3.929593416E+02  3.929593416E+02  0.000000000E+00  0.00000E+00  9.000E+00
      25     1     1     2     0     0  1.247782672E+01 -3.562901381E+02 -7.059491027E+01  3.843266840E+02  1.250000000E+02  0.00000E+00  9.000E+00
      25     1     1     2     0     0 -8.751852322E+00  2.905944742E+02 -6.375113008E+00  3.165239097E+02  1.250000000E+02  0.00000E+00  9.000E+00
      21     1     1     2   512   502 -3.725974395E+00  6.569566387E+01  2.632865886E+02  2.713846549E+02  3.814697266E-06  0.00000E+00  9.000E+00
#rwgt            1           1   2.7088199037824022E-002           4       45040           0
</event>
<event>
      5   9999  3.19816E-02  2.05091E+02 -1.00000E+00  1.11252E-01
      21    -1     0     0   511   501  0.000000000E+00  0.000000000E+00  1.219671681E+03  1.219671681E+03  0.000000000E+00  0.00000E+00  9.000E+00
      21    -1     0     0   501   502  0.000000000E+00  0.000000000E+00 -4.111189880E+02  4.111189880E+02  0.000000000E+00  0.00000E+00  9.000E+00
      25     1     1     2     0     0  6.088475734E+02  1.124489253E+02  1.062702622E+02  6.405142442E+02  1.250000000E+02  0.00000E+00  9.000E+00
      25     1     1     2     0     0 -4.453822189E+02  1.141079595E+01  3.408745484E+02  5.747312284E+02  1.250000000E+02  0.00000E+00  9.000E+00
      21     1     1     2   511   502 -1.634653545E+02 -1.238597213E+02  3.614078821E+02  4.155451960E+02  6.607249480E-06  0.00000E+00  9.000E+00
#rwgt            1           1   2.6316009477124088E-002           4       45131           0
</event>
<event>
      5   9999  3.19816E-02  7.07324E+01 -1.00000E+00  1.30992E-01
      21    -1     0     0   502   501  0.000000000E+00  0.000000000E+00  8.484844866E+02  8.484844866E+02  0.000000000E+00  0.00000E+00  9.000E+00
      21    -1     0     0   501   512  0.000000000E+00  0.000000000E+00 -1.121114294E+03  1.121114294E+03  0.000000000E+00  0.00000E+00  9.000E+00
      25     1     1     2     0     0  5.476290652E+02  3.523476195E+02 -6.094669414E+02  9.006227793E+02  1.250000000E+02  0.00000E+00  9.000E+00
      25     1     1     2     0     0 -5.696515302E+02 -4.195643406E+02  5.105758100E+02  8.813908097E+02  1.250000000E+02  0.00000E+00  9.000E+00
      21     1     1     2   502   512  2.202246503E+01  6.721672108E+01 -1.737386763E+02  1.875851919E+02  1.907348633E-06  0.00000E+00  9.000E+00
#rwgt            1           1   2.0636499567119281E-002           4       45163           0
</event>
<event>
      5   9999  3.19816E-02  2.46011E+02 -1.00000E+00  1.08469E-01
      21    -1     0     0   502   501  0.000000000E+00  0.000000000E+00  1.966984030E+03  1.966984030E+03  0.000000000E+00  0.00000E+00  9.000E+00
      21    -1     0     0   511   502  0.000000000E+00  0.000000000E+00 -6.767764338E+01  6.767764338E+01  0.000000000E+00  0.00000E+00  9.000E+00
      25     1     1     2     0     0 -7.824116713E+01 -1.864284477E+01  4.281544249E+02  4.532222937E+02  1.250000000E+02  0.00000E+00  9.000E+00
      25     1     1     2     0     0  2.152523415E+02  2.229699584E+02  8.384100076E+02  9.025549921E+02  1.250000000E+02  0.00000E+00  9.000E+00
      21     1     1     2   511   501 -1.370111744E+02 -2.043271136E+02  6.327419537E+02  6.788843872E+02  0.000000000E+00  0.00000E+00  9.000E+00
#rwgt            1           1   2.9832658206717936E-002           4       45345           0
</event>
<event>
      5   9999  3.19816E-02  7.59362E+01 -1.00000E+00  1.29455E-01
      21    -1     0     0   512   501  0.000000000E+00  0.000000000E+00  1.185713932E+02  1.185713932E+02  0.000000000E+00  0.00000E+00  9.000E+00
      21    -1     0     0   501   502  0.000000000E+00  0.000000000E+00 -5.894119052E+02  5.894119052E+02  0.000000000E+00  0.00000E+00  9.000E+00
      25     1     1     2     0     0 -4.145447161E+01  1.589511561E+01 -4.802059246E+02  4.981905840E+02  1.250000000E+02  0.00000E+00  9.000E+00
      25     1     1     2     0     0 -3.252201403E+01 -3.303512636E+01  3.186210227E-01  1.333195503E+02  1.250000000E+02  0.00000E+00  9.000E+00
      21     1     1     2   512   502  7.397648565E+01  1.714001075E+01  9.046791622E+00  7.647316415E+01  8.678567278E-07  0.00000E+00  9.000E+00
#rwgt            1           1   3.0178594481661495E-002           4       45400           0
</event>
<event>
      5   9999  3.19816E-02  6.44206E+01 -1.00000E+00  1.33074E-01
      21    -1     0     0   502   501  0.000000000E+00  0.000000000E+00  3.139533537E+02  3.139533537E+02  0.000000000E+00  0.00000E+00  9.000E+00
      21    -1     0     0   501   511  0.000000000E+00  0.000000000E+00 -1.227265275E+03  1.227265275E+03  0.000000000E+00  0.00000E+00  9.000E+00
      25     1     1     2     0     0  2.148926684E+02  3.136555726E+02 -6.574448453E+02  7.696865608E+02  1.250000000E+02  0.00000E+00  9.000E+00
      25     1     1     2     0     0 -2.154359993E+02 -2.492372285E+02  1.335526669E+02  3.768198253E+02  1.250000000E+02  0.00000E+00  9.000E+00
      21     1     1     2   502   511  5.433309044E-01 -6.441834407E+01 -3.894197429E+02  3.947122425E+02  0.000000000E+00  0.00000E+00  9.000E+00
#rwgt            1           1   2.9476444636580109E-002           4       45476           0
</event>
<event>
      5   9999  3.19816E-02  6.78523E+00 -1.00000E+00  2.17484E-01
      21    -1     0     0   512   501  0.000000000E+00  0.000000000E+00  1.198268297E+03  1.198268297E+03  0.000000000E+00  0.00000E+00  9.000E+00
      21    -1     0     0   501   502  0.000000000E+00  0.000000000E+00 -2.111887183E+02  2.111887183E+02  0.000000000E+00  0.00000E+00  9.000E+00
      25     1     1     2     0     0 -3.238842587E+02 -2.933699985E+02  4.191898353E+02  6.183139065E+02  1.250000000E+02  0.00000E+00  9.000E+00
      25     1     1     2     0     0  3.234740015E+02  2.865971859E+02  3.419241336E+02  5.650756496E+02  1.250000000E+02  0.00000E+00  9.000E+00
      21     1     1     2   512   502  4.102571804E-01  6.772812582E+00  2.259656093E+02  2.260674587E+02  0.000000000E+00  0.00000E+00  9.000E+00
#rwgt            1           1   2.8199679940021066E-002           4       45573           0
</event>
<event>
      5   9999  3.19816E-02  1.12635E+02 -1.00000E+00  1.21547E-01
      21    -1     0     0   502   501  0.000000000E+00  0.000000000E+00  2.983976957E+02  2.983976957E+02  0.000000000E+00  0.00000E+00  9.000E+00
      21    -1     0     0   501   511  0.000000000E+00  0.000000000E+00 -1.329205990E+03  1.329205990E+03  0.000000000E+00  0.00000E+00  9.000E+00
      25     1     1     2     0     0 -6.878883113E+01 -1.698346981E+02 -2.788625771E+02  3.563215750E+02  1.250000000E+02  0.00000E+00  9.000E+00
      25     1     1     2     0     0  8.595475476E+01  5.851504701E+01  2.306787544E+02  2.822231711E+02  1.250000000E+02  0.00000E+00  9.000E+00
      21     1     1     2   502   511 -1.716592363E+01  1.113196510E+02 -9.826244712E+02  9.890589391E+02  1.078959322E-05  0.00000E+00  9.000E+00
#rwgt            1           1   3.3119585616405586E-002           4       45861           0
</event>
<event>
      5   9999  3.19816E-02  3.86812E+01 -1.00000E+00  1.45749E-01
      21    -1     0     0   502   501  0.000000000E+00  0.000000000E+00  1.314179330E+03  1.314179330E+03  0.000000000E+00  0.00000E+00  9.000E+00
      21    -1     0     0   501   512  0.000000000E+00  0.000000000E+00 -6.550746728E+02  6.550746728E+02  0.000000000E+00  0.00000E+00  9.000E+00
      25     1     1     2     0     0  4.253418115E+02  1.590301686E+02 -4.380133316E+02  6.431849888E+02  1.250000000E+02  0.00000E+00  9.000E+00
      25     1     1     2     0     0 -4.335667627E+02 -1.212335720E+02  1.160943991E+03  1.251436641E+03  1.250000000E+02  0.00000E+00  9.000E+00
      21     1     1     2   502   512  8.224951200E+00 -3.779659662E+01 -6.382600207E+01  7.463237286E+01  9.536743164E-07  0.00000E+00  9.000E+00
#rwgt            1           1   3.4629856370152430E-002           4       45941           0
</event>
<event>
      5   9999  3.19816E-02  3.99813E+02 -1.00000E+00  1.01692E-01
      21    -1     0     0   502   501  0.000000000E+00  0.000000000E+00  2.782193138E+02  2.782193138E+02  0.000000000E+00  0.00000E+00  9.000E+00
       1    -1     0     0   501     0  0.000000000E+00  0.000000000E+00 -1.470170705E+03  1.470170705E+03  0.000000000E+00  0.00000E+00  9.000E+00
      25     1     1     2     0     0 -2.533946812E+01 -7.924453596E+01  6.508478219E+01  1.636545569E+02  1.250000000E+02  0.00000E+00  9.000E+00
      25     1     1     2     0     0 -3.105650733E+02  2.960822445E+02 -2.758010579E+02  5.251729085E+02  1.250000000E+02  0.00000E+00  9.000E+00
       1     1     1     2   502     0  3.359045414E+02 -2.168377085E+02 -9.812351156E+02  1.059562554E+03  1.525878906E-05  0.00000E+00  9.000E+00
#rwgt            1           1   2.7193234009369655E-002           4       46148           0
</event>
<event>
      5   9999  3.19816E-02  6.27457E+01 -1.00000E+00  1.33673E-01
      21    -1     0     0   502   501  0.000000000E+00  0.000000000E+00  1.142451204E+03  1.142451204E+03  0.000000000E+00  0.00000E+00  9.000E+00
      21    -1     0     0   511   502  0.000000000E+00  0.000000000E+00 -5.675082351E+02  5.675082351E+02  0.000000000E+00  0.00000E+00  9.000E+00
      25     1     1     2     0     0 -3.586865712E+02  5.801369002E+02  3.251503334E+02  7.658737616E+02  1.250000000E+02  0.00000E+00  9.000E+00
      25     1     1     2     0     0  4.135745105E+02 -5.497339471E+02  3.827232213E+02  7.970905547E+02  1.250000000E+02  0.00000E+00  9.000E+00
      21     1     1     2   511   501 -5.488793937E+01 -3.040295315E+01 -1.329305859E+02  1.469951228E+02  0.000000000E+00  0.00000E+00  9.000E+00
#rwgt            1           1   2.9307628039643957E-002           4       46185           0
</event>
<event>
      5   9999  3.19816E-02  2.06849E+02 -1.00000E+00  1.11118E-01
      21    -1     0     0   502   501  0.000000000E+00  0.000000000E+00  4.418476672E+02  4.418476672E+02  0.000000000E+00  0.00000E+00  9.000E+00
      21    -1     0     0   512   502  0.000000000E+00  0.000000000E+00 -9.027226745E+02  9.027226745E+02  0.000000000E+00  0.00000E+00  9.000E+00
      25     1     1     2     0     0  8.988559341E+00 -1.904120051E+02 -1.116076873E+02  2.538085927E+02  1.250000000E+02  0.00000E+00  9.000E+00
      25     1     1     2     0     0  1.815345857E+02  2.709575848E+02  2.676827963E+02  4.400589710E+02  1.250000000E+02  0.00000E+00  9.000E+00
      21     1     1     2   512   501 -1.905231450E+02 -8.054557972E+01 -6.169501163E+02  6.507027779E+02  7.629394531E-06  0.00000E+00  9.000E+00
#rwgt            1           1   2.4566569150065064E-002           4       46291           0
</event>
<event>
      5   9999  3.19816E-02  7.85993E+00 -1.00000E+00  2.08679E-01
      21    -1     0     0   502   501  0.000000000E+00  0.000000000E+00  3.342768897E+02  3.342768897E+02  0.000000000E+00  0.00000E+00  9.000E+00
      21    -1     0     0   511   502  0.000000000E+00  0.000000000E+00 -1.007823528E+03  1.007823528E+03  0.000000000E+00  0.00000E+00  9.000E+00
      25     1     1     2     0     0  1.954590879E+02 -4.298061706E+02 -6.589487508E+02  8.202292701E+02  1.250000000E+02  0.00000E+00  9.000E+00
      25     1     1     2     0     0 -1.991756479E+02  4.367318976E+02  9.930496216E+00  4.961142045E+02  1.250000000E+02  0.00000E+00  9.000E+00
      21     1     1     2   511   501  3.716560040E+00 -6.925727044E+00 -2.452838351E+01  2.575694297E+01  3.371747881E-07  0.00000E+00  9.000E+00
#rwgt            1           1   2.9912472781296197E-002           4       46363           0
</event>
<event>
      5   9999  3.19816E-02  5.44338E+01 -1.00000E+00  1.37002E-01
      21    -1     0     0   502   501  0.000000000E+00  0.000000000E+00  2.161720960E+02  2.161720960E+02  0.000000000E+00  0.00000E+00  9.000E+00
      21    -1     0     0   501   512  0.000000000E+00  0.000000000E+00 -1.364172998E+03  1.364172998E+03  0.000000000E+00  0.00000E+00  9.000E+00
      25     1     1     2     0     0 -4.131269041E+02  2.042815299E+02 -2.568793218E+02  5.422331310E+02  1.250000000E+02  0.00000E+00  9.000E+00
      25     1     1     2     0     0  4.337393828E+02 -1.539013023E+02 -7.772359173E+02  9.118860314E+02  1.250000000E+02  0.00000E+00  9.000E+00
      21     1     1     2   502   512 -2.061247867E+01 -5.038022752E+01 -1.138856634E+02  1.262259320E+02  2.336015456E-06  0.00000E+00  9.000E+00
#rwgt            1           1   3.1144967092982669E-002           4       46586           0
</event>
<event>
      5   9999  3.19816E-02  1.20368E+02 -1.00000E+00  1.20312E-01
      21    -1     0     0   511   501  0.000000000E+00  0.000000000E+00  6.908835185E+02  6.908835185E+02  0.000000000E+00  0.00000E+00  9.000E+00
      21    -1     0     0   501   502  0.000000000E+00  0.000000000E+00 -2.516602938E+02  2.516602938E+02  0.000000000E+00  0.00000E+00  9.000E+00
      25     1     1     2     0     0  1.154597198E+01 -2.351840965E+02  1.466539190E+01  2.669924015E+02  1.250000000E+02  0.00000E+00  9.000E+00
      25     1     1     2     0     0 -8.362761188E+01  1.387853135E+02 -2.864088654E+01  2.066403665E+02  1.250000000E+02  0.00000E+00  9.000E+00
      21     1     1     2   511   502  7.208163990E+01  9.639878307E+01  4.531987194E+02  4.689110443E+02  5.394796609E-06  0.00000E+00  9.000E+00
#rwgt            1           1   2.5947127284310430E-002           4       46690           0
</event>
<event>
      5   9999  3.19816E-02  1.78981E+02 -1.00000E+00  1.13432E-01
      21    -1     0     0   502   501  0.000000000E+00  0.000000000E+00  1.182173742E+02  1.182173742E+02  0.000000000E+00  0.00000E+00  9.000E+00
       1    -1     0     0   501     0  0.000000000E+00  0.000000000E+00 -1.584337194E+03  1.584337194E+03  0.000000000E+00  0.00000E+00  9.000E+00
      25     1     1     2     0     0 -1.547931528E+02 -5.530364885E+00 -3.810934083E+01  2.026544521E+02  1.250000000E+02  0.00000E+00  9.000E+00
      25     1     1     2     0     0  1.774213499E+02 -1.720140797E+02 -7.836162606E+02  8.311116789E+02  1.250000000E+02  0.00000E+00  9.000E+00
       1     1     1     2   502     0 -2.262819705E+01  1.775444445E+02 -6.443942179E+02  6.687884368E+02  7.629394531E-06  0.00000E+00  9.000E+00
#rwgt            1           1   3.2347314307940092E-002           4       46758           0
</event>
<event>
      5   9999  3.19816E-02  3.04294E+01 -1.00000E+00  1.52612E-01
      21    -1     0     0   502   501  0.000000000E+00  0.000000000E+00  7.411252625E+02  7.411252625E+02  0.000000000E+00  0.00000E+00  9.000E+00
      21    -1     0     0   501   511  0.000000000E+00  0.000000000E+00 -3.472488713E+02  3.472488713E+02  0.000000000E+00  0.00000E+00  9.000E+00
      25     1     1     2     0     0  4.508058096E+02 -9.689284076E+01  3.323992015E+01  4.788987292E+02  1.250000000E+02  0.00000E+00  9.000E+00
      25     1     1     2     0     0 -4.227060735E+02  1.085698983E+02  3.594059221E+02  5.790211259E+02  1.250000000E+02  0.00000E+00  9.000E+00
      21     1     1     2   502   511 -2.809973609E+01 -1.167705758E+01  1.230548969E+00  3.045427873E+01  2.972772322E-07  0.00000E+00  9.000E+00
#rwgt            1           1   3.0004242928782777E-002           4       46806           0
</event>
<event>
      5   9999  3.19816E-02  1.14289E+02 -1.00000E+00  1.21274E-01
      21    -1     0     0   502   501  0.000000000E+00  0.000000000E+00  3.781470633E+02  3.781470633E+02  0.000000000E+00  0.00000E+00  9.000E+00
      21    -1     0     0   512   502  0.000000000E+00  0.000000000E+00 -1.566537217E+03  1.566537217E+03  0.000000000E+00  0.00000E+00  9.000E+00
      25     1     1     2     0     0 -3.979440642E+02  3.562672024E+02  8.362577319E+01  5.548910413E+02  1.250000000E+02  0.00000E+00  9.000E+00
      25     1     1     2     0     0  3.140754743E+02 -2.786267714E+02 -1.091654610E+03  1.176269981E+03  1.250000000E+02  0.00000E+00  9.000E+00
      21     1     1     2   512   501  8.386858989E+01 -7.764043102E+01 -1.803613164E+02  2.135232571E+02  3.814697266E-06  0.00000E+00  9.000E+00
#rwgt            1           1   2.5810453044594901E-002           4       47028           0
</event>
<event>
      5   9999  3.19816E-02  2.88925E+01 -1.00000E+00  1.54183E-01
      21    -1     0     0   502   501  0.000000000E+00  0.000000000E+00  6.251000365E+02  6.251000365E+02  0.000000000E+00  0.00000E+00  9.000E+00
      21    -1     0     0   501   511  0.000000000E+00  0.000000000E+00 -1.121417390E+02  1.121417390E+02  0.000000000E+00  0.00000E+00  9.000E+00
      25     1     1     2     0     0 -7.530973834E+01 -1.776137505E+02  3.239360159E+02  3.972124663E+02  1.250000000E+02  0.00000E+00  9.000E+00
      25     1     1     2     0     0  6.906881365E+01  2.058241706E+02  1.836963390E+02  3.106500204E+02  1.250000000E+02  0.00000E+00  9.000E+00
      21     1     1     2   502   511  6.240924683E+00 -2.821042012E+01  5.325942546E+00  2.937928876E+01  2.858538343E-07  0.00000E+00  9.000E+00
#rwgt            1           1   2.8319047926612662E-002           4       47096           0
</event>
<event>
      5   9999  3.19816E-02  7.68886E+01 -1.00000E+00  1.29189E-01
      21    -1     0     0   502   501  0.000000000E+00  0.000000000E+00  1.394413429E+03  1.394413429E+03  0.000000000E+00  0.00000E+00  9.000E+00
       5    -1     0     0   501     0  0.000000000E+00  0.000000000E+00 -1.623407124E+02  1.623407124E+02  0.000000000E+00  0.00000E+00  9.000E+00
      25     1     1     2     0     0 -5.278448505E+01 -5.665548337E+01  1.269774524E+03  1.278259906E+03  1.250000000E+02  0.00000E+00  9.000E+00
      25     1     1     2     0     0  9.117986066E+01  1.232712292E+02 -3.881980896E+01  2.015974715E+02  1.250000000E+02  0.00000E+00  9.000E+00
       5     1     1     2   502     0 -3.839537561E+01 -6.661574585E+01  1.118002183E+00  7.689676451E+01  2.393480898E-07  0.00000E+00  9.000E+00
#rwgt            1           1   3.1926709377077575E-002           4       47235           0
</event>
<event>
      5   9999  3.19816E-02  9.70784E+02 -1.00000E+00  9.13014E-02
      21    -1     0     0   502   501  0.000000000E+00  0.000000000E+00  1.473990519E+03  1.473990519E+03  0.000000000E+00  0.00000E+00  9.000E+00
      21    -1     0     0   511   502  0.000000000E+00  0.000000000E+00 -7.977122899E+02  7.977122899E+02  0.000000000E+00  0.00000E+00  9.000E+00
      25     1     1     2     0     0  1.959617303E+02 -6.379460533E+02  3.915871588E+02  7.837995086E+02  1.250000000E+02  0.00000E+00  9.000E+00
      25     1     1     2     0     0 -3.424044723E+02 -3.217291052E+02  4.705003233E+01  4.884558786E+02  1.250000000E+02  0.00000E+00  9.000E+00
      21     1     1     2   511   501  1.464427421E+02  9.596751585E+02  2.376410385E+02  9.994474222E+02  7.629394531E-06  0.00000E+00  9.000E+00
#rwgt            2          11   1.3170678006486931E-003           4       47409           0
</event>
<event>
      5   9999  3.19816E-02  2.04615E+02 -1.00000E+00  1.11289E-01
      21    -1     0     0   502   501  0.000000000E+00  0.000000000E+00  4.193870472E+02  4.193870472E+02  0.000000000E+00  0.00000E+00  9.000E+00
      21    -1     0     0   501   512  0.000000000E+00  0.000000000E+00 -1.694155909E+03  1.694155909E+03  0.000000000E+00  0.00000E+00  9.000E+00
      25     1     1     2     0     0  3.497874467E+02 -2.686228561E+02 -3.259899657E+02  5.624979594E+02  1.250000000E+02  0.00000E+00  9.000E+00
      25     1     1     2     0     0 -1.707341074E+02  1.695923151E+02  2.294237803E+02  3.552069253E+02  1.250000000E+02  0.00000E+00  9.000E+00
      21     1     1     2   502   512 -1.790533392E+02  9.903054093E+01 -1.178202676E+03  1.195838071E+03  0.000000000E+00  0.00000E+00  9.000E+00
#rwgt            1           1   2.6603925009530471E-002           4       47459           0
</event>
<event>
      5   9999  3.19816E-02  1.92468E+01 -1.00000E+00  1.67756E-01
      21    -1     0     0   502   501  0.000000000E+00  0.000000000E+00  1.078156353E+02  1.078156353E+02  0.000000000E+00  0.00000E+00  9.000E+00
      21    -1     0     0   511   502  0.000000000E+00  0.000000000E+00 -7.697761114E+02  7.697761114E+02  0.000000000E+00  0.00000E+00  9.000E+00
      25     1     1     2     0     0  3.583195397E+01  1.235500271E+02 -2.981795858E+01  1.818313745E+02  1.250000000E+02  0.00000E+00  9.000E+00
      25     1     1     2     0     0 -2.427620420E+01 -1.389417170E+02 -2.497335113E+02  3.128673225E+02  1.250000000E+02  0.00000E+00  9.000E+00
      21     1     1     2   511   501 -1.155574976E+01  1.539168996E+01 -3.824090062E+02  3.828930497E+02  5.394796609E-06  0.00000E+00  9.000E+00
#rwgt            1           1   2.5604551492805612E-002           4       47489           0
</event>
<event>
      5   9999  3.19816E-02  7.65216E+01 -1.00000E+00  1.29291E-01
      21    -1     0     0   512   501  0.000000000E+00  0.000000000E+00  5.029687544E+02  5.029687544E+02  0.000000000E+00  0.00000E+00  9.000E+00
      21    -1     0     0   501   502  0.000000000E+00  0.000000000E+00 -6.289800749E+02  6.289800749E+02  0.000000000E+00  0.00000E+00  9.000E+00
      25     1     1     2     0     0 -2.292404341E+02 -5.463547390E+01 -3.830385072E+02  4.667758666E+02  1.250000000E+02  0.00000E+00  9.000E+00
      25     1     1     2     0     0  1.988961362E+02 -1.561246136E+01 -1.311691363E+02  2.695065199E+02  1.250000000E+02  0.00000E+00  9.000E+00
      21     1     1     2   512   502  3.034429786E+01  7.024793526E+01  3.881963230E+02  3.956664429E+02  5.394796609E-06  0.00000E+00  9.000E+00
#rwgt            1           1   2.8624984383173756E-002           4       47625           0
</event>
<event>
      5   9999  3.19816E-02  5.74197E+00 -1.00000E+00  2.28478E-01
      21    -1     0     0   502   501  0.000000000E+00  0.000000000E+00  5.462295163E+01  5.462295163E+01  0.000000000E+00  0.00000E+00  9.000E+00
      21    -1     0     0   511   502  0.000000000E+00  0.000000000E+00 -5.358902737E+02  5.358902737E+02  0.000000000E+00  0.00000E+00  9.000E+00
      25     1     1     2     0     0  1.028196984E+02 -1.792250723E+01 -1.549962216E+02  2.248153361E+02  1.250000000E+02  0.00000E+00  9.000E+00
      25     1     1     2     0     0 -9.773383974E+01  1.525712218E+01 -3.160870789E+02  3.540066732E+02  1.250000000E+02  0.00000E+00  9.000E+00
      21     1     1     2   511   501 -5.085858699E+00  2.665385051E+00 -1.018402162E+01  1.169121605E+01  0.000000000E+00  0.00000E+00  9.000E+00
#rwgt            1           1   2.4894493473713628E-002           4       47703           0
</event>
<event>
      5   9999  3.19816E-02  1.24200E+02 -1.00000E+00  1.19738E-01
      21    -1     0     0   502   501  0.000000000E+00  0.000000000E+00  1.768971577E+02  1.768971577E+02  0.000000000E+00  0.00000E+00  9.000E+00
       2    -1     0     0   501     0  0.000000000E+00  0.000000000E+00 -1.832966195E+03  1.832966195E+03  0.000000000E+00  0.00000E+00  9.000E+00
      25     1     1     2     0     0  2.221729920E+02  2.049153087E+02 -2.155366925E+02  3.917042098E+02  1.250000000E+02  0.00000E+00  9.000E+00
      25     1     1     2     0     0 -1.393977593E+02 -2.975108626E+02 -2.757519863E+02  4.467757901E+02  1.250000000E+02  0.00000E+00  9.000E+00
       2     1     1     2   502     0 -8.277523266E+01  9.259555385E+01 -1.164780358E+03  1.171383353E+03  0.000000000E+00  0.00000E+00  9.000E+00
#rwgt            1           1   2.6787650358299428E-002           4       48096           0
</event>
<event>
      5   9999  3.19816E-02  5.10947E+01 -1.00000E+00  1.38541E-01
      21    -1     0     0   502   511  0.000000000E+00  0.000000000E+00  1.745753388E+02  1.745753388E+02  0.000000000E+00  0.00000E+00  9.000E+00
      21    -1     0     0   501   502  0.000000000E+00  0.000000000E+00 -9.789659396E+02  9.789659396E+02  0.000000000E+00  0.00000E+00  9.000E+00
      25     1     1     2     0     0 -1.720920527E+02 -2.543401649E+02 -7.074916815E+02  7.813284031E+02  1.250000000E+02  0.00000E+00  9.000E+00
      25     1     1     2     0     0  1.211234898E+02  2.507523234E+02 -9.950658238E+01  3.210516897E+02  1.250000000E+02  0.00000E+00  9.000E+00
      21     1     1     2   501   511  5.096856290E+01  3.587841475E+00  2.607663078E+00  5.116118565E+01  7.609811625E-07  0.00000E+00  9.000E+00
#rwgt            1           1   1.9566884171055319E-002           4       48226           0
</event>
<event>
      5   9999  3.19816E-02  6.88883E+00 -1.00000E+00  2.16541E-01
      21    -1     0     0   502   512  0.000000000E+00  0.000000000E+00  1.648470168E+03  1.648470168E+03  0.000000000E+00  0.00000E+00  9.000E+00
      21    -1     0     0   501   502  0.000000000E+00  0.000000000E+00 -1.393359734E+02  1.393359734E+02  0.000000000E+00  0.00000E+00  9.000E+00
      25     1     1     2     0     0 -4.664730185E+01 -3.170949388E+00 -9.431153577E+01  1.634187611E+02  1.250000000E+02  0.00000E+00  9.000E+00
      25     1     1     2     0     0  4.386702782E+01  9.473808367E+00  4.110877312E+02  4.320094813E+02  1.250000000E+02  0.00000E+00  9.000E+00
      21     1     1     2   501   512  2.780274027E+00 -6.302858979E+00  1.192357999E+03  1.192377899E+03  1.525878906E-05  0.00000E+00  9.000E+00
#rwgt            1           1   2.8782973438879221E-002           4       48345           0
</event>
<event>
      5   9999  3.19816E-02  4.36179E+02 -1.00000E+00  1.00567E-01
      21    -1     0     0   502   511  0.000000000E+00  0.000000000E+00  3.310405141E+03  3.310405141E+03  0.000000000E+00  0.00000E+00  9.000E+00
      21    -1     0     0   501   502  0.000000000E+00  0.000000000E+00 -1.636396263E+02  1.636396263E+02  0.000000000E+00  0.00000E+00  9.000E+00
      25     1     1     2     0     0 -3.265715659E+02  6.387531370E+01  2.395788702E+02  4.286631293E+02  1.250000000E+02  0.00000E+00  9.000E+00
      25     1     1     2     0     0 -1.068955993E+02 -1.124351564E+02  1.387282768E+02  2.427732859E+02  1.250000000E+02  0.00000E+00  9.000E+00
      21     1     1     2   501   511  4.334671652E+02  4.855984271E+01  2.768458368E+03  2.802608352E+03  0.000000000E+00  0.00000E+00  9.000E+00
#rwgt            1           1   1.7584036113605886E-002           4       48639           0
</event>
<event>
      5   9999  3.50617E-02  2.18802E+01 -1.00000E+00  1.63213E-01
      21    -1     0     0   512   501  0.000000000E+00  0.000000000E+00  2.478319500E+03  2.478319500E+03  0.000000000E+00  0.00000E+00  9.000E+00
      21    -1     0     0   501   502  0.000000000E+00  0.000000000E+00 -1.517945292E+01  1.517945292E+01  0.000000000E+00  0.00000E+00  9.000E+00
      25     1     1     2     0     0 -4.126432830E+01 -7.058837430E+01  4.992474608E+02  5.211127426E+02  1.250000000E+02  0.00000E+00  9.000E+00
      25     1     1     2     0     0  3.266415984E+01  9.070755446E+01  1.820820589E+03  1.827650794E+03  1.250000000E+02  0.00000E+00  9.000E+00
      21     1     1     2   512   502  8.600168457E+00 -2.011918016E+01  1.430719971E+02  1.447354161E+02  2.697398305E-06  0.00000E+00  9.000E+00
#rwgt            1           1   7.8668462896624075E-002           4       48677           0
</event>
<event>
      5   9999  3.19816E-02  1.64814E+01 -1.00000E+00  1.73615E-01
      21    -1     0     0   511   501  0.000000000E+00  0.000000000E+00  2.625988577E+02  2.625988577E+02  0.000000000E+00  0.00000E+00  9.000E+00
      21    -1     0     0   501   502  0.000000000E+00  0.000000000E+00 -2.990817175E+02  2.990817175E+02  0.000000000E+00  0.00000E+00  9.000E+00
      25     1     1     2     0     0  1.740098250E+02 -7.231090709E+01 -1.565460312E+02  2.750271739E+02  1.250000000E+02  0.00000E+00  9.000E+00
      25     1     1     2     0     0 -1.857905816E+02  8.383703860E+01  9.638068915E+01  2.578003617E+02  1.250000000E+02  0.00000E+00  9.000E+00
      21     1     1     2   511   502  1.178075653E+01 -1.152613152E+01  2.368248224E+01  2.885303965E+01  4.768371582E-07  0.00000E+00  9.000E+00
#rwgt            1           1   2.7502722600654190E-002           4       48806           0
</event>
<event>
      5   9999  3.19816E-02  1.20755E+01 -1.00000E+00  1.86742E-01
      21    -1     0     0   512   501  0.000000000E+00  0.000000000E+00  4.885722170E+01  4.885722170E+01  0.000000000E+00  0.00000E+00  9.000E+00
      21    -1     0     0   501   502  0.000000000E+00  0.000000000E+00 -9.010153075E+02  9.010153075E+02  0.000000000E+00  0.00000E+00  9.000E+00
      25     1     1     2     0     0  1.308558981E+02 -6.228743960E+01 -2.554549156E+02  3.191946195E+02  1.250000000E+02  0.00000E+00  9.000E+00
      25     1     1     2     0     0 -1.201345247E+02  6.784349842E+01 -5.848116858E+02  6.137301949E+02  1.250000000E+02  0.00000E+00  9.000E+00
      21     1     1     2   512   502 -1.072137338E+01 -5.556058824E+00 -1.189148442E+01  1.694771484E+01  2.384185791E-07  0.00000E+00  9.000E+00
#rwgt            1           1   3.2635496599144803E-002           4       49027           0
</event>
<event>
      5   9999  3.19816E-02  2.63121E+01 -1.00000E+00  1.57105E-01
      21    -1     0     0   502   501  0.000000000E+00  0.000000000E+00  1.836424995E+02  1.836424995E+02  0.000000000E+00  0.00000E+00  9.000E+00
      21    -1     0     0   511   502  0.000000000E+00  0.000000000E+00 -7.747872537E+02  7.747872537E+02  0.000000000E+00  0.00000E+00  9.000E+00
      25     1     1     2     0     0 -1.995610561E+02 -1.600012442E+01  7.008279676E+01  2.462056406E+02  1.250000000E+02  0.00000E+00  9.000E+00
      25     1     1     2     0     0  1.949924436E+02  4.191259694E+01 -6.214376354E+02  6.645212213E+02  1.250000000E+02  0.00000E+00  9.000E+00
      21     1     1     2   511   501  4.568612470E+00 -2.591247252E+01 -3.978991561E+01  4.770289128E+01  4.768371582E-07  0.00000E+00  9.000E+00
#rwgt            1           1   2.6765716695250238E-002           4       49177           0
</event>
<event>
      5   9999  3.19816E-02  3.23878E+01 -1.00000E+00  1.50765E-01
      21    -1     0     0   502   501  0.000000000E+00  0.000000000E+00  5.958519339E+01  5.958519339E+01  0.000000000E+00  0.00000E+00  9.000E+00
      21    -1     0     0   501   512  0.000000000E+00  0.000000000E+00 -1.208067202E+03  1.208067202E+03  0.000000000E+00  0.00000E+00  9.000E+00
      25     1     1     2     0     0  6.937405556E+01  1.848280662E+02 -6.920053399E+02  7.303906928E+02  1.250000000E+02  0.00000E+00  9.000E+00
      25     1     1     2     0     0 -3.769886074E+01 -1.780715686E+02 -2.738262901E+02  3.517620286E+02  1.250000000E+02  0.00000E+00  9.000E+00
      21     1     1     2   502   512 -3.167519482E+01 -6.756497647E+00 -1.826503784E+02  1.854996737E+02  2.697398305E-06  0.00000E+00  9.000E+00
#rwgt            1           1   2.6489379099858028E-002           4       49292           0
</event>
<event>
      5   9999  3.19816E-02  2.42182E+02 -1.00000E+00  1.08704E-01
      21    -1     0     0   511   501  0.000000000E+00  0.000000000E+00  4.594061520E+03  4.594061520E+03  0.000000000E+00  0.00000E+00  9.000E+00
      21    -1     0     0   501   502  0.000000000E+00  0.000000000E+00 -3.530328182E+02  3.530328182E+02  0.000000000E+00  0.00000E+00  9.000E+00
      25     1     1     2     0     0 -2.189681683E+02  1.037099538E+03  2.190852351E+03  2.437002572E+03  1.250000000E+02  0.00000E+00  9.000E+00
      25     1     1     2     0     0  3.045346120E+02 -8.105372184E+02  6.519416239E+02  1.091038401E+03  1.250000000E+02  0.00000E+00  9.000E+00
      21     1     1     2   511   502 -8.556644372E+01 -2.265623200E+02  1.398234727E+03  1.419053365E+03  1.525878906E-05  0.00000E+00  9.000E+00
#rwgt            1           1   2.5339228376436464E-002           4       49446           0
</event>
<event>
      5   9999  3.19816E-02  4.65569E+01 -1.00000E+00  1.40867E-01
      21    -1     0     0   512   501  0.000000000E+00  0.000000000E+00  7.675297195E+02  7.675297195E+02  0.000000000E+00  0.00000E+00  9.000E+00
      21    -1     0     0   501   502  0.000000000E+00  0.000000000E+00 -3.691400709E+03  3.691400709E+03  0.000000000E+00  0.00000E+00  9.000E+00
      25     1     1     2     0     0  4.989578794E+02 -1.941240708E+02 -3.844630645E+02  6.708799954E+02  1.250000000E+02  0.00000E+00  9.000E+00
      25     1     1     2     0     0 -4.915131399E+02  1.481662618E+02 -3.140763462E+03  3.184895373E+03  1.250000000E+02  0.00000E+00  9.000E+00
      21     1     1     2   512   502 -7.444739486E+00  4.595780897E+01  6.013555375E+02  6.031550604E+02  1.321449896E-05  0.00000E+00  9.000E+00
#rwgt            1           1   1.1750555030049665E-002           4       49499           0
</event>
<event>
      5   9999  3.19816E-02  1.83816E+02 -1.00000E+00  1.12999E-01
      21    -1     0     0   502   501  0.000000000E+00  0.000000000E+00  2.658116234E+02  2.658116234E+02  0.000000000E+00  0.00000E+00  9.000E+00
      21    -1     0     0   511   502  0.000000000E+00  0.000000000E+00 -5.986690720E+02  5.986690720E+02  0.000000000E+00  0.00000E+00  9.000E+00
      25     1     1     2     0     0  2.364980150E+02 -8.202421731E+01 -1.348974869E+02  3.106148987E+02  1.250000000E+02  0.00000E+00  9.000E+00
      25     1     1     2     0     0 -1.567288521E+02  2.476299281E+02 -6.040836705E+01  3.242817990E+02  1.250000000E+02  0.00000E+00  9.000E+00
      21     1     1     2   511   501 -7.976916296E+01 -1.656057108E+02 -1.375515947E+02  2.295839977E+02  5.046370146E-06  0.00000E+00  9.000E+00
#rwgt            1           1   2.7987134486777365E-002           4       49637           0
</event>
<event>
      5   9999  3.19816E-02  1.18868E+02 -1.00000E+00  1.20543E-01
      21    -1     0     0   502   501  0.000000000E+00  0.000000000E+00  1.358243647E+02  1.358243647E+02  0.000000000E+00  0.00000E+00  9.000E+00
      21    -1     0     0   501   512  0.000000000E+00  0.000000000E+00 -8.455731711E+02  8.455731711E+02  0.000000000E+00  0.00000E+00  9.000E+00
      25     1     1     2     0     0  1.463454501E+02 -1.037047737E+02 -3.257004520E+02  3.922721699E+02  1.250000000E+02  0.00000E+00  9.000E+00
      25     1     1     2     0     0 -2.290324635E+02  1.830854125E+01 -9.792788125E+01  2.792954385E+02  1.250000000E+02  0.00000E+00  9.000E+00
      21     1     1     2   502   512  8.268701337E+01  8.539623249E+01 -2.861204732E+02  3.098299274E+02  7.629394531E-06  0.00000E+00  9.000E+00
#rwgt            1           1   2.8736472517353898E-002           4       49672           0
</event>
<event>
      5   9999  3.19816E-02  1.01328E+02 -1.00000E+00  1.23571E-01
      21    -1     0     0   502   501  0.000000000E+00  0.000000000E+00  2.816890542E+02  2.816890542E+02  0.000000000E+00  0.00000E+00  9.000E+00
       2    -1     0     0   501     0  0.000000000E+00  0.000000000E+00 -1.153692311E+03  1.153692311E+03  0.000000000E+00  0.00000E+00  9.000E+00
      25     1     1     2     0     0 -4.002108603E+02 -4.461376863E+01 -2.189807847E+02  4.751175698E+02  1.250000000E+02  0.00000E+00  9.000E+00
      25     1     1     2     0     0  3.099646812E+02  9.068935564E+01 -5.131838296E+01  3.500874737E+02  1.250000000E+02  0.00000E+00  9.000E+00
       2     1     1     2   502     0  9.024617906E+01 -4.607558700E+01 -6.017040890E+02  6.101763215E+02  0.000000000E+00  0.00000E+00  9.000E+00
#rwgt            1           1   2.7794892750032631E-002           4       49728           0
</event>
<event>
      5   9999  3.19816E-02  1.03993E+02 -1.00000E+00  1.23068E-01
       2    -1     0     0   502     0  0.000000000E+00  0.000000000E+00  2.303208271E+03  2.303208271E+03  0.000000000E+00  0.00000E+00  9.000E+00
      21    -1     0     0   501   502  0.000000000E+00  0.000000000E+00 -2.537266359E+02  2.537266359E+02  0.000000000E+00  0.00000E+00  9.000E+00
      25     1     1     2     0     0  5.281311070E+02  1.322199864E+02  3.455333572E+02  6.568279013E+02  1.250000000E+02  0.00000E+00  9.000E+00
      25     1     1     2     0     0 -4.734224230E+02 -4.378112538E+01  5.350851438E+02  7.266269254E+02  1.250000000E+02  0.00000E+00  9.000E+00
       2     1     1     2   501     0 -5.470868403E+01 -8.843886105E+01  1.168863134E+03  1.173480080E+03  2.157918644E-05  0.00000E+00  9.000E+00
#rwgt            1           1   2.7337627743940385E-002           4       49808           0
</event>
<event>
      5   9999  3.19816E-02  1.66663E+02 -1.00000E+00  1.14609E-01
      21    -1     0     0   511   501  0.000000000E+00  0.000000000E+00  8.472487249E+02  8.472487249E+02  0.000000000E+00  0.00000E+00  9.000E+00
      21    -1     0     0   501   502  0.000000000E+00  0.000000000E+00 -4.245859875E+02  4.245859875E+02  0.000000000E+00  0.00000E+00  9.000E+00
      25     1     1     2     0     0  1.050859717E+02 -2.545173475E+02 -2.233597547E+02  3.759477645E+02  1.250000000E+02  0.00000E+00  9.000E+00
      25     1     1     2     0     0 -1.153605359E+02  4.208629958E+02  4.796235122E+02  6.603767318E+02  1.250000000E+02  0.00000E+00  9.000E+00
      21     1     1     2   511   502  1.027456411E+01 -1.663456483E+02  1.663989799E+02  2.355102161E+02  0.000000000E+00  0.00000E+00  9.000E+00
#rwgt            1           1   3.1277436247499603E-002           4       49906           0
</event>
<event>
      5   9999  3.19816E-02  1.15973E+02 -1.00000E+00  1.21001E-01
       2    -1     0     0   502     0  0.000000000E+00  0.000000000E+00  2.675468544E+03  2.675468544E+03  0.000000000E+00  0.00000E+00  9.000E+00
      21    -1     0     0   501   502  0.000000000E+00  0.000000000E+00 -1.496108748E+02  1.496108748E+02  0.000000000E+00  0.00000E+00  9.000E+00
      25     1     1     2     0     0 -1.042082339E+02 -4.445265438E+02  7.599252090E+02  8.953069459E+02  1.250000000E+02  0.00000E+00  9.000E+00
      25     1     1     2     0     0  2.163381055E+02  4.741355734E+02  8.386881392E+02  9.953037289E+02  1.250000000E+02  0.00000E+00  9.000E+00
       2     1     1     2   501     0 -1.121298716E+02 -2.960902962E+01  9.272443211E+02  9.344687442E+02  0.000000000E+00  0.00000E+00  9.000E+00
#rwgt            1           1   2.7833092029491035E-002           4       49964           0
</event>
<event>
      5   9999  3.19816E-02  1.66463E+02 -1.00000E+00  1.14629E-01
      21    -1     0     0   502   501  0.000000000E+00  0.000000000E+00  1.661640955E+02  1.661640955E+02  0.000000000E+00  0.00000E+00  9.000E+00
      21    -1     0     0   501   511  0.000000000E+00  0.000000000E+00 -1.192123379E+03  1.192123379E+03  0.000000000E+00  0.00000E+00  9.000E+00
      25     1     1     2     0     0 -1.322293170E+01 -3.672713158E+01 -7.124908697E+02  7.244252670E+02  1.250000000E+02  0.00000E+00  9.000E+00
      25     1     1     2     0     0 -8.811184814E+01  1.687923856E+02  5.079432737E+01  2.333658735E+02  1.250000000E+02  0.00000E+00  9.000E+00
      21     1     1     2   502   511  1.013347798E+02 -1.320652540E+02 -3.642627415E+02  4.004963343E+02  5.394796609E-06  0.00000E+00  9.000E+00
#rwgt            1           1   2.8073114571708725E-002           4       50047           0
</event>
<event>
      5   9999  3.19816E-02  6.38245E+01 -1.00000E+00  1.33285E-01
      21    -1     0     0   502   501  0.000000000E+00  0.000000000E+00  5.174415892E+01  5.174415892E+01  0.000000000E+00  0.00000E+00  9.000E+00
       2    -1     0     0   501     0  0.000000000E+00  0.000000000E+00 -3.026803850E+03  3.026803850E+03  0.000000000E+00  0.00000E+00  9.000E+00
      25     1     1     2     0     0  1.469973305E+02  2.531671698E+01 -3.408855615E+02  3.925265817E+02  1.250000000E+02  0.00000E+00  9.000E+00
      25     1     1     2     0     0 -1.659406713E+02 -8.626521843E+01 -4.715741521E+02  5.224798324E+02  1.250000000E+02  0.00000E+00  9.000E+00
       2     1     1     2   502     0  1.894334078E+01  6.094850145E+01 -2.162599978E+03  2.163541595E+03  5.285799584E-05  0.00000E+00  9.000E+00
#rwgt            1           1   3.1527568449498694E-002           4       50118           0
</event>
<event>
      5   9999  3.19816E-02  5.43513E+02 -1.00000E+00  9.78333E-02
      21    -1     0     0   502   501  0.000000000E+00  0.000000000E+00  5.721849939E+02  5.721849939E+02  0.000000000E+00  0.00000E+00  9.000E+00
       2    -1     0     0   501     0  0.000000000E+00  0.000000000E+00 -2.751275282E+03  2.751275282E+03  0.000000000E+00  0.00000E+00  9.000E+00
      25     1     1     2     0     0  4.664211596E+02  4.279038851E+02  5.958980741E+01  6.479401038E+02  1.250000000E+02  0.00000E+00  9.000E+00
      25     1     1     2     0     0 -7.867328951E+02  1.119408075E+01 -7.637582900E+02  1.103642008E+03  1.250000000E+02  0.00000E+00  9.000E+00
       2     1     1     2   502     0  3.203117355E+02 -4.390979658E+02 -1.474921805E+03  1.571878164E+03  0.000000000E+00  0.00000E+00  9.000E+00
#rwgt            1           1   3.1245186406296400E-002           4       50209           0
</event>
<event>
      5   9999  3.19816E-02  5.56325E+01 -1.00000E+00  1.36481E-01
      21    -1     0     0   502   501  0.000000000E+00  0.000000000E+00  6.836840852E+02  6.836840852E+02  0.000000000E+00  0.00000E+00  9.000E+00
      21    -1     0     0   501   511  0.000000000E+00  0.000000000E+00 -1.265273481E+02  1.265273481E+02  0.000000000E+00  0.00000E+00  9.000E+00
      25     1     1     2     0     0 -7.804426028E+01  1.561920436E+02  4.472514741E+02  4.961307712E+02  1.250000000E+02  0.00000E+00  9.000E+00
      25     1     1     2     0     0  1.333305346E+02 -1.499951675E+02  7.349555705E+01  2.475927677E+02  1.250000000E+02  0.00000E+00  9.000E+00
      21     1     1     2   502   511 -5.528627434E+01 -6.196876165E+00  3.640970596E+01  6.648789434E+01  1.066240300E-06  0.00000E+00  9.000E+00
#rwgt            1           1   2.9052346852987802E-002           4       50261           0
</event>
<event>
      5   9999  3.19816E-02  1.50674E+02 -1.00000E+00  1.16316E-01
      21    -1     0     0   502   512  0.000000000E+00  0.000000000E+00  2.859256407E+03  2.859256407E+03  0.000000000E+00  0.00000E+00  9.000E+00
      21    -1     0     0   501   502  0.000000000E+00  0.000000000E+00 -2.920412224E+02  2.920412224E+02  0.000000000E+00  0.00000E+00  9.000E+00
      25     1     1     2     0     0 -1.926571830E+02 -5.865347644E+02  4.200079768E+02  7.570809208E+02  1.250000000E+02  0.00000E+00  9.000E+00
      25     1     1     2     0     0  2.779458762E+02  7.107466712E+02  1.150911771E+03  1.386592098E+03  1.250000000E+02  0.00000E+00  9.000E+00
      21     1     1     2   501   512 -8.528869322E+01 -1.242119067E+02  9.962954367E+02  1.007624611E+03  1.078959322E-05  0.00000E+00  9.000E+00
#rwgt            1           1   3.5645045608017324E-002           4       50327           0
</event>
<event>
      5   9999  3.19816E-02  3.55247E+01 -1.00000E+00  1.48110E-01
      21    -1     0     0   511   501  0.000000000E+00  0.000000000E+00  1.119019512E+03  1.119019512E+03  0.000000000E+00  0.00000E+00  9.000E+00
      21    -1     0     0   501   502  0.000000000E+00  0.000000000E+00 -5.751335045E+01  5.751335045E+01  0.000000000E+00  0.00000E+00  9.000E+00
      25     1     1     2     0     0 -7.927588079E+01  6.255490953E+01  4.650356262E+02  4.920171903E+02  1.250000000E+02  0.00000E+00  9.000E+00
      25     1     1     2     0     0  7.858701605E+01 -2.703686178E+01  8.637294327E+01  1.731825520E+02  1.250000000E+02  0.00000E+00  9.000E+00
      21     1     1     2   511   502  6.888647420E-01 -3.551804775E+01  5.100975923E+02  5.113331203E+02  0.000000000E+00  0.00000E+00  9.000E+00
#rwgt            1           1   3.0656717277359316E-002           4       50412           0
</event>
<event>
      5   9999  3.19816E-02  2.54147E+01 -1.00000E+00  1.58218E-01
      21    -1     0     0   502   501  0.000000000E+00  0.000000000E+00  2.052760713E+02  2.052760713E+02  0.000000000E+00  0.00000E+00  9.000E+00
      21    -1     0     0   501   512  0.000000000E+00  0.000000000E+00 -5.822344619E+02  5.822344619E+02  0.000000000E+00  0.00000E+00  9.000E+00
      25     1     1     2     0     0  1.115544874E+02  6.499087387E+01 -2.442724223E+02  3.032527554E+02  1.250000000E+02  0.00000E+00  9.000E+00
      25     1     1     2     0     0 -1.369181866E+02 -6.659988974E+01  1.197558958E+02  2.305398224E+02  1.250000000E+02  0.00000E+00  9.000E+00
      21     1     1     2   502   512  2.536369924E+01  1.609015871E+00 -2.524418641E+02  2.537179554E+02  4.672030912E-06  0.00000E+00  9.000E+00
#rwgt            1           1   2.6337019690243935E-002           4       50527           0
</event>
<event>
      5   9999  3.19816E-02  1.09688E+02 -1.00000E+00  1.22048E-01
      21    -1     0     0   502   501  0.000000000E+00  0.000000000E+00  1.948357163E+03  1.948357163E+03  0.000000000E+00  0.00000E+00  9.000E+00
      21    -1     0     0   501   511  0.000000000E+00  0.000000000E+00 -3.155541103E+02  3.155541103E+02  0.000000000E+00  0.00000E+00  9.000E+00
      25     1     1     2     0     0 -1.336670163E+01 -5.778739607E+02  9.918494759E+02  1.154775894E+03  1.250000000E+02  0.00000E+00  9.000E+00
      25     1     1     2     0     0 -8.117360867E+01  5.222538585E+02  7.684181299E+02  9.409727253E+02  1.250000000E+02  0.00000E+00  9.000E+00
      21     1     1     2   502   511  9.454031029E+01  5.562010228E+01 -1.274645527E+02  1.681626541E+02  5.223489356E-06  0.00000E+00  9.000E+00
#rwgt            2          11   3.9817150759566215E-003           4       50753           0
</event>
<event>
      5   9999  3.19816E-02  1.49764E+01 -1.00000E+00  1.77448E-01
      21    -1     0     0   502   501  0.000000000E+00  0.000000000E+00  1.111975917E+03  1.111975917E+03  0.000000000E+00  0.00000E+00  9.000E+00
      21    -1     0     0   512   502  0.000000000E+00  0.000000000E+00 -3.621140538E+02  3.621140538E+02  0.000000000E+00  0.00000E+00  9.000E+00
      25     1     1     2     0     0  1.712707509E+02  5.370926047E+01  5.124167870E+02  5.571483809E+02  1.250000000E+02  0.00000E+00  9.000E+00
      25     1     1     2     0     0 -1.791042520E+02 -4.094489022E+01  5.556227676E+02  5.984116284E+02  1.250000000E+02  0.00000E+00  9.000E+00
      21     1     1     2   512   501  7.833501045E+00 -1.276437025E+01 -3.181776915E+02  3.185299613E+02  3.814697266E-06  0.00000E+00  9.000E+00
#rwgt            1           1   2.8908930813775272E-002           4       50773           0
</event>
<event>
      5   9999  3.19816E-02  7.20423E+01 -1.00000E+00  1.30591E-01
      21    -1     0     0   502   501  0.000000000E+00  0.000000000E+00  7.460170972E+02  7.460170972E+02  0.000000000E+00  0.00000E+00  9.000E+00
      21    -1     0     0   511   502  0.000000000E+00  0.000000000E+00 -5.727629395E+02  5.727629395E+02  0.000000000E+00  0.00000E+00  9.000E+00
      25     1     1     2     0     0 -5.773166640E+02  8.264888403E+01 -1.252182966E+02  6.094505643E+02  1.250000000E+02  0.00000E+00  9.000E+00
      25     1     1     2     0     0  5.079924437E+02 -6.304669157E+01  3.391068501E+02  6.266176377E+02  1.250000000E+02  0.00000E+00  9.000E+00
      21     1     1     2   511   501  6.932422033E+01 -1.960219246E+01 -4.063439574E+01  8.271183465E+01  8.259061849E-07  0.00000E+00  9.000E+00
#rwgt            1           1   2.5688017209700265E-002           4       51011           0
</event>
<event>
      5   9999  3.19816E-02  2.72347E+01 -1.00000E+00  1.56015E-01
      21    -1     0     0   512   501  0.000000000E+00  0.000000000E+00  8.742645617E+01  8.742645617E+01  0.000000000E+00  0.00000E+00  9.000E+00
      21    -1     0     0   501   502  0.000000000E+00  0.000000000E+00 -6.811148747E+02  6.811148747E+02  0.000000000E+00  0.00000E+00  9.000E+00
      25     1     1     2     0     0 -1.461199103E+02 -9.969235372E+01 -3.475664213E+02  4.095326737E+02  1.250000000E+02  0.00000E+00  9.000E+00
      25     1     1     2     0     0  1.489544085E+02  1.267791118E+02 -2.325483079E+02  3.285788711E+02  1.250000000E+02  0.00000E+00  9.000E+00
      21     1     1     2   512   502 -2.834498254E+00 -2.708675805E+01 -1.357368928E+01  3.042978611E+01  2.384185791E-07  0.00000E+00  9.000E+00
#rwgt            1           1   3.0004894436615817E-002           4       51134           0
</event>
<event>
      5   9999  3.19816E-02  6.66259E+01 -1.00000E+00  1.32317E-01
      21    -1     0     0   511   501  0.000000000E+00  0.000000000E+00  8.197955555E+02  8.197955555E+02  0.000000000E+00  0.00000E+00  9.000E+00
      21    -1     0     0   501   502  0.000000000E+00  0.000000000E+00 -6.223521065E+02  6.223521065E+02  0.000000000E+00  0.00000E+00  9.000E+00
      25     1     1     2     0     0  4.952260965E+02 -4.124084669E+02 -7.727756392E+01  6.610041241E+02  1.250000000E+02  0.00000E+00  9.000E+00
      25     1     1     2     0     0 -4.521986103E+02  4.632773115E+02  2.204817558E+02  6.952313681E+02  1.250000000E+02  0.00000E+00  9.000E+00
      21     1     1     2   511   502 -4.302748615E+01 -5.086884459E+01  5.423925714E+01  8.591216986E+01  1.348699152E-06  0.00000E+00  9.000E+00
#rwgt            1           1   3.1393875995637248E-002           4       51236           0
</event>
<event>
      5   9999  3.19816E-02  1.10709E+02 -1.00000E+00  1.21873E-01
      21    -1     0     0   502   512  0.000000000E+00  0.000000000E+00  5.134275434E+02  5.134275434E+02  0.000000000E+00  0.00000E+00  9.000E+00
      21    -1     0     0   501   502  0.000000000E+00  0.000000000E+00 -1.636511290E+02  1.636511290E+02  0.000000000E+00  0.00000E+00  9.000E+00
      25     1     1     2     0     0 -1.789285711E+02  3.853906241E+01  1.038394357E+02  2.447617644E+02  1.250000000E+02  0.00000E+00  9.000E+00
      25     1     1     2     0     0  1.415205333E+02 -1.427364818E+02  1.225487416E+02  2.665426019E+02  1.250000000E+02  0.00000E+00  9.000E+00
      21     1     1     2   501   512  3.740803781E+01  1.041974194E+02  1.233882372E+02  1.657743061E+02  1.348699152E-06  0.00000E+00  9.000E+00
#rwgt            1           1   2.9115306250581157E-002           4       51375           0
</event>
<event>
      5   9999  3.19816E-02  2.10958E+01 -1.00000E+00  1.64480E-01
      21    -1     0     0   502   501  0.000000000E+00  0.000000000E+00  1.503943357E+02  1.503943357E+02  0.000000000E+00  0.00000E+00  9.000E+00
      21    -1     0     0   511   502  0.000000000E+00  0.000000000E+00 -3.519676680E+02  3.519676680E+02  0.000000000E+00  0.00000E+00  9.000E+00
      25     1     1     2     0     0  1.220944765E+02  2.388231707E+01  5.629795545E+01  1.851266757E+02  1.250000000E+02  0.00000E+00  9.000E+00
      25     1     1     2     0     0 -1.010288608E+02 -2.501053270E+01 -2.164831296E+02  2.707809130E+02  1.250000000E+02  0.00000E+00  9.000E+00
      21     1     1     2   511   501 -2.106561573E+01  1.128215628E+00 -4.138815819E+01  4.645441502E+01  8.259061849E-07  0.00000E+00  9.000E+00
#rwgt            1           1   2.9547866745768238E-002           4       51444           0
</event>
<event>
      5   9999  3.19816E-02  6.19635E+01 -1.00000E+00  1.33960E-01
      21    -1     0     0   502   501  0.000000000E+00  0.000000000E+00  2.091157085E+02  2.091157085E+02  0.000000000E+00  0.00000E+00  9.000E+00
       1    -1     0     0   501     0  0.000000000E+00  0.000000000E+00 -1.529292635E+03  1.529292635E+03  0.000000000E+00  0.00000E+00  9.000E+00
      25     1     1     2     0     0  3.679958923E+02 -1.394936577E+02 -1.833435505E+02  4.517956560E+02  1.250000000E+02  0.00000E+00  9.000E+00
      25     1     1     2     0     0 -3.310039360E+02  1.892034641E+02 -4.745512333E+02  6.214381944E+02  1.250000000E+02  0.00000E+00  9.000E+00
       1     1     1     2   502     0 -3.699195629E+01 -4.970980634E+01 -6.622821431E+02  6.651744934E+02  7.629394531E-06  0.00000E+00  9.000E+00
#rwgt            1           1   2.7220400900559574E-002           4       51586           0
</event>
<event>
      5   9999  3.19816E-02  3.71622E+01 -1.00000E+00  1.46850E-01
      21    -1     0     0   502   501  0.000000000E+00  0.000000000E+00  2.336236161E+02  2.336236161E+02  0.000000000E+00  0.00000E+00  9.000E+00
      21    -1     0     0   511   502  0.000000000E+00  0.000000000E+00 -9.001597944E+02  9.001597944E+02  0.000000000E+00  0.00000E+00  9.000E+00
      25     1     1     2     0     0  1.165744319E+02  2.814215895E+02 -6.570983111E+02  7.349768021E+02  1.250000000E+02  0.00000E+00  9.000E+00
      25     1     1     2     0     0 -8.868757757E+01 -2.568582994E+02  7.342667999E+01  3.079905027E+02  1.250000000E+02  0.00000E+00  9.000E+00
      21     1     1     2   511   501 -2.788685431E+01 -2.456329007E+01 -8.286454722E+01  9.081610567E+01  0.000000000E+00  0.00000E+00  9.000E+00
#rwgt            1           1   2.8683995386621131E-002           4       51653           0
</event>
<event>
      5   9999  3.19816E-02  9.43593E+01 -1.00000E+00  1.24973E-01
      21    -1     0     0   512   501  0.000000000E+00  0.000000000E+00  4.267970783E+02  4.267970783E+02  0.000000000E+00  0.00000E+00  9.000E+00
      21    -1     0     0   501   502  0.000000000E+00  0.000000000E+00 -1.333359220E+03  1.333359220E+03  0.000000000E+00  0.00000E+00  9.000E+00
      25     1     1     2     0     0  4.347342537E+02  4.244166117E+02 -4.861649769E+02  7.881019708E+02  1.250000000E+02  0.00000E+00  9.000E+00
      25     1     1     2     0     0 -3.407090554E+02 -4.323499161E+02 -5.654705360E+02  7.989937656E+02  1.250000000E+02  0.00000E+00  9.000E+00
      21     1     1     2   512   502 -9.402519835E+01  7.933304395E+00  1.450733709E+02  1.730605622E+02  4.264961200E-06  0.00000E+00  9.000E+00
#rwgt            1           1   2.2513293853212563E-002           4       51851           0
</event>
<event>
      5   9999  3.19816E-02  1.58610E+02 -1.00000E+00  1.15441E-01
      21    -1     0     0   502   511  0.000000000E+00  0.000000000E+00  3.617142056E+02  3.617142056E+02  0.000000000E+00  0.00000E+00  9.000E+00
      21    -1     0     0   501   502  0.000000000E+00  0.000000000E+00 -2.612643420E+03  2.612643420E+03  0.000000000E+00  0.00000E+00  9.000E+00
      25     1     1     2     0     0  7.098424833E+02 -6.142426220E+02 -1.183707140E+03  1.515901693E+03  1.250000000E+02  0.00000E+00  9.000E+00
      25     1     1     2     0     0 -5.536950574E+02  5.864000303E+02 -9.869837441E+02  1.280704932E+03  1.250000000E+02  0.00000E+00  9.000E+00
      21     1     1     2   501   511 -1.561474259E+02  2.784259162E+01 -8.023833035E+01  1.777510005E+02  2.523185073E-06  0.00000E+00  9.000E+00
#rwgt            1           1   3.6849487743381204E-002           4       51962           0
</event>
<event>
      5   9999  3.19816E-02  6.59951E+01 -1.00000E+00  1.32530E-01
      21    -1     0     0   502   501  0.000000000E+00  0.000000000E+00  7.385789894E+01  7.385789894E+01  0.000000000E+00  0.00000E+00  9.000E+00
      21    -1     0     0   501   512  0.000000000E+00  0.000000000E+00 -1.162321146E+03  1.162321146E+03  0.000000000E+00  0.00000E+00  9.000E+00
      25     1     1     2     0     0 -6.010428071E+01 -2.560044467E+01 -7.570027901E+01  1.600732319E+02  1.250000000E+02  0.00000E+00  9.000E+00
      25     1     1     2     0     0  5.505825147E+01 -4.020141451E+01 -1.361134724E+02  1.969757400E+02  1.250000000E+02  0.00000E+00  9.000E+00
      21     1     1     2   502   512  5.046029240E+00  6.580185917E+01 -8.766494953E+02  8.791300727E+02  1.525878906E-05  0.00000E+00  9.000E+00
#rwgt            1           1   1.8602727138063154E-002           4       52081           0
</event>
<event>
      5   9999  3.19816E-02  2.89641E+01 -1.00000E+00  1.54107E-01
      21    -1     0     0   502   511  0.000000000E+00  0.000000000E+00  6.076890943E+02  6.076890943E+02  0.000000000E+00  0.00000E+00  9.000E+00
      21    -1     0     0   501   502  0.000000000E+00  0.000000000E+00 -3.707967798E+02  3.707967798E+02  0.000000000E+00  0.00000E+00  9.000E+00
      25     1     1     2     0     0 -4.248384007E+01 -1.716418657E+02  4.570945642E+02  5.057926921E+02  1.250000000E+02  0.00000E+00  9.000E+00
      25     1     1     2     0     0  2.526414453E+01  1.483524090E+02 -3.165294706E+02  3.721056570E+02  1.250000000E+02  0.00000E+00  9.000E+00
      21     1     1     2   501   511  1.721969554E+01  2.328945673E+01  9.632722082E+01  1.005875250E+02  1.348699152E-06  0.00000E+00  9.000E+00
#rwgt            2          11   1.6274381979595283E-003           4       52176           0
</event>
<event>
      5   9999  3.19816E-02  6.84841E+01 -1.00000E+00  1.31704E-01
      21    -1     0     0   502   501  0.000000000E+00  0.000000000E+00  3.322637335E+02  3.322637335E+02  0.000000000E+00  0.00000E+00  9.000E+00
      21    -1     0     0   501   512  0.000000000E+00  0.000000000E+00 -4.385559118E+02  4.385559118E+02  0.000000000E+00  0.00000E+00  9.000E+00
      25     1     1     2     0     0  4.308221554E+01 -2.538435493E+02  8.168274442E+01  2.976402116E+02  1.250000000E+02  0.00000E+00  9.000E+00
      25     1     1     2     0     0 -1.074605303E+02  2.304873780E+02 -1.118482804E+01  2.835882532E+02  1.250000000E+02  0.00000E+00  9.000E+00
      21     1     1     2   502   512  6.437831472E+01  2.335617131E+01 -1.767900947E+02  1.895911805E+02  1.907348633E-06  0.00000E+00  9.000E+00
#rwgt            1           1   2.8789297208916924E-002           4       52196           0
</event>
<event>
      5   9999  3.19816E-02  3.60967E+01 -1.00000E+00  1.47661E-01
      21    -1     0     0   511   501  0.000000000E+00  0.000000000E+00  1.129609486E+03  1.129609486E+03  0.000000000E+00  0.00000E+00  9.000E+00
      21    -1     0     0   501   502  0.000000000E+00  0.000000000E+00 -2.836145723E+02  2.836145723E+02  0.000000000E+00  0.00000E+00  9.000E+00
      25     1     1     2     0     0 -4.277005966E+02 -1.577932155E+02  4.602869254E+02  6.597844746E+02  1.250000000E+02  0.00000E+00  9.000E+00
      25     1     1     2     0     0  4.135152753E+02  1.246006523E+02  9.377179791E+01  4.592802582E+02  1.250000000E+02  0.00000E+00  9.000E+00
      21     1     1     2   511   502  1.418532136E+01  3.319256318E+01  2.919361907E+02  2.941593259E+02  0.000000000E+00  0.00000E+00  9.000E+00
#rwgt            1           1   2.5805827199729861E-002           4       52288           0
</event>
<event>
      5   9999  3.19816E-02  6.26349E+01 -1.00000E+00  1.33713E-01
      21    -1     0     0   502   501  0.000000000E+00  0.000000000E+00  5.254324175E+02  5.254324175E+02  0.000000000E+00  0.00000E+00  9.000E+00
      21    -1     0     0   501   512  0.000000000E+00  0.000000000E+00 -1.516613857E+03  1.516613857E+03  0.000000000E+00  0.00000E+00  9.000E+00
      25     1     1     2     0     0 -6.539852526E+02 -1.569446627E+02  1.124120779E+01  6.841635057E+02  1.250000000E+02  0.00000E+00  9.000E+00
      25     1     1     2     0     0  6.896064738E+02  2.084641450E+02 -5.867143074E+02  9.374823022E+02  1.250000000E+02  0.00000E+00  9.000E+00
      21     1     1     2   502   512 -3.562122121E+01 -5.151948236E+01 -4.157083397E+02  4.204004664E+02  0.000000000E+00  0.00000E+00  9.000E+00
#rwgt            1           1   3.2667839639540765E-002           4       52393           0
</event>
<event>
      5   9999  3.19816E-02  8.10283E+00 -1.00000E+00  2.06948E-01
      21    -1     0     0   502   501  0.000000000E+00  0.000000000E+00  6.748173416E+01  6.748173416E+01  0.000000000E+00  0.00000E+00  9.000E+00
      21    -1     0     0   511   502  0.000000000E+00  0.000000000E+00 -1.761930371E+03  1.761930371E+03  0.000000000E+00  0.00000E+00  9.000E+00
      25     1     1     2     0     0  9.053065339E+00  1.878140672E+02 -1.713640612E+02  2.834549758E+02  1.250000000E+02  0.00000E+00  9.000E+00
      25     1     1     2     0     0 -6.224738700E+00 -1.954072521E+02 -1.170547255E+03  1.193326702E+03  1.250000000E+02  0.00000E+00  9.000E+00
      21     1     1     2   511   501 -2.828326640E+00  7.593184908E+00 -3.525373201E+02  3.526304269E+02  3.814697266E-06  0.00000E+00  9.000E+00
#rwgt            1           1   2.9911808264575828E-002           4       52485           0
</event>
<event>
      5   9999  3.19816E-02  7.81576E+01 -1.00000E+00  1.28841E-01
       1    -1     0     0   502     0  0.000000000E+00  0.000000000E+00  7.860157283E+02  7.860157283E+02  0.000000000E+00  0.00000E+00  9.000E+00
      21    -1     0     0   501   502  0.000000000E+00  0.000000000E+00 -2.977019701E+02  2.977019701E+02  0.000000000E+00  0.00000E+00  9.000E+00
      25     1     1     2     0     0  1.917858775E+02  5.858905566E+01 -1.795650062E+02  2.967879575E+02  1.250000000E+02  0.00000E+00  9.000E+00
      25     1     1     2     0     0 -2.188423110E+02 -1.319140658E+02  3.104981281E+02  4.211025592E+02  1.250000000E+02  0.00000E+00  9.000E+00
       1     1     1     2   501     0  2.705643349E+01  7.332501009E+01  3.573806363E+02  3.658271818E+02  3.814697266E-06  0.00000E+00  9.000E+00
#rwgt            1           1   2.8320485880344869E-002           4       52739           0
</event>
<event>
      5   9999  3.19816E-02  6.01508E+01 -1.00000E+00  1.34645E-01
      21    -1     0     0   502   511  0.000000000E+00  0.000000000E+00  3.399629613E+02  3.399629613E+02  0.000000000E+00  0.00000E+00  9.000E+00
      21    -1     0     0   501   502  0.000000000E+00  0.000000000E+00 -1.741097333E+02  1.741097333E+02  0.000000000E+00  0.00000E+00  9.000E+00
      25     1     1     2     0     0 -4.366726825E+01  1.337742034E+01 -9.254431051E+01  1.620963760E+02  1.250000000E+02  0.00000E+00  9.000E+00
      25     1     1     2     0     0  9.802437495E+01 -3.913450482E+01  2.373056503E+02  2.882347294E+02  1.250000000E+02  0.00000E+00  9.000E+00
      21     1     1     2   501   511 -5.435710670E+01  2.575708447E+01  2.109188810E+01  6.374158919E+01  8.259061849E-07  0.00000E+00  9.000E+00
#rwgt            1           1   2.6467927749397779E-002           4       52832           0
</event>
<event>
      5   9999  3.19816E-02  1.34424E+02 -1.00000E+00  1.18312E-01
      21    -1     0     0   502   501  0.000000000E+00  0.000000000E+00  3.252464373E+02  3.252464373E+02  0.000000000E+00  0.00000E+00  9.000E+00
      -1    -1     0     0     0   502  0.000000000E+00  0.000000000E+00 -1.984545474E+03  1.984545474E+03  0.000000000E+00  0.00000E+00  9.000E+00
      25     1     1     2     0     0 -1.469335426E+00 -2.001037133E+02  1.082874067E+02  2.596051184E+02  1.250000000E+02  0.00000E+00  9.000E+00
      25     1     1     2     0     0  1.178998328E+02  1.329196802E+02  5.383585958E+01  2.238108839E+02  1.250000000E+02  0.00000E+00  9.000E+00
      -1     1     1     2     0   501 -1.164304973E+02  6.718403306E+01 -1.821422303E+03  1.826375909E+03  2.157918644E-05  0.00000E+00  9.000E+00
#rwgt            1           1   3.0420302291290339E-002           4       52901           0
</event>
<event>
      5   9999  3.19816E-02  1.61426E+02 -1.00000E+00  1.15144E-01
      21    -1     0     0   502   511  0.000000000E+00  0.000000000E+00  9.448492395E+02  9.448492395E+02  0.000000000E+00  0.00000E+00  9.000E+00
      21    -1     0     0   501   502  0.000000000E+00  0.000000000E+00 -2.987386673E+02  2.987386673E+02  0.000000000E+00  0.00000E+00  9.000E+00
      25     1     1     2     0     0  3.531045102E+02 -1.871103209E+01 -3.297822526E+01  3.764909842E+02  1.250000000E+02  0.00000E+00  9.000E+00
      25     1     1     2     0     0 -3.086578817E+02  1.738973360E+02  4.392419367E+02  5.779865486E+02  1.250000000E+02  0.00000E+00  9.000E+00
      21     1     1     2   501   511 -4.444662857E+01 -1.551863039E+02  2.398468607E+02  2.891103739E+02  0.000000000E+00  0.00000E+00  9.000E+00
#rwgt            1           1   3.0095261504752252E-002           4       52987           0
</event>
<event>
      5   9999  3.19816E-02  1.88707E+01 -1.00000E+00  1.68479E-01
      21    -1     0     0   502   501  0.000000000E+00  0.000000000E+00  1.336035632E+03  1.336035632E+03  0.000000000E+00  0.00000E+00  9.000E+00
      -5    -1     0     0     0   502  0.000000000E+00  0.000000000E+00 -3.767932746E+02  3.767932746E+02  0.000000000E+00  0.00000E+00  9.000E+00
      25     1     1     2     0     0  3.018083256E+02 -9.639148037E+01  1.884990716E+02  3.892768718E+02  1.250000000E+02  0.00000E+00  9.000E+00
      25     1     1     2     0     0 -3.088185660E+02  1.139117203E+02  1.017179721E+03  1.076394153E+03  1.250000000E+02  0.00000E+00  9.000E+00
      -5     1     1     2     0   501  7.010240420E+00 -1.752023991E+01 -2.464364351E+02  2.471578824E+02  2.697398305E-06  0.00000E+00  9.000E+00
#rwgt            1           1   3.4775725301607663E-002           4       53025           0
</event>
<event>
      5   9999  3.19816E-02  6.02682E+01 -1.00000E+00  1.34600E-01
      21    -1     0     0   502   501  0.000000000E+00  0.000000000E+00  1.137516110E+03  1.137516110E+03  0.000000000E+00  0.00000E+00  9.000E+00
      21    -1     0     0   511   502  0.000000000E+00  0.000000000E+00 -8.641465966E+01  8.641465966E+01  0.000000000E+00  0.00000E+00  9.000E+00
      25     1     1     2     0     0  1.114775103E+02 -1.968762139E+02  7.548034090E+02  7.978349861E+02  1.250000000E+02  0.00000E+00  9.000E+00
      25     1     1     2     0     0 -1.372034580E+02  1.423745413E+02  2.775480947E+02  3.629782965E+02  1.250000000E+02  0.00000E+00  9.000E+00
      21     1     1     2   511   501  2.572594769E+01  5.450167263E+01  1.874994711E+01  6.311748744E+01  4.129530925E-07  0.00000E+00  9.000E+00
#rwgt            1           1   2.5242711990598663E-002           4       53166           0
</event>
<event>
      5   9999  3.19816E-02  3.67058E+01 -1.00000E+00  1.47194E-01
      21    -1     0     0   502   501  0.000000000E+00  0.000000000E+00  2.814093394E+03  2.814093394E+03  0.000000000E+00  0.00000E+00  9.000E+00
       2    -1     0     0   501     0  0.000000000E+00  0.000000000E+00 -7.753603353E+02  7.753603353E+02  0.000000000E+00  0.00000E+00  9.000E+00
      25     1     1     2     0     0 -1.764051723E+02  1.199019992E+02  1.018234459E+03  1.047817583E+03  1.250000000E+02  0.00000E+00  9.000E+00
      25     1     1     2     0     0  1.611057205E+02 -8.653665753E+01  1.773731197E+03  1.787509722E+03  1.250000000E+02  0.00000E+00  9.000E+00
       2     1     1     2   502     0  1.529945180E+01 -3.336534165E+01 -7.532325969E+02  7.541264246E+02  1.078959322E-05  0.00000E+00  9.000E+00
#rwgt            1           1   4.1451528592049661E-002           4       53251           0
</event>
<event>
      5   9999  3.19816E-02  6.58358E+01 -1.00000E+00  1.32584E-01
      21    -1     0     0   502   501  0.000000000E+00  0.000000000E+00  2.183135084E+03  2.183135084E+03  0.000000000E+00  0.00000E+00  9.000E+00
      21    -1     0     0   511   502  0.000000000E+00  0.000000000E+00 -5.393020866E+01  5.393020866E+01  0.000000000E+00  0.00000E+00  9.000E+00
      25     1     1     2     0     0  1.759228304E+02  1.902660597E+02  7.223963003E+02  7.775804977E+02  1.250000000E+02  0.00000E+00  9.000E+00
      25     1     1     2     0     0 -2.052321552E+02 -1.313142771E+02  1.331888190E+03  1.359748075E+03  1.250000000E+02  0.00000E+00  9.000E+00
      21     1     1     2   511   501  2.930932471E+01 -5.895178262E+01  7.492038475E+01  9.973671962E+01  9.536743164E-07  0.00000E+00  9.000E+00
#rwgt            2          11   8.8440340920078655E-003           4       53471           0
</event>
<event>
      5   9999  3.19816E-02  1.25473E+02 -1.00000E+00  1.19552E-01
      21    -1     0     0   502   501  0.000000000E+00  0.000000000E+00  8.952761437E+02  8.952761437E+02  0.000000000E+00  0.00000E+00  9.000E+00
      21    -1     0     0   512   502  0.000000000E+00  0.000000000E+00 -6.852099939E+02  6.852099939E+02  0.000000000E+00  0.00000E+00  9.000E+00
      25     1     1     2     0     0  3.200676302E+02 -4.039760192E+02 -1.132733502E+02  5.423059689E+02  1.250000000E+02  0.00000E+00  9.000E+00
      25     1     1     2     0     0 -3.424191773E+02  2.805098040E+02  5.872631166E+02  7.459487993E+02  1.250000000E+02  0.00000E+00  9.000E+00
      21     1     1     2   512   501  2.235154706E+01  1.234662152E+02 -2.639236164E+02  2.922313694E+02  3.814697266E-06  0.00000E+00  9.000E+00
#rwgt            1           1   2.8402961995508711E-002           4       53521           0
</event>
<event>
      5   9999  3.19816E-02  5.41862E+01 -1.00000E+00  1.37112E-01
      21    -1     0     0   502   501  0.000000000E+00  0.000000000E+00  1.863914240E+02  1.863914240E+02  0.000000000E+00  0.00000E+00  9.000E+00
      21    -1     0     0   511   502  0.000000000E+00  0.000000000E+00 -5.625076548E+02  5.625076548E+02  0.000000000E+00  0.00000E+00  9.000E+00
      25     1     1     2     0     0 -1.057408217E+02  8.463468700E+01 -3.670186508E+01  1.879259921E+02  1.250000000E+02  0.00000E+00  9.000E+00
      25     1     1     2     0     0  8.032727592E+01 -1.324917295E+02  1.761567729E+01  1.998545514E+02  1.250000000E+02  0.00000E+00  9.000E+00
      21     1     1     2   511   501  2.541354577E+01  4.785704252E+01 -3.570300430E+02  3.611185351E+02  5.394796609E-06  0.00000E+00  9.000E+00
#rwgt            1           1   2.6613431874055963E-002           4       53601           0
</event>
<event>
      5   9999  3.19816E-02  6.38457E+01 -1.00000E+00  1.33277E-01
      21    -1     0     0   502   501  0.000000000E+00  0.000000000E+00  1.226996376E+02  1.226996376E+02  0.000000000E+00  0.00000E+00  9.000E+00
      21    -1     0     0   512   502  0.000000000E+00  0.000000000E+00 -1.130609801E+03  1.130609801E+03  0.000000000E+00  0.00000E+00  9.000E+00
      25     1     1     2     0     0 -3.028942519E+02  1.545158648E+02 -5.000392261E+02  6.174822329E+02  1.250000000E+02  0.00000E+00  9.000E+00
      25     1     1     2     0     0  2.757992979E+02 -9.670465157E+01 -4.065250140E+02  5.160471193E+02  1.250000000E+02  0.00000E+00  9.000E+00
      21     1     1     2   512   501  2.709495402E+01 -5.781121322E+01 -1.013459229E+02  1.197800860E+02  1.907348633E-06  0.00000E+00  9.000E+00
#rwgt            1           1   2.8058713948097603E-002           4       53701           0
</event>
<event>
      5   9999  3.19816E-02  1.54252E+02 -1.00000E+00  1.15914E-01
       1    -1     0     0   502     0  0.000000000E+00  0.000000000E+00  8.944617821E+02  8.944617821E+02  0.000000000E+00  0.00000E+00  9.000E+00
      21    -1     0     0   501   502  0.000000000E+00  0.000000000E+00 -1.096127387E+02  1.096127387E+02  0.000000000E+00  0.00000E+00  9.000E+00
      25     1     1     2     0     0  1.315353956E+01  4.493377433E+01  1.910854089E+01  1.348413735E+02  1.250000000E+02  0.00000E+00  9.000E+00
      25     1     1     2     0     0  3.125043894E+01 -1.926567658E+02  3.031310391E+02  3.815843893E+02  1.250000000E+02  0.00000E+00  9.000E+00
       1     1     1     2   501     0 -4.440397850E+01  1.477229914E+02  4.626094634E+02  4.876487580E+02  5.394796609E-06  0.00000E+00  9.000E+00
#rwgt            1           1   2.6706288328538118E-002           4       53766           0
</event>
<event>
      5   9999  3.19816E-02  9.08550E+01 -1.00000E+00  1.25731E-01
      21    -1     0     0   502   501  0.000000000E+00  0.000000000E+00  1.413659409E+03  1.413659409E+03  0.000000000E+00  0.00000E+00  9.000E+00
      21    -1     0     0   511   502  0.000000000E+00  0.000000000E+00 -6.162372795E+01  6.162372795E+01  0.000000000E+00  0.00000E+00  9.000E+00
      25     1     1     2     0     0  9.558747060E+01  3.604426895E+01  9.511198093E+02  9.647227817E+02  1.250000000E+02  0.00000E+00  9.000E+00
      25     1     1     2     0     0 -1.710563039E+02  1.454319770E+01  2.076821756E+02  2.970330785E+02  1.250000000E+02  0.00000E+00  9.000E+00
      21     1     1     2   511   501  7.546883326E+01 -5.058746665E+01  1.932336963E+02  2.135272768E+02  4.672030912E-06  0.00000E+00  9.000E+00
#rwgt            1           1   3.1472367178120866E-002           4       53805           0
</event>
<event>
      5   9999  3.19816E-02  1.87328E+02 -1.00000E+00  1.12693E-01
      21    -1     0     0   502   512  0.000000000E+00  0.000000000E+00  1.086288700E+03  1.086288700E+03  0.000000000E+00  0.00000E+00  9.000E+00
      21    -1     0     0   501   502  0.000000000E+00  0.000000000E+00 -2.400893146E+02  2.400893146E+02  0.000000000E+00  0.00000E+00  9.000E+00
      25     1     1     2     0     0 -1.282307855E+01  1.598212747E+02 -9.179714221E+01  2.230672242E+02  1.250000000E+02  0.00000E+00  9.000E+00
      25     1     1     2     0     0 -3.420095757E+01 -3.411506992E+02  7.682243722E+02  8.504982018E+02  1.250000000E+02  0.00000E+00  9.000E+00
      21     1     1     2   501   512  4.702403613E+01  1.813294246E+02  1.697721549E+02  2.528125882E+02  0.000000000E+00  0.00000E+00  9.000E+00
#rwgt            1           1   2.8912486937897514E-002           4       53841           0
</event>
<event>
      5   9999  3.19816E-02  4.40925E+02 -1.00000E+00  1.00428E-01
       2    -1     0     0   502     0  0.000000000E+00  0.000000000E+00  7.878020597E+02  7.878020597E+02  0.000000000E+00  0.00000E+00  9.000E+00
      21    -1     0     0   501   502  0.000000000E+00  0.000000000E+00 -1.364802245E+03  1.364802245E+03  0.000000000E+00  0.00000E+00  9.000E+00
      25     1     1     2     0     0 -1.670903723E+02 -5.593510436E+02  2.722500691E+00  5.970135631E+02  1.250000000E+02  0.00000E+00  9.000E+00
      25     1     1     2     0     0  4.816833566E+02  8.682940271E+02 -3.661680389E+02  1.065672279E+03  1.250000000E+02  0.00000E+00  9.000E+00
       2     1     1     2   501     0 -3.145929843E+02 -3.089429835E+02 -2.135546474E+02  4.899184629E+02  1.265191952E-05  0.00000E+00  9.000E+00
#rwgt            1           1   3.5362343237063769E-002           4       53893           0
</event>
<event>
      5   9999  3.19816E-02  3.86570E+01 -1.00000E+00  1.45766E-01
      21    -1     0     0   502   511  0.000000000E+00  0.000000000E+00  7.837561537E+02  7.837561537E+02  0.000000000E+00  0.00000E+00  9.000E+00
      21    -1     0     0   501   502  0.000000000E+00  0.000000000E+00 -2.820134122E+02  2.820134122E+02  0.000000000E+00  0.00000E+00  9.000E+00
      25     1     1     2     0     0  2.634547158E+02 -3.078561791E+02  4.087520603E+02  5.889711887E+02  1.250000000E+02  0.00000E+00  9.000E+00
      25     1     1     2     0     0 -2.259609075E+02  3.172676214E+02  3.974665909E+01  4.110010611E+02  1.250000000E+02  0.00000E+00  9.000E+00
      21     1     1     2   501   511 -3.749380829E+01 -9.411442326E+00  5.324402211E+01  6.579731604E+01  0.000000000E+00  0.00000E+00  9.000E+00
#rwgt            1           1   2.5565499798635323E-002           4       53992           0
</event>
<event>
      5   9999  3.19816E-02  2.25797E+02 -1.00000E+00  1.09763E-01
       1    -1     0     0   502     0  0.000000000E+00  0.000000000E+00  1.842335425E+03  1.842335425E+03  0.000000000E+00  0.00000E+00  9.000E+00
      21    -1     0     0   501   502  0.000000000E+00  0.000000000E+00 -3.440160539E+02  3.440160539E+02  0.000000000E+00  0.00000E+00  9.000E+00
      25     1     1     2     0     0 -6.109969051E+01 -2.080488410E+02  4.293004952E+02  4.969319950E+02  1.250000000E+02  0.00000E+00  9.000E+00
      25     1     1     2     0     0 -1.642080612E+02  1.931983695E+02 -2.340037771E+02  3.669777446E+02  1.250000000E+02  0.00000E+00  9.000E+00
       1     1     1     2   501     0  2.253077517E+02  1.485047155E+01  1.303022653E+03  1.322441739E+03  0.000000000E+00  0.00000E+00  9.000E+00
#rwgt            1           1   2.7816734922546941E-002           4       54130           0
</event>
<event>
      5   9999  3.19816E-02  1.52114E+02 -1.00000E+00  1.16153E-01
      -1    -1     0     0     0   501  0.000000000E+00  0.000000000E+00  1.151663698E+03  1.151663698E+03  0.000000000E+00  0.00000E+00  9.000E+00
      21    -1     0     0   501   502  0.000000000E+00  0.000000000E+00 -7.223338774E+01  7.223338774E+01  0.000000000E+00  0.00000E+00  9.000E+00
      25     1     1     2     0     0 -9.503458081E+01  1.157359893E+02  1.624128324E+02  2.538293106E+02  1.250000000E+02  0.00000E+00  9.000E+00
      25     1     1     2     0     0  3.048172500E+01  2.200163451E+01  2.130797386E+02  2.498823373E+02  1.250000000E+02  0.00000E+00  9.000E+00
      -1     1     1     2     0   502  6.455285581E+01 -1.377376238E+02  7.039377389E+02  7.201854375E+02  1.078959322E-05  0.00000E+00  9.000E+00
#rwgt            1           1   5.7493132015998205E-002           4       54167           0
</event>
<event>
      5   9999  3.19816E-02  1.47813E+02 -1.00000E+00  1.16647E-01
       1    -1     0     0   502     0  0.000000000E+00  0.000000000E+00  1.381696149E+03  1.381696149E+03  0.000000000E+00  0.00000E+00  9.000E+00
      21    -1     0     0   501   502  0.000000000E+00  0.000000000E+00 -5.521541493E+02  5.521541493E+02  0.000000000E+00  0.00000E+00  9.000E+00
      25     1     1     2     0     0 -4.262558831E+02 -2.048631113E+00 -2.549787530E+02  5.121888707E+02  1.250000000E+02  0.00000E+00  9.000E+00
      25     1     1     2     0     0  5.367129649E+02 -9.617451751E+01  3.230665611E+02  6.459933029E+02  1.250000000E+02  0.00000E+00  9.000E+00
       1     1     1     2   501     0 -1.104570818E+02  9.822314862E+01  7.614541920E+02  7.756681252E+02  0.000000000E+00  0.00000E+00  9.000E+00
#rwgt            1           1   2.9401493482712610E-002           4       54218           0
</event>
<event>
      5   9999  3.19816E-02  6.82206E+01 -1.00000E+00  1.31790E-01
      21    -1     0     0   511   501  0.000000000E+00  0.000000000E+00  4.300867766E+02  4.300867766E+02  0.000000000E+00  0.00000E+00  9.000E+00
      21    -1     0     0   501   502  0.000000000E+00  0.000000000E+00 -2.825162172E+02  2.825162172E+02  0.000000000E+00  0.00000E+00  9.000E+00
      25     1     1     2     0     0 -9.342595224E+01  2.777665340E+01  3.219054248E+02  3.588147900E+02  1.250000000E+02  0.00000E+00  9.000E+00
      25     1     1     2     0     0  1.550630878E+02 -5.701559104E+01 -1.929136131E+02  2.830830284E+02  1.250000000E+02  0.00000E+00  9.000E+00
      21     1     1     2   511   502 -6.163713561E+01  2.923893764E+01  1.857874775E+01  7.070517540E+01  8.920806376E-07  0.00000E+00  9.000E+00
#rwgt            1           1   2.9276027007443722E-002           4       54268           0
</event>
<event>
      5   9999  3.19816E-02  4.87180E+01 -1.00000E+00  1.39722E-01
      21    -1     0     0   502   501  0.000000000E+00  0.000000000E+00  1.645285763E+02  1.645285763E+02  0.000000000E+00  0.00000E+00  9.000E+00
      21    -1     0     0   501   512  0.000000000E+00  0.000000000E+00 -5.047617087E+02  5.047617087E+02  0.000000000E+00  0.00000E+00  9.000E+00
      25     1     1     2     0     0  2.416205491E+01 -1.837138609E+02 -2.216755586E+02  3.148009543E+02  1.250000000E+02  0.00000E+00  9.000E+00
      25     1     1     2     0     0  1.456111852E+01  2.132766795E+02 -2.485795684E+01  2.488812693E+02  1.250000000E+02  0.00000E+00  9.000E+00
      21     1     1     2   502   512 -3.872317344E+01 -2.956281862E+01 -9.369961699E+01  1.056080614E+02  0.000000000E+00  0.00000E+00  9.000E+00
#rwgt            1           1   2.9909193190436105E-002           4       54335           0
</event>
<event>
      5   9999  3.19816E-02  1.01018E+02 -1.00000E+00  1.23630E-01
       2    -1     0     0   502     0  0.000000000E+00  0.000000000E+00  1.511760036E+03  1.511760036E+03  0.000000000E+00  0.00000E+00  9.000E+00
      21    -1     0     0   501   502  0.000000000E+00  0.000000000E+00 -1.464815402E+02  1.464815402E+02  0.000000000E+00  0.00000E+00  9.000E+00
      25     1     1     2     0     0  2.293189220E+02 -5.465670664E+01  3.286054152E+02  4.232978177E+02  1.250000000E+02  0.00000E+00  9.000E+00
      25     1     1     2     0     0 -1.364423417E+02  9.438911286E+01  1.497824558E+01  2.082670523E+02  1.250000000E+02  0.00000E+00  9.000E+00
       2     1     1     2   501     0 -9.287658038E+01 -3.973240622E+01  1.021694835E+03  1.026676706E+03  1.868812365E-05  0.00000E+00  9.000E+00
#rwgt            1           1   3.0323052293420600E-002           4       54413           0
</event>
<event>
      5   9999  3.19816E-02  3.43893E+02 -1.00000E+00  1.03700E-01
      21    -1     0     0   502   501  0.000000000E+00  0.000000000E+00  1.100237322E+03  1.100237322E+03  0.000000000E+00  0.00000E+00  9.000E+00
      21    -1     0     0   511   502  0.000000000E+00  0.000000000E+00 -6.277911550E+02  6.277911550E+02  0.000000000E+00  0.00000E+00  9.000E+00
      25     1     1     2     0     0 -1.688555513E+02 -4.538744965E+02  3.553986643E+02  6.135531488E+02  1.250000000E+02  0.00000E+00  9.000E+00
      25     1     1     2     0     0 -1.735780347E+02  4.222231124E+02  4.374108643E+02  6.444803759E+02  1.250000000E+02  0.00000E+00  9.000E+00
      21     1     1     2   511   501  3.424335860E+02  3.165138417E+01 -3.203633620E+02  4.699949518E+02  8.529922400E-06  0.00000E+00  9.000E+00
#rwgt            2          11   3.3701443763343411E-003           4       54683           0
</event>
<event>
      5   9999  3.19816E-02  3.83289E+01 -1.00000E+00  1.45999E-01
       1    -1     0     0   502     0  0.000000000E+00  0.000000000E+00  1.621438593E+03  1.621438593E+03  0.000000000E+00  0.00000E+00  9.000E+00
      21    -1     0     0   501   502  0.000000000E+00  0.000000000E+00 -2.143921820E+01  2.143921820E+01  0.000000000E+00  0.00000E+00  9.000E+00
      25     1     1     2     0     0  9.773284259E+01 -4.739530758E+00  5.991400039E+02  6.198128072E+02  1.250000000E+02  0.00000E+00  9.000E+00
      25     1     1     2     0     0 -1.055007974E+02 -3.279393974E+01  6.914363375E+02  7.112770694E+02  1.250000000E+02  0.00000E+00  9.000E+00
       1     1     1     2   501     0  7.767954830E+00  3.753347050E+01  3.094230335E+02  3.117879347E+02  3.814697266E-06  0.00000E+00  9.000E+00
#rwgt            1           1   3.3195879099404725E-002           4       54703           0
</event>
<event>
      5   9999  3.19816E-02  1.09496E+02 -1.00000E+00  1.22081E-01
      21    -1     0     0   502   501  0.000000000E+00  0.000000000E+00  3.504673118E+02  3.504673118E+02  0.000000000E+00  0.00000E+00  9.000E+00
      21    -1     0     0   511   502  0.000000000E+00  0.000000000E+00 -6.144391956E+02  6.144391956E+02  0.000000000E+00  0.00000E+00  9.000E+00
      25     1     1     2     0     0 -2.646705845E+02 -3.113140070E+02 -8.976499778E+01  4.366344971E+02  1.250000000E+02  0.00000E+00  9.000E+00
      25     1     1     2     0     0  1.563665880E+02  3.274279966E+02 -1.019639056E+02  3.970909731E+02  1.250000000E+02  0.00000E+00  9.000E+00
      21     1     1     2   511   501  1.083039965E+02 -1.611398967E+01 -7.224298038E+01  1.311810373E+02  1.651812370E-06  0.00000E+00  9.000E+00
#rwgt            1           1   2.7993224452951129E-002           4       54802           0
</event>
<event>
      5   9999  3.19816E-02  2.06964E+02 -1.00000E+00  1.11110E-01
       4    -1     0     0   502     0  0.000000000E+00  0.000000000E+00  5.463327541E+02  5.463327541E+02  0.000000000E+00  0.00000E+00  9.000E+00
      21    -1     0     0   501   502  0.000000000E+00  0.000000000E+00 -1.971123668E+03  1.971123668E+03  0.000000000E+00  0.00000E+00  9.000E+00
      25     1     1     2     0     0 -4.554988593E+02 -3.079073039E+01 -1.765055546E+02  5.051796618E+02  1.250000000E+02  0.00000E+00  9.000E+00
      25     1     1     2     0     0  2.686963489E+02  1.198916309E+02 -1.585067766E+03  1.616983783E+03  1.250000000E+02  0.00000E+00  9.000E+00
       4     1     1     2   501     0  1.868025104E+02 -8.910090055E+01  3.367824068E+02  3.952929773E+02  9.344061824E-06  0.00000E+00  9.000E+00
#rwgt            2          20   9.8680408531519293E-005           4       54992           0
</event>
<event>
      5   9999  3.19816E-02  6.56504E+01 -1.00000E+00  1.32647E-01
      21    -1     0     0   502   501  0.000000000E+00  0.000000000E+00  3.915810305E+02  3.915810305E+02  0.000000000E+00  0.00000E+00  9.000E+00
      21    -1     0     0   501   511  0.000000000E+00  0.000000000E+00 -1.457890293E+03  1.457890293E+03  0.000000000E+00  0.00000E+00  9.000E+00
      25     1     1     2     0     0  3.890584837E+02 -1.115257865E+02  7.866333069E+01  4.308334068E+02  1.250000000E+02  0.00000E+00  9.000E+00
      25     1     1     2     0     0 -4.524434408E+02  1.286230966E+02 -3.012941622E+02  5.724090673E+02  1.250000000E+02  0.00000E+00  9.000E+00
      21     1     1     2   502   511  6.338495711E+01 -1.709731014E+01 -8.436784312E+02  8.462288497E+02  0.000000000E+00  0.00000E+00  9.000E+00
#rwgt            1           1   2.8408434663141156E-002           4       55026           0
</event>
<event>
      5   9999  3.19816E-02  5.96530E+01 -1.00000E+00  1.34838E-01
      21    -1     0     0   512   501  0.000000000E+00  0.000000000E+00  1.052753083E+03  1.052753083E+03  0.000000000E+00  0.00000E+00  9.000E+00
      21    -1     0     0   501   502  0.000000000E+00  0.000000000E+00 -7.257495328E+02  7.257495328E+02  0.000000000E+00  0.00000E+00  9.000E+00
      25     1     1     2     0     0 -3.031832186E+02  6.336590096E+00  2.994919532E+01  3.293663169E+02  1.250000000E+02  0.00000E+00  9.000E+00
      25     1     1     2     0     0  2.987470873E+02  5.315121848E+01 -5.281353580E+02  6.217932378E+02  1.250000000E+02  0.00000E+00  9.000E+00
      21     1     1     2   512   502  4.436131212E+00 -5.948780858E+01  8.251897131E+02  8.273430614E+02  1.078959322E-05  0.00000E+00  9.000E+00
#rwgt            1           1   2.5585012500619935E-002           4       55241           0
</event>
<event>
      5   9999  3.19816E-02  4.05685E+01 -1.00000E+00  1.44461E-01
      21    -1     0     0   502   511  0.000000000E+00  0.000000000E+00  4.124279592E+02  4.124279592E+02  0.000000000E+00  0.00000E+00  9.000E+00
      21    -1     0     0   501   502  0.000000000E+00  0.000000000E+00 -2.355959810E+02  2.355959810E+02  0.000000000E+00  0.00000E+00  9.000E+00
      25     1     1     2     0     0 -8.382025631E+01  1.876950880E+02  2.391426836E+01  2.417688435E+02  1.250000000E+02  0.00000E+00  9.000E+00
      25     1     1     2     0     0  7.911840406E+01 -2.279902005E+02  2.601085646E+01  2.730216439E+02  1.250000000E+02  0.00000E+00  9.000E+00
      21     1     1     2   501   511  4.701852255E+00  4.029511251E+01  1.269068534E+02  1.332334528E+02  1.907348633E-06  0.00000E+00  9.000E+00
#rwgt            1           1   2.3642760463780922E-002           4       55382           0
</event>
<event>
      5   9999  3.19816E-02  2.86118E+01 -1.00000E+00  1.54483E-01
      21    -1     0     0   502   512  0.000000000E+00  0.000000000E+00  1.555943059E+03  1.555943059E+03  0.000000000E+00  0.00000E+00  9.000E+00
      21    -1     0     0   501   502  0.000000000E+00  0.000000000E+00 -4.014995194E+02  4.014995194E+02  0.000000000E+00  0.00000E+00  9.000E+00
      25     1     1     2     0     0  7.491132365E+01  5.211710351E+02 -1.182489949E+02  5.539303016E+02  1.250000000E+02  0.00000E+00  9.000E+00
      25     1     1     2     0     0 -1.029687719E+02 -5.155659497E+02  1.069102026E+03  1.197921099E+03  1.250000000E+02  0.00000E+00  9.000E+00
      21     1     1     2   501   512  2.805744828E+01 -5.605085356E+00  2.035905084E+02  2.055911781E+02  0.000000000E+00  0.00000E+00  9.000E+00
#rwgt            1           1   3.0416462647484856E-002           4       55555           0
</event>
<event>
      5   9999  3.19816E-02  5.70083E+01 -1.00000E+00  1.35901E-01
      21    -1     0     0   502   511  0.000000000E+00  0.000000000E+00  2.523932131E+02  2.523932131E+02  0.000000000E+00  0.00000E+00  9.000E+00
      21    -1     0     0   501   502  0.000000000E+00  0.000000000E+00 -5.681695483E+02  5.681695483E+02  0.000000000E+00  0.00000E+00  9.000E+00
      25     1     1     2     0     0  2.178077178E+02 -2.707698150E+02 -1.809035831E+02  4.112269459E+02  1.250000000E+02  0.00000E+00  9.000E+00
      25     1     1     2     0     0 -2.160924207E+02  2.137872959E+02 -1.240828131E+02  3.513153664E+02  1.250000000E+02  0.00000E+00  9.000E+00
      21     1     1     2   501   511 -1.715297076E+00  5.698251910E+01 -1.078993906E+01  5.802044908E+01  5.057621821E-07  0.00000E+00  9.000E+00
#rwgt            1           1   2.5757496907288572E-002           4       55716           0
</event>
<event>
      5   9999  3.19816E-02  2.63537E+02 -1.00000E+00  1.07453E-01
      21    -1     0     0   502   512  0.000000000E+00  0.000000000E+00  1.659218916E+03  1.659218916E+03  0.000000000E+00  0.00000E+00  9.000E+00
      21    -1     0     0   501   502  0.000000000E+00  0.000000000E+00 -1.134143176E+03  1.134143176E+03  0.000000000E+00  0.00000E+00  9.000E+00
      25     1     1     2     0     0  9.758228342E+02 -5.932991584E+01  1.790520539E+02  1.001715968E+03  1.250000000E+02  0.00000E+00  9.000E+00
      25     1     1     2     0     0 -7.318708251E+02  1.590242201E+02 -4.975922436E+02  9.078252299E+02  1.250000000E+02  0.00000E+00  9.000E+00
      21     1     1     2   501   512 -2.439520092E+02 -9.969430423E+01  8.436159294E+02  8.838208945E+02  1.078959322E-05  0.00000E+00  9.000E+00
#rwgt            1           1   2.9658703654626490E-002           4       55812           0
</event>
<event>
      5   9999  3.19816E-02  5.65317E+01 -1.00000E+00  1.36100E-01
      21    -1     0     0   502   501  0.000000000E+00  0.000000000E+00  3.894671896E+02  3.894671896E+02  0.000000000E+00  0.00000E+00  9.000E+00
       1    -1     0     0   501     0  0.000000000E+00  0.000000000E+00 -4.761212053E+02  4.761212053E+02  0.000000000E+00  0.00000E+00  9.000E+00
      25     1     1     2     0     0  2.260669674E+02 -4.940656241E+01 -3.227728291E+02  4.163587172E+02  1.250000000E+02  0.00000E+00  9.000E+00
      25     1     1     2     0     0 -2.122323591E+02  1.042192883E+02  2.726468290E+02  3.819234579E+02  1.250000000E+02  0.00000E+00  9.000E+00
       1     1     1     2   502     0 -1.383460828E+01 -5.481272590E+01 -3.652801555E+01  6.730621982E+01  8.259061849E-07  0.00000E+00  9.000E+00
#rwgt            1           1   2.8262671280955269E-002           4       55890           0
</event>
<event>
      5   9999  3.19816E-02  5.10663E+01 -1.00000E+00  1.38555E-01
      21    -1     0     0   502   501  0.000000000E+00  0.000000000E+00  8.472092555E+02  8.472092555E+02  0.000000000E+00  0.00000E+00  9.000E+00
      21    -1     0     0   501   511  0.000000000E+00  0.000000000E+00 -2.356528275E+02  2.356528275E+02  0.000000000E+00  0.00000E+00  9.000E+00
      25     1     1     2     0     0 -2.113495691E+02  2.804790096E+02  4.223254923E+02  5.633124680E+02  1.250000000E+02  0.00000E+00  9.000E+00
      25     1     1     2     0     0  2.548234755E+02 -3.072704567E+02  2.053673871E+02  4.659945289E+02  1.250000000E+02  0.00000E+00  9.000E+00
      21     1     1     2   502   511 -4.347390640E+01  2.679144718E+01 -1.613645144E+01  5.355508608E+01  8.259061849E-07  0.00000E+00  9.000E+00
#rwgt            1           1   2.9791939941737160E-002           4       55974           0
</event>
<event>
      5   9999  3.19816E-02  1.74761E+02 -1.00000E+00  1.13823E-01
       2    -1     0     0   502     0  0.000000000E+00  0.000000000E+00  2.178066543E+03  2.178066543E+03  0.000000000E+00  0.00000E+00  9.000E+00
      21    -1     0     0   501   502  0.000000000E+00  0.000000000E+00 -1.805123578E+03  1.805123578E+03  0.000000000E+00  0.00000E+00  9.000E+00
      25     1     1     2     0     0  1.098656669E+03 -8.075714767E+01 -1.294892813E+03  1.704681962E+03  1.250000000E+02  0.00000E+00  9.000E+00
      25     1     1     2     0     0 -1.204823841E+03  2.195736622E+02  9.935830367E+02  1.581975136E+03  1.250000000E+02  0.00000E+00  9.000E+00
       2     1     1     2   501     0  1.061671713E+02 -1.388165145E+02  6.742527418E+02  6.965330235E+02  0.000000000E+00  0.00000E+00  9.000E+00
#rwgt            2          18   4.0206797748154142E-003           4       56058           0
</event>
<event>
      5   9999  3.19816E-02  5.10414E+00 -1.00000E+00  2.36963E-01
      21    -1     0     0   502   511  0.000000000E+00  0.000000000E+00  5.333590589E+02  5.333590589E+02  0.000000000E+00  0.00000E+00  9.000E+00
      21    -1     0     0   501   502  0.000000000E+00  0.000000000E+00 -1.224157630E+02  1.224157630E+02  0.000000000E+00  0.00000E+00  9.000E+00
      25     1     1     2     0     0 -1.217533840E+01 -7.165215265E+01 -6.380544404E+01  1.580455774E+02  1.250000000E+02  0.00000E+00  9.000E+00
      25     1     1     2     0     0  1.370518268E+01  6.678267842E+01  4.685153250E+02  4.896727151E+02  1.250000000E+02  0.00000E+00  9.000E+00
      21     1     1     2   501   511 -1.529844282E+00  4.869474231E+00  6.233414948E+00  8.056529323E+00  1.460009660E-07  0.00000E+00  9.000E+00
#rwgt            1           1   2.6744484151769513E-002           4       56077           0
</event>
<event>
      5   9999  3.19816E-02  9.68002E+01 -1.00000E+00  1.24467E-01
      21    -1     0     0   502   512  0.000000000E+00  0.000000000E+00  1.028287892E+02  1.028287892E+02  0.000000000E+00  0.00000E+00  9.000E+00
      21    -1     0     0   501   502  0.000000000E+00  0.000000000E+00 -4.623980123E+02  4.623980123E+02  0.000000000E+00  0.00000E+00  9.000E+00
      25     1     1     2     0     0  4.278486789E+01 -1.499596122E+02 -1.752577788E+02  2.658170786E+02  1.250000000E+02  0.00000E+00  9.000E+00
      25     1     1     2     0     0 -5.560654326E+00  6.060283832E+01 -1.135069252E+02  1.794782632E+02  1.250000000E+02  0.00000E+00  9.000E+00
      21     1     1     2   501   512 -3.722421356E+01  8.935677393E+01 -7.080451906E+01  1.199314598E+02  9.536743164E-07  0.00000E+00  9.000E+00
#rwgt            1           1   2.3934816451695963E-002           4       56366           0
</event>
<event>
      5   9999  3.19816E-02  1.81518E+01 -1.00000E+00  1.69920E-01
      21    -1     0     0   502   511  0.000000000E+00  0.000000000E+00  1.892344243E+03  1.892344243E+03  0.000000000E+00  0.00000E+00  9.000E+00
      21    -1     0     0   501   502  0.000000000E+00  0.000000000E+00 -3.510730297E+01  3.510730297E+01  0.000000000E+00  0.00000E+00  9.000E+00
      25     1     1     2     0     0 -1.786951913E+02 -5.629066632E+01  5.841308756E+02  6.260467158E+02  1.250000000E+02  0.00000E+00  9.000E+00
      25     1     1     2     0     0  1.649982924E+02  4.437927496E+01  7.875145279E+02  8.154741493E+02  1.250000000E+02  0.00000E+00  9.000E+00
      21     1     1     2   501   511  1.369689886E+01  1.191139137E+01  4.855915365E+02  4.859306809E+02  0.000000000E+00  0.00000E+00  9.000E+00
#rwgt            1           1   4.0156935555491782E-002           4       56428           0
</event>
<event>
      5   9999  3.19816E-02  6.45672E+01 -1.00000E+00  1.33023E-01
      21    -1     0     0   502   501  0.000000000E+00  0.000000000E+00  1.537917931E+02  1.537917931E+02  0.000000000E+00  0.00000E+00  9.000E+00
      21    -1     0     0   512   502  0.000000000E+00  0.000000000E+00 -4.139589918E+02  4.139589918E+02  0.000000000E+00  0.00000E+00  9.000E+00
      25     1     1     2     0     0  7.971001963E+01 -1.408315958E+00  2.227381156E+01  1.499226243E+02  1.250000000E+02  0.00000E+00  9.000E+00
      25     1     1     2     0     0 -1.227152276E+02  4.956926024E+01 -6.875106470E+01  1.945966278E+02  1.250000000E+02  0.00000E+00  9.000E+00
      21     1     1     2   512   501  4.300520794E+01 -4.816094428E+01 -2.136899455E+02  2.232315329E+02  2.697398305E-06  0.00000E+00  9.000E+00
#rwgt            1           1   2.6238716355635641E-002           4       56583           0
</event>
<event>
      5   9999  3.19816E-02  5.03684E+01 -1.00000E+00  1.38894E-01
      -4    -1     0     0     0   501  0.000000000E+00  0.000000000E+00  1.443284553E+03  1.443284553E+03  0.000000000E+00  0.00000E+00  9.000E+00
      21    -1     0     0   501   502  0.000000000E+00  0.000000000E+00 -5.959089815E+02  5.959089815E+02  0.000000000E+00  0.00000E+00  9.000E+00
      25     1     1     2     0     0 -3.043756141E+02  4.172027378E+02 -3.830553658E+02  6.550259935E+02  1.250000000E+02  0.00000E+00  9.000E+00
      25     1     1     2     0     0  2.696576879E+02 -4.536943737E+02  9.067123317E+02  1.056553882E+03  1.250000000E+02  0.00000E+00  9.000E+00
      -4     1     1     2     0   502  3.471792612E+01  3.649163590E+01  3.237186057E+02  3.276136590E+02  3.814697266E-06  0.00000E+00  9.000E+00
#rwgt            1           1   2.9801051803546665E-002           4       56639           0
</event>
<event>
      5   9999  3.19816E-02  2.18810E+01 -1.00000E+00  1.63211E-01
      21    -1     0     0   502   511  0.000000000E+00  0.000000000E+00  7.498420529E+02  7.498420529E+02  0.000000000E+00  0.00000E+00  9.000E+00
      21    -1     0     0   501   502  0.000000000E+00  0.000000000E+00 -4.880004396E+01  4.880004396E+01  0.000000000E+00  0.00000E+00  9.000E+00
      25     1     1     2     0     0 -1.246187610E+02  9.121431159E+00  2.375449561E+02  2.960838433E+02  1.250000000E+02  0.00000E+00  9.000E+00
      25     1     1     2     0     0  1.036957237E+02 -1.552483459E+01  3.397757298E+02  3.769169274E+02  1.250000000E+02  0.00000E+00  9.000E+00
      21     1     1     2   501   511  2.092303730E+01  6.403403428E+00  1.237213230E+02  1.256413261E+02  1.348699152E-06  0.00000E+00  9.000E+00
#rwgt            1           1   1.8909254868534557E-002           4       56837           0
</event>
<event>
      5   9999  3.19816E-02  1.87068E+01 -1.00000E+00  1.68800E-01
      21    -1     0     0   502   501  0.000000000E+00  0.000000000E+00  1.518174705E+02  1.518174705E+02  0.000000000E+00  0.00000E+00  9.000E+00
      21    -1     0     0   512   502  0.000000000E+00  0.000000000E+00 -8.361005811E+02  8.361005811E+02  0.000000000E+00  0.00000E+00  9.000E+00
      25     1     1     2     0     0 -3.036151926E+02 -7.527592864E+01 -4.596844186E+02  5.698977236E+02  1.250000000E+02  0.00000E+00  9.000E+00
      25     1     1     2     0     0  2.955009559E+02  5.842050972E+01 -1.867763861E+02  3.758246789E+02  1.250000000E+02  0.00000E+00  9.000E+00
      21     1     1     2   512   501  8.114236743E+00  1.685541892E+01 -3.782230587E+01  4.219564914E+01  4.768371582E-07  0.00000E+00  9.000E+00
#rwgt            1           1   3.2402890159965558E-002           4       56941           0
</event>
<event>
      5   9999  3.19816E-02  4.90136E+01 -1.00000E+00  1.39571E-01
       2    -1     0     0   502     0  0.000000000E+00  0.000000000E+00  2.180806207E+03  2.180806207E+03  0.000000000E+00  0.00000E+00  9.000E+00
      21    -1     0     0   501   502  0.000000000E+00  0.000000000E+00 -6.601842584E+01  6.601842584E+01  0.000000000E+00  0.00000E+00  9.000E+00
      25     1     1     2     0     0 -2.124872580E+02 -7.777734616E+00  2.886236107E+02  3.796576308E+02  1.250000000E+02  0.00000E+00  9.000E+00
      25     1     1     2     0     0  2.565493428E+02  2.924548367E+01  1.021697034E+03  1.061208129E+03  1.250000000E+02  0.00000E+00  9.000E+00
       2     1     1     2   501     0 -4.406208489E+01 -2.146774906E+01  8.044671356E+02  8.059588723E+02  1.078959322E-05  0.00000E+00  9.000E+00
#rwgt            1           1   2.9128457570114310E-002           4       57097           0
</event>
<event>
      5   9999  3.19816E-02  5.38492E+01 -1.00000E+00  1.37262E-01
      21    -1     0     0   511   501  0.000000000E+00  0.000000000E+00  3.537746153E+02  3.537746153E+02  0.000000000E+00  0.00000E+00  9.000E+00
      21    -1     0     0   501   502  0.000000000E+00  0.000000000E+00 -4.752220726E+02  4.752220726E+02  0.000000000E+00  0.00000E+00  9.000E+00
      25     1     1     2     0     0  1.695960953E+02 -2.555213676E+02 -1.963161372E+02  3.849922474E+02  1.250000000E+02  0.00000E+00  9.000E+00
      25     1     1     2     0     0 -2.106327676E+02  2.206540878E+02 -2.492769108E+01  3.306066833E+02  1.250000000E+02  0.00000E+00  9.000E+00
      21     1     1     2   511   502  4.103667223E+01  3.486727978E+01  9.979637105E+01  1.133977572E+02  0.000000000E+00  0.00000E+00  9.000E+00
#rwgt            1           1   2.8744495296523509E-002           4       57191           0
</event>
<event>
      5   9999  3.19816E-02  4.81030E+01 -1.00000E+00  1.40041E-01
      21    -1     0     0   502   512  0.000000000E+00  0.000000000E+00  2.432589415E+02  2.432589415E+02  0.000000000E+00  0.00000E+00  9.000E+00
      21    -1     0     0   501   502  0.000000000E+00  0.000000000E+00 -2.765045891E+02  2.765045891E+02  0.000000000E+00  0.00000E+00  9.000E+00
      25     1     1     2     0     0  1.500708924E+02  5.616068016E+01 -3.681318909E+01  2.065320935E+02  1.250000000E+02  0.00000E+00  9.000E+00
      25     1     1     2     0     0 -1.173206738E+02 -9.139306585E+01 -8.530468060E+01  2.121761568E+02  1.250000000E+02  0.00000E+00  9.000E+00
      21     1     1     2   501   512 -3.275021855E+01  3.523238569E+01  8.887222214E+01  1.010552803E+02  1.348699152E-06  0.00000E+00  9.000E+00
#rwgt            1           1   2.6310539803997952E-002           4       57255           0
</event>
<event>
      5   9999  3.19816E-02  1.24547E+02 -1.00000E+00  1.19687E-01
      21    -1     0     0   502   501  0.000000000E+00  0.000000000E+00  5.755766181E+02  5.755766181E+02  0.000000000E+00  0.00000E+00  9.000E+00
      21    -1     0     0   501   511  0.000000000E+00  0.000000000E+00 -3.132469157E+02  3.132469157E+02  0.000000000E+00  0.00000E+00  9.000E+00
      25     1     1     2     0     0 -2.487269586E+02 -2.382874175E+01  2.916023919E+01  2.809060847E+02  1.250000000E+02  0.00000E+00  9.000E+00
      25     1     1     2     0     0  2.977269779E+02  1.383319258E+02  3.040661040E+02  4.646055001E+02  1.250000000E+02  0.00000E+00  9.000E+00
      21     1     1     2   502   511 -4.900001932E+01 -1.145031841E+02 -7.089664075E+01  1.433119490E+02  3.303624740E-06  0.00000E+00  9.000E+00
#rwgt            1           1   2.5766200039459869E-002           4       57338           0
</event>
<event>
      5   9999  3.19816E-02  1.09101E+01 -1.00000E+00  1.91483E-01
      21    -1     0     0   512   501  0.000000000E+00  0.000000000E+00  3.048411379E+02  3.048411379E+02  0.000000000E+00  0.00000E+00  9.000E+00
      21    -1     0     0   501   502  0.000000000E+00  0.000000000E+00 -1.223741061E+02  1.223741061E+02  0.000000000E+00  0.00000E+00  9.000E+00
      25     1     1     2     0     0  2.665618221E+01  2.648492103E+01  2.193555676E+02  2.552525575E+02  1.250000000E+02  0.00000E+00  9.000E+00
      25     1     1     2     0     0 -3.414006295E+01 -3.442356071E+01 -5.963324204E+01  1.467366654E+02  1.250000000E+02  0.00000E+00  9.000E+00
      21     1     1     2   512   502  7.483880739E+00  7.938639682E+00  2.274470628E+01  2.522602099E+01  3.371747881E-07  0.00000E+00  9.000E+00
#rwgt            1           1   2.9581511378148101E-002           4       57380           0
</event>
<event>
      5   9999  3.19816E-02  4.76605E+01 -1.00000E+00  1.40273E-01
      21    -1     0     0   502   501  0.000000000E+00  0.000000000E+00  1.108334784E+03  1.108334784E+03  0.000000000E+00  0.00000E+00  9.000E+00
      21    -1     0     0   511   502  0.000000000E+00  0.000000000E+00 -1.449067071E+02  1.449067071E+02  0.000000000E+00  0.00000E+00  9.000E+00
      25     1     1     2     0     0 -1.197424242E+02  1.305443305E+02  2.888984159E+01  2.187228688E+02  1.250000000E+02  0.00000E+00  9.000E+00
      25     1     1     2     0     0  7.513335421E+01 -1.473238473E+02  9.588584605E+02  9.810116636E+02  1.250000000E+02  0.00000E+00  9.000E+00
      21     1     1     2   511   501  4.460907002E+01  1.677951675E+01 -2.432022499E+01  5.350695893E+01  5.840038640E-07  0.00000E+00  9.000E+00
#rwgt            1           1   3.2706563764428619E-002           4       57558           0
</event>
<event>
      5   9999  3.19816E-02  1.06037E+02 -1.00000E+00  1.22694E-01
      21    -1     0     0   512   501  0.000000000E+00  0.000000000E+00  1.114561650E+03  1.114561650E+03  0.000000000E+00  0.00000E+00  9.000E+00
      21    -1     0     0   501   502  0.000000000E+00  0.000000000E+00 -1.738409539E+02  1.738409539E+02  0.000000000E+00  0.00000E+00  9.000E+00
      25     1     1     2     0     0  8.246031442E+01  1.051487919E+02  5.079405796E+02  5.398931416E+02  1.250000000E+02  0.00000E+00  9.000E+00
      25     1     1     2     0     0  4.464422609E+00 -4.441964171E+01 -1.240476776E+02  1.816751550E+02  1.250000000E+02  0.00000E+00  9.000E+00
      21     1     1     2   512   502 -8.692473703E+01 -6.072915024E+01  5.568277937E+02  5.668343069E+02  1.078959322E-05  0.00000E+00  9.000E+00
#rwgt            1           1   3.1035388144963854E-002           4       57709           0
</event>
<event>
      5   9999  3.19816E-02  2.68241E+02 -1.00000E+00  1.07195E-01
       1    -1     0     0   502     0  0.000000000E+00  0.000000000E+00  1.626730321E+03  1.626730321E+03  0.000000000E+00  0.00000E+00  9.000E+00
      21    -1     0     0   501   502  0.000000000E+00  0.000000000E+00 -1.996333890E+02  1.996333890E+02  0.000000000E+00  0.00000E+00  9.000E+00
      25     1     1     2     0     0 -7.481262568E+01  3.191830737E+02  4.300059749E+01  3.534809965E+02  1.250000000E+02  0.00000E+00  9.000E+00
      25     1     1     2     0     0 -1.058181144E+02 -1.208757135E+02  3.531684873E+02  4.076289880E+02  1.250000000E+02  0.00000E+00  9.000E+00
       1     1     1     2   501     0  1.806307401E+02 -1.983073602E+02  1.030927847E+03  1.065253725E+03  2.157918644E-05  0.00000E+00  9.000E+00
#rwgt            1           1   2.7052696336974661E-002           4       57785           0
</event>
<event>
      5   9999  3.19816E-02  2.20554E+01 -1.00000E+00  1.62938E-01
      21    -1     0     0   502   501  0.000000000E+00  0.000000000E+00  5.798010605E+02  5.798010605E+02  0.000000000E+00  0.00000E+00  9.000E+00
      21    -1     0     0   501   511  0.000000000E+00  0.000000000E+00 -1.057850296E+02  1.057850296E+02  0.000000000E+00  0.00000E+00  9.000E+00
      25     1     1     2     0     0 -2.160144876E+00  1.381746949E+01  2.151316493E+01  1.276064456E+02  1.250000000E+02  0.00000E+00  9.000E+00
      25     1     1     2     0     0 -1.359472159E+01  1.617126598E+00  4.946646925E+02  5.103974819E+02  1.250000000E+02  0.00000E+00  9.000E+00
      21     1     1     2   502   511  1.575486647E+01 -1.543459608E+01 -4.216182660E+01  4.758216258E+01  4.768371582E-07  0.00000E+00  9.000E+00
#rwgt            1           1   3.0483138575306760E-002           4       57824           0
</event>
<event>
      5   9999  3.19816E-02  8.21236E+01 -1.00000E+00  1.27801E-01
      21    -1     0     0   512   501  0.000000000E+00  0.000000000E+00  1.224359267E+02  1.224359267E+02  0.000000000E+00  0.00000E+00  9.000E+00
      21    -1     0     0   501   502  0.000000000E+00  0.000000000E+00 -9.244172997E+02  9.244172997E+02  0.000000000E+00  0.00000E+00  9.000E+00
      25     1     1     2     0     0  5.092597180E+01 -1.964504241E+02 -4.267895520E+02  4.888359085E+02  1.250000000E+02  0.00000E+00  9.000E+00
      25     1     1     2     0     0 -4.214454134E+01  1.147976909E+02 -4.266550900E+02  4.611011148E+02  1.250000000E+02  0.00000E+00  9.000E+00
      21     1     1     2   512   502 -8.781430452E+00  8.165273323E+01  5.146326898E+01  9.691620308E+01  2.939421655E-06  0.00000E+00  9.000E+00
#rwgt            1           1   2.7719600174416232E-002           4       57984           0
</event>
<event>
      5   9999  3.19816E-02  1.30160E+02 -1.00000E+00  1.18889E-01
       2    -1     0     0   502     0  0.000000000E+00  0.000000000E+00  6.022973228E+02  6.022973228E+02  0.000000000E+00  0.00000E+00  9.000E+00
      21    -1     0     0   501   502  0.000000000E+00  0.000000000E+00 -4.788150734E+02  4.788150734E+02  0.000000000E+00  0.00000E+00  9.000E+00
      25     1     1     2     0     0  2.220065066E+02 -2.897274005E+02 -2.520991524E+02  4.608772485E+02  1.250000000E+02  0.00000E+00  9.000E+00
      25     1     1     2     0     0 -1.915086378E+02  1.631905502E+02  7.214901749E+01  2.900641218E+02  1.250000000E+02  0.00000E+00  9.000E+00
       2     1     1     2   501     0 -3.049786884E+01  1.265368503E+02  3.034323843E+02  3.301710259E+02  0.000000000E+00  0.00000E+00  9.000E+00
#rwgt            1           1   2.7300516466646385E-002           4       58039           0
</event>
<event>
      5   9999  3.19816E-02  7.73928E+01 -1.00000E+00  1.29050E-01
      21    -1     0     0   502   501  0.000000000E+00  0.000000000E+00  1.022039516E+03  1.022039516E+03  0.000000000E+00  0.00000E+00  9.000E+00
      21    -1     0     0   511   502  0.000000000E+00  0.000000000E+00 -2.268755202E+03  2.268755202E+03  0.000000000E+00  0.00000E+00  9.000E+00
      25     1     1     2     0     0 -7.041987174E+02 -1.743400598E+02  7.813866021E+02  1.073536358E+03  1.250000000E+02  0.00000E+00  9.000E+00
      25     1     1     2     0     0  7.796419096E+02  1.570780971E+02 -1.712407189E+03  1.892215214E+03  1.250000000E+02  0.00000E+00  9.000E+00
      21     1     1     2   511   501 -7.544319220E+01  1.726196270E+01 -3.156950998E+02  3.250431458E+02  5.394796609E-06  0.00000E+00  9.000E+00
#rwgt            1           1   5.1100747395786253E-002           4       58099           0
</event>
<event>
      5   9999  3.19816E-02  8.55831E+01 -1.00000E+00  1.26947E-01
      21    -1     0     0   502   501  0.000000000E+00  0.000000000E+00  1.575724335E+03  1.575724335E+03  0.000000000E+00  0.00000E+00  9.000E+00
      21    -1     0     0   501   512  0.000000000E+00  0.000000000E+00 -1.114331617E+03  1.114331617E+03  0.000000000E+00  0.00000E+00  9.000E+00
      25     1     1     2     0     0 -1.493240874E+02  1.023955709E+02 -2.106682203E+02  3.046122701E+02  1.250000000E+02  0.00000E+00  9.000E+00
      25     1     1     2     0     0  1.495912002E+02 -1.681286915E+01  1.520329435E+03  1.532868810E+03  1.250000000E+02  0.00000E+00  9.000E+00
      21     1     1     2   502   512 -2.671127431E-01 -8.558270174E+01 -8.482684964E+02  8.525748719E+02  0.000000000E+00  0.00000E+00  9.000E+00
#rwgt            1           1   2.7832907983611713E-002           4       58234           0
</event>
<event>
      5   9999  3.19816E-02  5.86453E+01 -1.00000E+00  1.35236E-01
      21    -1     0     0   502   501  0.000000000E+00  0.000000000E+00  6.414010336E+02  6.414010336E+02  0.000000000E+00  0.00000E+00  9.000E+00
      21    -1     0     0   511   502  0.000000000E+00  0.000000000E+00 -1.282130799E+02  1.282130799E+02  0.000000000E+00  0.00000E+00  9.000E+00
      25     1     1     2     0     0  4.620871368E+00  1.848021080E+02  4.754076390E+02  5.251767272E+02  1.250000000E+02  0.00000E+00  9.000E+00
      25     1     1     2     0     0 -2.716155654E+01 -1.306616839E+02  2.900806434E+01  1.851396597E+02  1.250000000E+02  0.00000E+00  9.000E+00
      21     1     1     2   511   501  2.254068517E+01 -5.414042412E+01  8.772250362E+00  5.929772667E+01  1.316709640E-06  0.00000E+00  9.000E+00
#rwgt            1           1   2.7320141994596280E-002           4       58325           0
</event>
<event>
      5   9999  3.19816E-02  6.87102E+02 -1.00000E+00  9.50822E-02
      21    -1     0     0   502   501  0.000000000E+00  0.000000000E+00  1.135875320E+03  1.135875320E+03  0.000000000E+00  0.00000E+00  9.000E+00
       2    -1     0     0   501     0  0.000000000E+00  0.000000000E+00 -1.757070009E+03  1.757070009E+03  0.000000000E+00  0.00000E+00  9.000E+00
      25     1     1     2     0     0  7.851963689E+02 -1.179324639E+02  6.660383061E+02  1.043874240E+03  1.250000000E+02  0.00000E+00  9.000E+00
      25     1     1     2     0     0 -1.000078813E+02  6.668656714E+01  1.669571178E+02  2.407246430E+02  1.250000000E+02  0.00000E+00  9.000E+00
       2     1     1     2   502     0 -6.851884876E+02  5.124589672E+01 -1.454190113E+03  1.608346446E+03  0.000000000E+00  0.00000E+00  9.000E+00
#rwgt            2          13   3.9125791305324089E-003           4       58679           0
</event>
<event>
      5   9999  3.19816E-02  3.32588E+01 -1.00000E+00  1.49993E-01
      21    -1     0     0   511   501  0.000000000E+00  0.000000000E+00  1.674718480E+02  1.674718480E+02  0.000000000E+00  0.00000E+00  9.000E+00
      21    -1     0     0   501   502  0.000000000E+00  0.000000000E+00 -3.651685306E+02  3.651685306E+02  0.000000000E+00  0.00000E+00  9.000E+00
      25     1     1     2     0     0  3.203512340E+01 -1.722597247E+02 -2.095313963E+02  3.003798727E+02  1.250000000E+02  0.00000E+00  9.000E+00
      25     1     1     2     0     0 -3.995116639E+00  1.543737803E+02  8.970727445E+00  1.988786035E+02  1.250000000E+02  0.00000E+00  9.000E+00
      21     1     1     2   511   502 -2.804000677E+01  1.788594446E+01  2.863986173E+00  3.338190237E+01  4.214684851E-07  0.00000E+00  9.000E+00
#rwgt            1           1   2.7310452677907274E-002           4       58713           0
</event>
<event>
      5   9999  3.19816E-02  9.09501E+00 -1.00000E+00  2.00643E-01
      21    -1     0     0   502   512  0.000000000E+00  0.000000000E+00  5.919089653E+01  5.919089653E+01  0.000000000E+00  0.00000E+00  9.000E+00
      21    -1     0     0   501   502  0.000000000E+00  0.000000000E+00 -1.129584389E+03  1.129584389E+03  0.000000000E+00  0.00000E+00  9.000E+00
      25     1     1     2     0     0  6.854675262E+01  1.763468117E+02 -6.647164992E+02  7.023317447E+02  1.250000000E+02  0.00000E+00  9.000E+00
      25     1     1     2     0     0 -6.632314753E+01 -1.675278137E+02 -4.174634341E+02  4.715559851E+02  1.250000000E+02  0.00000E+00  9.000E+00
      21     1     1     2   501   512 -2.223605087E+00 -8.818997933E+00  1.178644053E+01  1.488755603E+01  2.920019320E-07  0.00000E+00  9.000E+00
#rwgt            1           1   2.9396869684137048E-002           4       58856           0
</event>
<event>
      5   9999  3.19816E-02  5.03319E+01 -1.00000E+00  1.38912E-01
      21    -1     0     0   502   501  0.000000000E+00  0.000000000E+00  3.532334860E+02  3.532334860E+02  0.000000000E+00  0.00000E+00  9.000E+00
       1    -1     0     0   501     0  0.000000000E+00  0.000000000E+00 -2.252404150E+03  2.252404150E+03  0.000000000E+00  0.00000E+00  9.000E+00
      25     1     1     2     0     0  1.162284417E+02  3.212916274E+02 -1.948517789E+02  4.127100389E+02  1.250000000E+02  0.00000E+00  9.000E+00
      25     1     1     2     0     0 -1.619571945E+02 -3.002634636E+02  1.086706914E+02  3.792395017E+02  1.250000000E+02  0.00000E+00  9.000E+00
       1     1     1     2   502     0  4.572875276E+01 -2.102816374E+01 -1.812989576E+03  1.813688095E+03  0.000000000E+00  0.00000E+00  9.000E+00
#rwgt            1           1   2.9987255977101966E-002           4       59033           0
</event>
<event>
      5   9999  3.19816E-02  1.61157E+02 -1.00000E+00  1.15172E-01
      21    -1     0     0   502   501  0.000000000E+00  0.000000000E+00  1.844921771E+03  1.844921771E+03  0.000000000E+00  0.00000E+00  9.000E+00
       2    -1     0     0   501     0  0.000000000E+00  0.000000000E+00 -1.329732064E+03  1.329732064E+03  0.000000000E+00  0.00000E+00  9.000E+00
      25     1     1     2     0     0  2.048083876E+02  1.291248899E+02  1.737434334E+03  1.758670742E+03  1.250000000E+02  0.00000E+00  9.000E+00
      25     1     1     2     0     0 -9.666499006E+01 -9.640067270E+00  2.333559858E+01  1.600206279E+02  1.250000000E+02  0.00000E+00  9.000E+00
       2     1     1     2   502     0 -1.081433975E+02 -1.194848227E+02 -1.245580226E+03  1.255962466E+03  2.157918644E-05  0.00000E+00  9.000E+00
#rwgt            2          13   3.1761648390954564E-002           4       59136           0
</event>
<event>
      5   9999  3.19816E-02  8.53052E+01 -1.00000E+00  1.27014E-01
       4    -1     0     0   502     0  0.000000000E+00  0.000000000E+00  3.665758486E+02  3.665758486E+02  0.000000000E+00  0.00000E+00  9.000E+00
      21    -1     0     0   501   502  0.000000000E+00  0.000000000E+00 -2.502555987E+02  2.502555987E+02  0.000000000E+00  0.00000E+00  9.000E+00
      25     1     1     2     0     0  7.633429376E+01  4.787581700E+01 -2.280798181E+01  1.557697734E+02  1.250000000E+02  0.00000E+00  9.000E+00
      25     1     1     2     0     0 -1.603327065E+02 -6.275019167E+01 -7.891217700E+01  2.269279511E+02  1.250000000E+02  0.00000E+00  9.000E+00
       4     1     1     2   501     0  8.399841269E+01  1.487437467E+01  2.180404087E+02  2.341337228E+02  2.697398305E-06  0.00000E+00  9.000E+00
#rwgt            1           1   2.6910035329656308E-002           4       59155           0
</event>
<event>
      5   9999  3.19816E-02  1.99382E+02 -1.00000E+00  1.11697E-01
      21    -1     0     0   511   501  0.000000000E+00  0.000000000E+00  2.526822293E+02  2.526822293E+02  0.000000000E+00  0.00000E+00  9.000E+00
      21    -1     0     0   501   502  0.000000000E+00  0.000000000E+00 -4.312584554E+02  4.312584554E+02  0.000000000E+00  0.00000E+00  9.000E+00
      25     1     1     2     0     0  7.504617053E+00 -2.472534630E+01 -1.354967185E+01  1.283598677E+02  1.250000000E+02  0.00000E+00  9.000E+00
      25     1     1     2     0     0  1.343215225E+02 -1.154127370E+02 -2.568297826E+02  3.360787237E+02  1.250000000E+02  0.00000E+00  9.000E+00
      21     1     1     2   511   502 -1.418261396E+02  1.401380833E+02  9.180322835E+01  2.195020934E+02  4.264961200E-06  0.00000E+00  9.000E+00
#rwgt            1           1   1.9093318196513297E-002           4       59218           0
</event>
<event>
      5   9999  3.19816E-02  1.63261E+01 -1.00000E+00  1.73986E-01
      21    -1     0     0   502   512  0.000000000E+00  0.000000000E+00  1.869386837E+02  1.869386837E+02  0.000000000E+00  0.00000E+00  9.000E+00
      21    -1     0     0   501   502  0.000000000E+00  0.000000000E+00 -5.034063529E+02  5.034063529E+02  0.000000000E+00  0.00000E+00  9.000E+00
      25     1     1     2     0     0 -1.418021506E+01  2.618494015E+02 -2.578531464E+02  3.884320181E+02  1.250000000E+02  0.00000E+00  9.000E+00
      25     1     1     2     0     0  1.454543987E+01 -2.455273884E+02 -6.647334967E+01  2.837938944E+02  1.250000000E+02  0.00000E+00  9.000E+00
      21     1     1     2   501   512 -3.652248091E-01 -1.632201303E+01  7.858826833E+00  1.811912409E+01  8.429369702E-08  0.00000E+00  9.000E+00
#rwgt            1           1   2.7555695809839197E-002           4       59248           0
</event>
<event>
      5   9999  3.19816E-02  1.02167E+02 -1.00000E+00  1.23411E-01
      21    -1     0     0   502   511  0.000000000E+00  0.000000000E+00  1.588968514E+03  1.588968514E+03  0.000000000E+00  0.00000E+00  9.000E+00
      21    -1     0     0   501   502  0.000000000E+00  0.000000000E+00 -2.144958003E+03  2.144958003E+03  0.000000000E+00  0.00000E+00  9.000E+00
      25     1     1     2     0     0  9.147080892E+02  1.419899225E+02  7.040431530E+01  9.367143610E+02  1.250000000E+02  0.00000E+00  9.000E+00
      25     1     1     2     0     0 -8.127173981E+02 -1.359879044E+02 -1.607546320E+03  1.810754663E+03  1.250000000E+02  0.00000E+00  9.000E+00
      21     1     1     2   501   511 -1.019906911E+02 -6.002018049E+00  9.811525160E+02  9.864574927E+02  1.078959322E-05  0.00000E+00  9.000E+00
#rwgt            1           1   2.2755728205205588E-002           4       59456           0
</event>
<event>
      5   9999  3.19816E-02  6.56387E+01 -1.00000E+00  1.32651E-01
      -1    -1     0     0     0   501  0.000000000E+00  0.000000000E+00  8.446142712E+02  8.446142712E+02  0.000000000E+00  0.00000E+00  9.000E+00
      21    -1     0     0   501   502  0.000000000E+00  0.000000000E+00 -4.141890748E+02  4.141890748E+02  0.000000000E+00  0.00000E+00  9.000E+00
      25     1     1     2     0     0  3.458630143E+02  2.773136174E+02  4.161725787E+02  6.207645950E+02  1.250000000E+02  0.00000E+00  9.000E+00
      25     1     1     2     0     0 -3.269105914E+02 -3.401565995E+02 -1.074648972E+02  4.997506889E+02  1.250000000E+02  0.00000E+00  9.000E+00
      -1     1     1     2     0   502 -1.895242293E+01  6.284298208E+01  1.217175148E+02  1.382880622E+02  2.336015456E-06  0.00000E+00  9.000E+00
#rwgt            1           1   3.0646485084668242E-002           4       59601           0
</event>
<event>
      5   9999  3.19816E-02  5.87506E+01 -1.00000E+00  1.35194E-01
      21    -1     0     0   511   501  0.000000000E+00  0.000000000E+00  2.126238095E+02  2.126238095E+02  0.000000000E+00  0.00000E+00  9.000E+00
      21    -1     0     0   501   502  0.000000000E+00  0.000000000E+00 -3.660381426E+02  3.660381426E+02  0.000000000E+00  0.00000E+00  9.000E+00
      25     1     1     2     0     0 -8.934461956E+01  4.402597287E+01 -2.300639228E+02  2.801341748E+02  1.250000000E+02  0.00000E+00  9.000E+00
      25     1     1     2     0     0  1.468893832E+02 -3.218411178E+01 -7.745590579E+00  1.956969650E+02  1.250000000E+02  0.00000E+00  9.000E+00
      21     1     1     2   511   502 -5.754476363E+01 -1.184186109E+01  8.439518028E+01  1.028308123E+02  1.348699152E-06  0.00000E+00  9.000E+00
#rwgt            1           1   3.4273823655151019E-002           4       59693           0
</event>
<event>
      5   9999  3.19816E-02  4.79413E+01 -1.00000E+00  1.40125E-01
      21    -1     0     0   502   501  0.000000000E+00  0.000000000E+00  2.492677206E+02  2.492677206E+02  0.000000000E+00  0.00000E+00  9.000E+00
      -4    -1     0     0     0   502  0.000000000E+00  0.000000000E+00 -3.139454571E+02  3.139454571E+02  0.000000000E+00  0.00000E+00  9.000E+00
      25     1     1     2     0     0  1.667368804E+02 -6.931183437E+01  9.455058032E+01  2.391027601E+02  1.250000000E+02  0.00000E+00  9.000E+00
      25     1     1     2     0     0 -1.432020949E+02  1.110788784E+02 -1.659520027E+02  2.756998811E+02  1.250000000E+02  0.00000E+00  9.000E+00
      -4     1     1     2     0   501 -2.353478543E+01 -4.176704405E+01  6.723685936E+00  4.841053652E+01  7.492187673E-07  0.00000E+00  9.000E+00
#rwgt            1           1   2.4223235308126909E-002           4       59743           0
</event>
<event>
      5   9999  3.19816E-02  5.88605E+01 -1.00000E+00  1.35150E-01
      21    -1     0     0   502   501  0.000000000E+00  0.000000000E+00  4.182220321E+02  4.182220321E+02  0.000000000E+00  0.00000E+00  9.000E+00
      21    -1     0     0   501   511  0.000000000E+00  0.000000000E+00 -1.088110313E+03  1.088110313E+03  0.000000000E+00  0.00000E+00  9.000E+00
      25     1     1     2     0     0  5.853106269E+02 -1.468523264E+01 -2.540240912E+02  6.503517702E+02  1.250000000E+02  0.00000E+00  9.000E+00
      25     1     1     2     0     0 -6.348420460E+02 -1.711400916E+01 -2.748898430E+02  7.032117309E+02  1.250000000E+02  0.00000E+00  9.000E+00
      21     1     1     2   502   511  4.953141908E+01  3.179924180E+01 -1.409743466E+02  1.527688438E+02  1.907348633E-06  0.00000E+00  9.000E+00
#rwgt            1           1   2.4235661259148649E-002           4       59845           0
</event>
<event>
      5   9999  3.19816E-02  5.24256E+01 -1.00000E+00  1.37912E-01
      21    -1     0     0   502   512  0.000000000E+00  0.000000000E+00  6.072102562E+01  6.072102562E+01  0.000000000E+00  0.00000E+00  9.000E+00
      21    -1     0     0   501   502  0.000000000E+00  0.000000000E+00 -3.716541247E+03  3.716541247E+03  0.000000000E+00  0.00000E+00  9.000E+00
      25     1     1     2     0     0  1.579503213E+02  2.567080612E+02 -1.283821904E+03  1.324639957E+03  1.250000000E+02  0.00000E+00  9.000E+00
      25     1     1     2     0     0 -1.592085527E+02 -3.091185518E+02 -2.371583818E+03  2.400195085E+03  1.250000000E+02  0.00000E+00  9.000E+00
      21     1     1     2   501   512  1.258231444E+00  5.241049061E+01 -4.144988339E-01  5.242723035E+01  5.480356592E-07  0.00000E+00  9.000E+00
#rwgt            1           1   1.3743010629508896E-002           4       60009           0
</event>
<event>
      5   9999  3.19816E-02  7.04334E+02 -1.00000E+00  9.48007E-02
      21    -1     0     0   502   501  0.000000000E+00  0.000000000E+00  2.168748484E+03  2.168748484E+03  0.000000000E+00  0.00000E+00  9.000E+00
      21    -1     0     0   501   511  0.000000000E+00  0.000000000E+00 -4.471686211E+02  4.471686211E+02  0.000000000E+00  0.00000E+00  9.000E+00
      25     1     1     2     0     0 -5.277637862E+02  2.487764688E+02  7.665750445E+02  9.714353526E+02  1.250000000E+02  0.00000E+00  9.000E+00
      25     1     1     2     0     0 -1.583430727E+02 -4.079738535E+02  8.043953237E+02  9.242250974E+02  1.250000000E+02  0.00000E+00  9.000E+00
      21     1     1     2   502   511  6.861068589E+02  1.591973848E+02  1.506094945E+02  7.202566550E+02  1.175768662E-05  0.00000E+00  9.000E+00
#rwgt            2          11   1.8440421230063082E-003           4       60193           0
</event>
<event>
      5   9999  3.19816E-02  1.31381E+02 -1.00000E+00  1.18721E-01
      21    -1     0     0   502   501  0.000000000E+00  0.000000000E+00  2.704275780E+03  2.704275780E+03  0.000000000E+00  0.00000E+00  9.000E+00
      21    -1     0     0   501   512  0.000000000E+00  0.000000000E+00 -1.069990415E+03  1.069990415E+03  0.000000000E+00  0.00000E+00  9.000E+00
      25     1     1     2     0     0  6.399190424E+02  6.295020416E+02  2.331198818E+03  2.501176149E+03  1.250000000E+02  0.00000E+00  9.000E+00
      25     1     1     2     0     0 -5.102893442E+02 -6.508824373E+02 -7.574347222E+02  1.128439418E+03  1.250000000E+02  0.00000E+00  9.000E+00
      21     1     1     2   502   512 -1.296296983E+02  2.138039565E+01  6.052126985E+01  1.446506277E+02  3.873843386E-06  0.00000E+00  9.000E+00
#rwgt            1           1   3.1106877702104883E-002           4       60243           0
</event>
<event>
      5   9999  3.19816E-02  3.18302E+02 -1.00000E+00  1.04763E-01
      21    -1     0     0   502   511  0.000000000E+00  0.000000000E+00  2.966687779E+02  2.966687779E+02  0.000000000E+00  0.00000E+00  9.000E+00
      21    -1     0     0   501   502  0.000000000E+00  0.000000000E+00 -7.626198116E+02  7.626198116E+02  0.000000000E+00  0.00000E+00  9.000E+00
      25     1     1     2     0     0 -6.294650297E+01  7.809863836E+01  1.719900961E+01  1.611907736E+02  1.250000000E+02  0.00000E+00  9.000E+00
      25     1     1     2     0     0  3.805486925E+02 -9.918677323E+01 -3.866502771E+02  5.654898409E+02  1.250000000E+02  0.00000E+00  9.000E+00
      21     1     1     2   501   511 -3.176021895E+02  2.108813488E+01 -9.649976615E+01  3.326079751E+02  3.015782986E-06  0.00000E+00  9.000E+00
#rwgt            1           1   3.1287876647364078E-002           4       60392           0
</event>
<event>
      5   9999  3.19816E-02  9.80700E+01 -1.00000E+00  1.24210E-01
      21    -1     0     0   502   501  0.000000000E+00  0.000000000E+00  7.335808598E+01  7.335808598E+01  0.000000000E+00  0.00000E+00  9.000E+00
       2    -1     0     0   501     0  0.000000000E+00  0.000000000E+00 -1.712641422E+03  1.712641422E+03  0.000000000E+00  0.00000E+00  9.000E+00
      25     1     1     2     0     0  7.648530503E+01 -1.813650987E+02 -3.165409670E+02  3.931494432E+02  1.250000000E+02  0.00000E+00  9.000E+00
      25     1     1     2     0     0  3.617786274E+00  2.379444561E+02 -5.320395537E+02  5.960887009E+02  1.250000000E+02  0.00000E+00  9.000E+00
       2     1     1     2   502     0 -8.010309130E+01 -5.657935746E+01 -7.907028152E+02  7.967613638E+02  1.078959322E-05  0.00000E+00  9.000E+00
#rwgt            1           1   2.7761278825622671E-002           4       60447           0
</event>
<event>
      5   9999  3.19816E-02  5.01798E+01 -1.00000E+00  1.38987E-01
      21    -1     0     0   502   501  0.000000000E+00  0.000000000E+00  4.465784140E+02  4.465784140E+02  0.000000000E+00  0.00000E+00  9.000E+00
      21    -1     0     0   501   511  0.000000000E+00  0.000000000E+00 -2.875542345E+02  2.875542345E+02  0.000000000E+00  0.00000E+00  9.000E+00
      25     1     1     2     0     0 -1.461111216E+01  1.249735919E+02 -2.106635582E+02  2.753834019E+02  1.250000000E+02  0.00000E+00  9.000E+00
      25     1     1     2     0     0  4.152845569E+01 -8.262424716E+01  3.772184557E+02  4.080075271E+02  1.250000000E+02  0.00000E+00  9.000E+00
      21     1     1     2   502   511 -2.691734353E+01 -4.234934477E+01 -7.530717917E+00  5.074171950E+01  6.419616708E-07  0.00000E+00  9.000E+00
#rwgt            1           1   2.7469896429452072E-002           4       60487           0
</event>
<event>
      5   9999  3.19816E-02  2.92330E+01 -1.00000E+00  1.53825E-01
      21    -1     0     0   512   501  0.000000000E+00  0.000000000E+00  8.331424370E+02  8.331424370E+02  0.000000000E+00  0.00000E+00  9.000E+00
      21    -1     0     0   501   502  0.000000000E+00  0.000000000E+00 -9.890448956E+01  9.890448956E+01  0.000000000E+00  0.00000E+00  9.000E+00
      25     1     1     2     0     0  1.640212460E+02  1.610796616E+02  2.925838067E+02  3.925301395E+02  1.250000000E+02  0.00000E+00  9.000E+00
      25     1     1     2     0     0 -1.924055693E+02 -1.540869880E+02  3.676665904E+02  4.599635036E+02  1.250000000E+02  0.00000E+00  9.000E+00
      21     1     1     2   512   502  2.838432327E+01 -6.992673621E+00  7.398755040E+01  7.955328344E+01  1.348699152E-06  0.00000E+00  9.000E+00
#rwgt            1           1   2.6294929939058059E-002           4       60585           0
</event>
<event>
      5   9999  3.19816E-02  7.37236E+02 -1.00000E+00  9.42862E-02
      21    -1     0     0   511   501  0.000000000E+00  0.000000000E+00  5.714684451E+02  5.714684451E+02  0.000000000E+00  0.00000E+00  9.000E+00
      21    -1     0     0   501   502  0.000000000E+00  0.000000000E+00 -1.287141766E+03  1.287141766E+03  0.000000000E+00  0.00000E+00  9.000E+00
      25     1     1     2     0     0  3.865658365E+02  6.072510235E+02 -2.207351656E+02  7.632404371E+02  1.250000000E+02  0.00000E+00  9.000E+00
      25     1     1     2     0     0 -1.460223598E+02  8.963943668E+01 -2.277445361E+02  3.112078596E+02  1.250000000E+02  0.00000E+00  9.000E+00
      21     1     1     2   511   502 -2.405434768E+02 -6.968904601E+02 -2.671936189E+02  7.841619142E+02  3.814697266E-06  0.00000E+00  9.000E+00
#rwgt            2          11   1.8208755893194017E-003           4       60713           0
</event>
<event>
      5   9999  3.90258E-02  5.57032E+00 -1.00000E+00  2.30603E-01
      21    -1     0     0   512   501  0.000000000E+00  0.000000000E+00  3.752651798E+01  3.752651798E+01  0.000000000E+00  0.00000E+00  9.000E+00
      21    -1     0     0   501   502  0.000000000E+00  0.000000000E+00 -7.183288297E+02  7.183288297E+02  0.000000000E+00  0.00000E+00  9.000E+00
      25     1     1     2     0     0  5.011612758E+01  8.600879749E+01 -2.918612174E+02  3.327418063E+02  1.250000000E+02  0.00000E+00  9.000E+00
      25     1     1     2     0     0 -4.930013098E+01 -8.049856947E+01 -3.864948883E+02  4.170297606E+02  1.250000000E+02  0.00000E+00  9.000E+00
      21     1     1     2   512   502 -8.159966053E-01 -5.510228025E+00 -2.446206086E+00  6.083780697E+00  1.228781231E-07  0.00000E+00  9.000E+00
#rwgt            1           1  0.10432194409478598                4       60748           0
</event>
<event>
      5   9999  3.19816E-02  1.78325E+01 -1.00000E+00  1.70587E-01
      21    -1     0     0   502   501  0.000000000E+00  0.000000000E+00  3.270888777E+02  3.270888777E+02  0.000000000E+00  0.00000E+00  9.000E+00
      21    -1     0     0   501   511  0.000000000E+00  0.000000000E+00 -2.553709187E+02  2.553709187E+02  0.000000000E+00  0.00000E+00  9.000E+00
      25     1     1     2     0     0 -4.180273099E+01  4.200225723E+01 -1.707140491E+02  2.197269772E+02  1.250000000E+02  0.00000E+00  9.000E+00
      25     1     1     2     0     0  4.360003777E+01 -2.426054236E+01  2.857651946E+02  3.158738414E+02  1.250000000E+02  0.00000E+00  9.000E+00
      21     1     1     2   502   511 -1.797306778E+00 -1.774171486E+01 -4.333318643E+01  4.685897784E+01  0.000000000E+00  0.00000E+00  9.000E+00
#rwgt            1           1   2.5396959814572229E-002           4       61003           0
</event>
<event>
      5   9999  3.19816E-02  3.95674E+01 -1.00000E+00  1.45134E-01
      21    -1     0     0   502   501  0.000000000E+00  0.000000000E+00  1.633786609E+02  1.633786609E+02  0.000000000E+00  0.00000E+00  9.000E+00
      21    -1     0     0   512   502  0.000000000E+00  0.000000000E+00 -8.378720934E+02  8.378720934E+02  0.000000000E+00  0.00000E+00  9.000E+00
      25     1     1     2     0     0 -1.490898457E+02 -1.389070548E+02 -2.616225403E+02  3.543928690E+02  1.250000000E+02  0.00000E+00  9.000E+00
      25     1     1     2     0     0  1.113642969E+02  1.269754807E+02  2.101939089E+01  2.111672184E+02  1.250000000E+02  0.00000E+00  9.000E+00
      21     1     1     2   512   501  3.772554878E+01  1.193157405E+01 -4.338902830E+02  4.356906669E+02  7.629394531E-06  0.00000E+00  9.000E+00
#rwgt            2          11   1.1146254379162421E-003           4       61306           0
</event>
<event>
      5   9999  3.19816E-02  1.21973E+02 -1.00000E+00  1.20068E-01
      21    -1     0     0   502   501  0.000000000E+00  0.000000000E+00  1.731120558E+03  1.731120558E+03  0.000000000E+00  0.00000E+00  9.000E+00
      21    -1     0     0   511   502  0.000000000E+00  0.000000000E+00 -2.388590500E+02  2.388590500E+02  0.000000000E+00  0.00000E+00  9.000E+00
      25     1     1     2     0     0  3.211900481E+02  2.927617515E+02  1.636223518E+02  4.809051509E+02  1.250000000E+02  0.00000E+00  9.000E+00
      25     1     1     2     0     0 -3.647771636E+02 -1.788421401E+02  1.294375039E+03  1.362379768E+03  1.250000000E+02  0.00000E+00  9.000E+00
      21     1     1     2   511   501  4.358711548E+01 -1.139196114E+02  3.426411696E+01  1.266946890E+02  3.631483605E-06  0.00000E+00  9.000E+00
#rwgt            1           1   2.8786181942722373E-002           4       61326           0
</event>
<event>
      5   9999  3.19816E-02  5.33306E+01 -1.00000E+00  1.37496E-01
       2    -1     0     0   502     0  0.000000000E+00  0.000000000E+00  2.231712979E+03  2.231712979E+03  0.000000000E+00  0.00000E+00  9.000E+00
      21    -1     0     0   501   502  0.000000000E+00  0.000000000E+00 -8.256990252E+01  8.256990252E+01  0.000000000E+00  0.00000E+00  9.000E+00
      25     1     1     2     0     0 -3.024032149E+02 -1.163060022E+02  5.117084204E+02  6.184216184E+02  1.250000000E+02  0.00000E+00  9.000E+00
      25     1     1     2     0     0  3.532516191E+02  1.002250537E+02  1.450445362E+03  1.501415504E+03  1.250000000E+02  0.00000E+00  9.000E+00
       2     1     1     2   501     0 -5.084840422E+01  1.608094849E+01  1.869892937E+02  1.944457587E+02  0.000000000E+00  0.00000E+00  9.000E+00
#rwgt            1           1   3.0306236383367491E-002           4       61388           0
</event>
<event>
      5   9999  3.19816E-02  3.18672E+01 -1.00000E+00  1.51241E-01
      21    -1     0     0   502   501  0.000000000E+00  0.000000000E+00  7.190002656E+02  7.190002656E+02  0.000000000E+00  0.00000E+00  9.000E+00
      21    -1     0     0   501   511  0.000000000E+00  0.000000000E+00 -2.415612868E+02  2.415612868E+02  0.000000000E+00  0.00000E+00  9.000E+00
      25     1     1     2     0     0 -3.781286818E+01  1.087870427E+02  4.157817911E+02  4.491814015E+02  1.250000000E+02  0.00000E+00  9.000E+00
      25     1     1     2     0     0  6.541241168E+00 -1.026548142E+02  2.622946900E+02  3.082276807E+02  1.250000000E+02  0.00000E+00  9.000E+00
      21     1     1     2   502   511  3.127162701E+01 -6.132228507E+00 -2.006375022E+02  2.031524703E+02  0.000000000E+00  0.00000E+00  9.000E+00
#rwgt            1           1   3.7099167067648195E-002           4       61505           0
</event>
<event>
      5   9999  3.19816E-02  2.82251E+01 -1.00000E+00  1.54902E-01
      21    -1     0     0   502   501  0.000000000E+00  0.000000000E+00  3.699679462E+02  3.699679462E+02  0.000000000E+00  0.00000E+00  9.000E+00
      21    -1     0     0   512   502  0.000000000E+00  0.000000000E+00 -2.467582631E+02  2.467582631E+02  0.000000000E+00  0.00000E+00  9.000E+00
      25     1     1     2     0     0  5.525961223E+01 -7.151389441E+01 -7.746983632E+01  1.726106526E+02  1.250000000E+02  0.00000E+00  9.000E+00
      25     1     1     2     0     0 -2.760637242E+01  7.716683755E+01  3.030598332E+02  3.379158107E+02  1.250000000E+02  0.00000E+00  9.000E+00
      21     1     1     2   512   501 -2.765323981E+01 -5.652943139E+00 -1.023803137E+02  1.061997461E+02  1.348699152E-06  0.00000E+00  9.000E+00
#rwgt            1           1   2.5946987160355456E-002           4       61605           0
</event>
<event>
      5   9999  3.19816E-02  2.91085E+02 -1.00000E+00  1.06019E-01
      21    -1     0     0   502   501  0.000000000E+00  0.000000000E+00  6.132511657E+02  6.132511657E+02  0.000000000E+00  0.00000E+00  9.000E+00
      21    -1     0     0   501   511  0.000000000E+00  0.000000000E+00 -1.151359008E+03  1.151359008E+03  0.000000000E+00  0.00000E+00  9.000E+00
      25     1     1     2     0     0 -1.850016958E+02  4.240667086E+02  2.168672918E+02  5.260367126E+02  1.250000000E+02  0.00000E+00  9.000E+00
      25     1     1     2     0     0 -1.287073759E+01 -2.105787291E+02  1.503222834E+02  2.876297027E+02  1.250000000E+02  0.00000E+00  9.000E+00
      21     1     1     2   502   511  1.978724334E+02 -2.134879796E+02 -9.052974173E+02  9.509437581E+02  1.525878906E-05  0.00000E+00  9.000E+00
#rwgt            1           1   2.7814022311710977E-002           4       61691           0
</event>
<event>
      5   9999  3.19816E-02  3.09531E+01 -1.00000E+00  1.52102E-01
      21    -1     0     0   502   512  0.000000000E+00  0.000000000E+00  4.930675980E+02  4.930675980E+02  0.000000000E+00  0.00000E+00  9.000E+00
      21    -1     0     0   501   502  0.000000000E+00  0.000000000E+00 -1.164349150E+02  1.164349150E+02  0.000000000E+00  0.00000E+00  9.000E+00
      25     1     1     2     0     0  6.775900010E+01 -6.916881667E+01  1.817924485E+02  2.409338117E+02  1.250000000E+02  0.00000E+00  9.000E+00
      25     1     1     2     0     0 -5.043356088E+01  9.481888310E+01 -6.436307981E+00  1.649260159E+02  1.250000000E+02  0.00000E+00  9.000E+00
      21     1     1     2   501   512 -1.732543922E+01 -2.565006643E+01  2.012765425E+02  2.036426854E+02  0.000000000E+00  0.00000E+00  9.000E+00
#rwgt            1           1   3.2890826810312496E-002           4       61753           0
</event>
<event>
      5   9999  3.19816E-02  2.42279E+02 -1.00000E+00  1.08698E-01
      21    -1     0     0   502   501  0.000000000E+00  0.000000000E+00  4.127358883E+02  4.127358883E+02  0.000000000E+00  0.00000E+00  9.000E+00
      21    -1     0     0   511   502  0.000000000E+00  0.000000000E+00 -7.045867559E+02  7.045867559E+02  0.000000000E+00  0.00000E+00  9.000E+00
      25     1     1     2     0     0  1.021742697E+02  2.644569100E+02 -4.070603541E+01  3.125044319E+02  1.250000000E+02  0.00000E+00  9.000E+00
      25     1     1     2     0     0 -2.964807789E+01 -4.956257737E+02 -1.075367865E+02  5.231759518E+02  1.250000000E+02  0.00000E+00  9.000E+00
      21     1     1     2   511   501 -7.252619181E+01  2.311688637E+02 -1.436080457E+02  2.816422604E+02  3.303624740E-06  0.00000E+00  9.000E+00
#rwgt            1           1   2.9156118859182328E-002           4       61885           0
</event>
<event>
      5   9999  3.32560E-02  2.16901E+01 -1.00000E+00  1.63514E-01
      21    -1     0     0   502   501  0.000000000E+00  0.000000000E+00  4.674689073E+02  4.674689073E+02  0.000000000E+00  0.00000E+00  9.000E+00
      21    -1     0     0   501   512  0.000000000E+00  0.000000000E+00 -6.591530784E+02  6.591530784E+02  0.000000000E+00  0.00000E+00  9.000E+00
      25     1     1     2     0     0 -4.146945623E+01 -1.964538288E+02 -3.020382528E+02  3.836221172E+02  1.250000000E+02  0.00000E+00  9.000E+00
      25     1     1     2     0     0  2.138559546E+01  1.882624855E+02  3.960470057E+02  4.564847619E+02  1.250000000E+02  0.00000E+00  9.000E+00
      21     1     1     2   502   512  2.008386077E+01  8.191343257E+00 -2.856929239E+02  2.865151067E+02  3.814697266E-06  0.00000E+00  9.000E+00
#rwgt            1           1   3.2162106663748871E-002           4       61929           0
</event>
<event>
      5   9999  3.19816E-02  5.37562E+01 -1.00000E+00  1.37304E-01
      21    -1     0     0   511   501  0.000000000E+00  0.000000000E+00  1.059342080E+02  1.059342080E+02  0.000000000E+00  0.00000E+00  9.000E+00
      21    -1     0     0   501   502  0.000000000E+00  0.000000000E+00 -1.959818339E+03  1.959818339E+03  0.000000000E+00  0.00000E+00  9.000E+00
      25     1     1     2     0     0 -1.638768635E+02 -3.224081116E+02 -5.433455361E+02  6.645690245E+02  1.250000000E+02  0.00000E+00  9.000E+00
      25     1     1     2     0     0  1.618777910E+02  3.761271116E+02 -1.244182061E+03  1.315784946E+03  1.250000000E+02  0.00000E+00  9.000E+00
      21     1     1     2   511   502  1.999072485E+00 -5.371899999E+01 -6.635653360E+01  8.539857611E+01  0.000000000E+00  0.00000E+00  9.000E+00
#rwgt            2          11   6.2108360849835575E-003           4       62128           0
</event>
<event>
      5   9999  3.19816E-02  1.16470E+02 -1.00000E+00  1.20921E-01
      21    -1     0     0   502   512  0.000000000E+00  0.000000000E+00  2.427980979E+02  2.427980979E+02  0.000000000E+00  0.00000E+00  9.000E+00
      21    -1     0     0   501   502  0.000000000E+00  0.000000000E+00 -3.799707569E+02  3.799707569E+02  0.000000000E+00  0.00000E+00  9.000E+00
      25     1     1     2     0     0 -2.010099035E+00 -6.796437711E+01 -2.591463903E+02  2.956434485E+02  1.250000000E+02  0.00000E+00  9.000E+00
      25     1     1     2     0     0 -1.141080334E+02  5.891873502E+01  3.710164000E+01  1.830125469E+02  1.250000000E+02  0.00000E+00  9.000E+00
      21     1     1     2   501   512  1.161181325E+02  9.045642094E+00  8.487209133E+01  1.441128593E+02  2.697398305E-06  0.00000E+00  9.000E+00
#rwgt            2          11   2.6852730686288614E-003           4       62238           0
</event>
<event>
      5   9999  3.19816E-02  1.74921E+01 -1.00000E+00  1.71318E-01
      21    -1     0     0   502   501  0.000000000E+00  0.000000000E+00  6.664376275E+02  6.664376275E+02  0.000000000E+00  0.00000E+00  9.000E+00
      21    -1     0     0   511   502  0.000000000E+00  0.000000000E+00 -1.404302459E+02  1.404302459E+02  0.000000000E+00  0.00000E+00  9.000E+00
      25     1     1     2     0     0  1.666959432E+01  2.356049373E+02  1.127697688E+02  2.900510001E+02  1.250000000E+02  0.00000E+00  9.000E+00
      25     1     1     2     0     0 -3.104808423E+01 -2.256434026E+02  4.232713365E+02  4.966513395E+02  1.250000000E+02  0.00000E+00  9.000E+00
      21     1     1     2   511   501  1.437848991E+01 -9.961534740E+00 -1.003372375E+01  2.016553393E+01  4.129530925E-07  0.00000E+00  9.000E+00
#rwgt            1           1   3.0068668900222788E-002           4       62258           0
</event>
<event>
      5   9999  3.19816E-02  1.74140E+02 -1.00000E+00  1.13882E-01
      -1    -1     0     0     0   501  0.000000000E+00  0.000000000E+00  3.253286254E+02  3.253286254E+02  0.000000000E+00  0.00000E+00  9.000E+00
      21    -1     0     0   501   502  0.000000000E+00  0.000000000E+00 -1.178914452E+03  1.178914452E+03  0.000000000E+00  0.00000E+00  9.000E+00
      25     1     1     2     0     0  2.306861395E+02 -5.442649711E+00 -7.496945913E+02  7.943001307E+02  1.250000000E+02  0.00000E+00  9.000E+00
      25     1     1     2     0     0 -3.132987655E+02 -1.478546467E+02  1.536428462E+02  3.990591901E+02  1.250000000E+02  0.00000E+00  9.000E+00
      -1     1     1     2     0   502  8.261262601E+01  1.532972964E+02 -2.575340815E+02  3.108837567E+02  3.814697266E-06  0.00000E+00  9.000E+00
#rwgt            1           1   3.1261341611246114E-002           4       62444           0
</event>
<event>
      5   9999  3.19816E-02  2.47140E+02 -1.00000E+00  1.08401E-01
      21    -1     0     0   511   501  0.000000000E+00  0.000000000E+00  3.733036448E+02  3.733036448E+02  0.000000000E+00  0.00000E+00  9.000E+00
      21    -1     0     0   501   502  0.000000000E+00  0.000000000E+00 -4.487414850E+02  4.487414850E+02  0.000000000E+00  0.00000E+00  9.000E+00
      25     1     1     2     0     0 -3.943099374E+01  3.187744293E+01 -1.935105097E+02  2.358861844E+02  1.250000000E+02  0.00000E+00  9.000E+00
      25     1     1     2     0     0  1.972525161E+02  1.583083616E+02 -5.102844853E+01  2.867036711E+02  1.250000000E+02  0.00000E+00  9.000E+00
      21     1     1     2   511   502 -1.578215224E+02 -1.901858046E+02  1.691011180E+02  2.994552743E+02  4.672030912E-06  0.00000E+00  9.000E+00
#rwgt            1           1   2.7331585617161373E-002           4       62510           0
</event>
<event>
      5   9999  3.19816E-02  3.19570E+01 -1.00000E+00  1.51158E-01
      21    -1     0     0   502   512  0.000000000E+00  0.000000000E+00  4.086204817E+02  4.086204817E+02  0.000000000E+00  0.00000E+00  9.000E+00
      21    -1     0     0   501   502  0.000000000E+00  0.000000000E+00 -1.699502194E+02  1.699502194E+02  0.000000000E+00  0.00000E+00  9.000E+00
      25     1     1     2     0     0 -1.525679739E+02 -6.491436642E+01  1.674246937E+02  2.667337430E+02  1.250000000E+02  0.00000E+00  9.000E+00
      25     1     1     2     0     0  1.717464139E+02  9.047684635E+01 -3.108826158E+00  2.309059445E+02  1.250000000E+02  0.00000E+00  9.000E+00
      21     1     1     2   501   512 -1.917844001E+01 -2.556247993E+01  7.435439471E+01  8.093101355E+01  9.536743164E-07  0.00000E+00  9.000E+00
#rwgt            1           1   2.9525361826886105E-002           4       62548           0
</event>
<event>
      5   9999  3.19816E-02  1.32450E+01 -1.00000E+00  1.82630E-01
      21    -1     0     0   502   511  0.000000000E+00  0.000000000E+00  3.352772598E+02  3.352772598E+02  0.000000000E+00  0.00000E+00  9.000E+00
      21    -1     0     0   501   502  0.000000000E+00  0.000000000E+00 -2.509287147E+02  2.509287147E+02  0.000000000E+00  0.00000E+00  9.000E+00
      25     1     1     2     0     0 -2.410043640E+02  1.316169811E+01 -4.135674727E+01  2.749394739E+02  1.250000000E+02  0.00000E+00  9.000E+00
      25     1     1     2     0     0  2.308980804E+02 -4.600496625E+00  9.752212092E+01  2.801261362E+02  1.250000000E+02  0.00000E+00  9.000E+00
      21     1     1     2   501   511  1.010628363E+01 -8.561201481E+00  2.818317143E+01  3.114036434E+01  0.000000000E+00  0.00000E+00  9.000E+00
#rwgt            1           1   2.6322023099624205E-002           4       62654           0
</event>
<event>
      5   9999  3.19816E-02  7.21913E+01 -1.00000E+00  1.30546E-01
      21    -1     0     0   502   512  0.000000000E+00  0.000000000E+00  6.068753023E+01  6.068753023E+01  0.000000000E+00  0.00000E+00  9.000E+00
      21    -1     0     0   501   502  0.000000000E+00  0.000000000E+00 -1.089056343E+03  1.089056343E+03  0.000000000E+00  0.00000E+00  9.000E+00
      25     1     1     2     0     0 -3.859662118E+01  1.193174675E+02 -8.617634604E+02  8.797656613E+02  1.250000000E+02  0.00000E+00  9.000E+00
      25     1     1     2     0     0 -6.353250421E+00 -6.282772570E+01 -1.154851548E+02  1.815199931E+02  1.250000000E+02  0.00000E+00  9.000E+00
      21     1     1     2   501   512  4.494987160E+01 -5.648974175E+01 -5.112019767E+01  8.845821889E+01  1.348699152E-06  0.00000E+00  9.000E+00
#rwgt            1           1   2.8221179705655804E-002           4       62828           0
</event>
<event>
      5   9999  3.19816E-02  4.98108E+01 -1.00000E+00  1.39170E-01
      21    -1     0     0   502   501  0.000000000E+00  0.000000000E+00  9.613620879E+01  9.613620879E+01  0.000000000E+00  0.00000E+00  9.000E+00
      21    -1     0     0   511   502  0.000000000E+00  0.000000000E+00 -7.959650173E+02  7.959650173E+02  0.000000000E+00  0.00000E+00  9.000E+00
      25     1     1     2     0     0  1.560405583E+02 -3.598272680E+01 -3.455808192E+02  4.008672037E+02  1.250000000E+02  0.00000E+00  9.000E+00
      25     1     1     2     0     0 -1.092066469E+02  1.902100067E+01 -3.832831305E+01  1.714116384E+02  1.250000000E+02  0.00000E+00  9.000E+00
      21     1     1     2   511   501 -4.683391141E+01  1.696172613E+01 -3.159196763E+02  3.198223839E+02  3.814697266E-06  0.00000E+00  9.000E+00
#rwgt            1           1   2.2492317244394849E-002           4       62886           0
</event>
<event>
      5   9999  3.19816E-02  1.71412E+02 -1.00000E+00  1.14142E-01
      21    -1     0     0   502   501  0.000000000E+00  0.000000000E+00  1.089561695E+03  1.089561695E+03  0.000000000E+00  0.00000E+00  9.000E+00
      21    -1     0     0   501   512  0.000000000E+00  0.000000000E+00 -1.878242841E+03  1.878242841E+03  0.000000000E+00  0.00000E+00  9.000E+00
      25     1     1     2     0     0 -1.114506068E+02  1.227808151E+03 -1.028559882E+01  1.239219466E+03  1.250000000E+02  0.00000E+00  9.000E+00
      25     1     1     2     0     0  2.816173645E+02 -1.248435198E+03 -4.576428389E+02  1.364903203E+03  1.250000000E+02  0.00000E+00  9.000E+00
      21     1     1     2   502   512 -1.701667576E+02  2.062704784E+01 -3.207527079E+02  3.636818666E+02  3.814697266E-06  0.00000E+00  9.000E+00
#rwgt            2          11   5.5513893746145498E-003           4       63267           0
</event>
<event>
      5   9999  3.19816E-02  7.40489E+01 -1.00000E+00  1.29996E-01
      21    -1     0     0   511   501  0.000000000E+00  0.000000000E+00  3.984575914E+02  3.984575914E+02  0.000000000E+00  0.00000E+00  9.000E+00
      21    -1     0     0   501   502  0.000000000E+00  0.000000000E+00 -1.351497444E+03  1.351497444E+03  0.000000000E+00  0.00000E+00  9.000E+00
      25     1     1     2     0     0  5.254636851E+02  3.532670679E+01 -7.869117311E+02  9.550995409E+02  1.250000000E+02  0.00000E+00  9.000E+00
      25     1     1     2     0     0 -5.968087502E+02 -5.515403085E+01 -2.684786508E+02  6.685270655E+02  1.250000000E+02  0.00000E+00  9.000E+00
      21     1     1     2   511   502  7.134506511E+01  1.982732406E+01  1.023505293E+02  1.263284289E+02  2.336015456E-06  0.00000E+00  9.000E+00
#rwgt            1           1   2.7725894170128225E-002           4       63287           0
</event>
<event>
      5   9999  3.38630E-02  4.11971E+02 -1.00000E+00  1.01302E-01
      21    -1     0     0   502   501  0.000000000E+00  0.000000000E+00  1.985033517E+03  1.985033517E+03  0.000000000E+00  0.00000E+00  9.000E+00
      21    -1     0     0   501   512  0.000000000E+00  0.000000000E+00 -1.485770011E+03  1.485770011E+03  0.000000000E+00  0.00000E+00  9.000E+00
      25     1     1     2     0     0  7.421340339E+02 -8.294360266E+02  1.183456702E+03  1.629393081E+03  1.250000000E+02  0.00000E+00  9.000E+00
      25     1     1     2     0     0 -9.533581815E+02  4.757351741E+02 -3.599837115E+01  1.073376290E+03  1.250000000E+02  0.00000E+00  9.000E+00
      21     1     1     2   502   512  2.112241476E+02  3.537008526E+02 -6.481948255E+02  7.680341564E+02  7.629394531E-06  0.00000E+00  9.000E+00
#rwgt            1           1   8.2269839447740398E-002           4       63361           0
</event>
<event>
      5   9999  3.19816E-02  5.56326E+00 -1.00000E+00  2.30693E-01
      21    -1     0     0   502   501  0.000000000E+00  0.000000000E+00  4.101599652E+02  4.101599652E+02  0.000000000E+00  0.00000E+00  9.000E+00
      21    -1     0     0   501   511  0.000000000E+00  0.000000000E+00 -5.139704648E+02  5.139704648E+02  0.000000000E+00  0.00000E+00  9.000E+00
      25     1     1     2     0     0  3.068433872E+02  2.036674282E+02  1.760727455E+02  4.269190758E+02  1.250000000E+02  0.00000E+00  9.000E+00
      25     1     1     2     0     0 -3.036565793E+02 -2.082274839E+02 -2.399883252E+02  4.569304098E+02  1.250000000E+02  0.00000E+00  9.000E+00
      21     1     1     2   502   511 -3.186807906E+00  4.560055654E+00 -3.989491984E+01  4.028094439E+01  4.768371582E-07  0.00000E+00  9.000E+00
#rwgt            1           1   2.8657541850580562E-002           4       63410           0
</event>
<event>
      5   9999  3.19816E-02  4.99206E+02 -1.00000E+00  9.88716E-02
      21    -1     0     0   502   512  0.000000000E+00  0.000000000E+00  1.627578087E+03  1.627578087E+03  0.000000000E+00  0.00000E+00  9.000E+00
      21    -1     0     0   501   502  0.000000000E+00  0.000000000E+00 -4.558122039E+02  4.558122039E+02  0.000000000E+00  0.00000E+00  9.000E+00
      25     1     1     2     0     0 -3.510285942E+02 -7.341764253E+02  5.830672070E+02  1.008874851E+03  1.250000000E+02  0.00000E+00  9.000E+00
      25     1     1     2     0     0 -1.029046817E-03  3.792326260E+02  2.459394420E+02  4.689654505E+02  1.250000000E+02  0.00000E+00  9.000E+00
      21     1     1     2   501   512  3.510296233E+02  3.549437992E+02  3.427592342E+02  6.055499894E+02  1.265191952E-05  0.00000E+00  9.000E+00
#rwgt            2          11   2.0793627208717195E-003           4       63782           0
</event>
<event>
      5   9999  3.19816E-02  5.32962E+00 -1.00000E+00  2.33772E-01
      21    -1     0     0   502   501  0.000000000E+00  0.000000000E+00  1.322048114E+03  1.322048114E+03  0.000000000E+00  0.00000E+00  9.000E+00
      21    -1     0     0   501   511  0.000000000E+00  0.000000000E+00 -3.401163800E+02  3.401163800E+02  0.000000000E+00  0.00000E+00  9.000E+00
      25     1     1     2     0     0 -2.682243248E+02 -6.133736766E+01 -2.206892767E+02  3.742129313E+02  1.250000000E+02  0.00000E+00  9.000E+00
      25     1     1     2     0     0  2.702071935E+02  5.639033881E+01  1.226555979E+03  1.263430397E+03  1.250000000E+02  0.00000E+00  9.000E+00
      21     1     1     2   502   511 -1.982868736E+00  4.947028851E+00 -2.393496833E+01  2.452116580E+01  3.371747881E-07  0.00000E+00  9.000E+00
#rwgt            1           1   3.3684520662662837E-002           4       63802           0
</event>
<event>
      5   9999  3.19816E-02  6.02176E+01 -1.00000E+00  1.34619E-01
      21    -1     0     0   502   501  0.000000000E+00  0.000000000E+00  2.712342740E+02  2.712342740E+02  0.000000000E+00  0.00000E+00  9.000E+00
      21    -1     0     0   501   512  0.000000000E+00  0.000000000E+00 -3.422062671E+02  3.422062671E+02  0.000000000E+00  0.00000E+00  9.000E+00
      25     1     1     2     0     0 -8.216700132E+01 -1.168080096E+01 -2.669413946E+02  3.062197991E+02  1.250000000E+02  0.00000E+00  9.000E+00
      25     1     1     2     0     0  2.920000462E+01  4.032785991E+01  2.061244158E+02  2.461529024E+02  1.250000000E+02  0.00000E+00  9.000E+00
      21     1     1     2   502   512  5.296699670E+01 -2.864705894E+01 -1.015501430E+01  6.106783966E+01  8.172577143E-07  0.00000E+00  9.000E+00
#rwgt            1           1   2.6750066621054377E-002           4       64238           0
</event>
<event>
      5   9999  3.19816E-02  1.41548E+02 -1.00000E+00  1.17401E-01
      21    -1     0     0   511   501  0.000000000E+00  0.000000000E+00  3.338775345E+02  3.338775345E+02  0.000000000E+00  0.00000E+00  9.000E+00
      21    -1     0     0   501   502  0.000000000E+00  0.000000000E+00 -1.384006231E+03  1.384006231E+03  0.000000000E+00  0.00000E+00  9.000E+00
      25     1     1     2     0     0  4.652541079E+02 -1.005170469E+02 -1.641201874E+02  5.187730694E+02  1.250000000E+02  0.00000E+00  9.000E+00
      25     1     1     2     0     0 -5.978492639E+02  5.097537480E+01 -8.586329602E+02  1.054939710E+03  1.250000000E+02  0.00000E+00  9.000E+00
      21     1     1     2   511   502  1.325951560E+02  4.954167212E+01 -2.737554935E+01  1.441709866E+02  1.936921693E-06  0.00000E+00  9.000E+00
#rwgt            1           1   2.3624581710328028E-002           4       64286           0
</event>
<event>
      5   9999  3.19816E-02  5.12913E+01 -1.00000E+00  1.38447E-01
       2    -1     0     0   502     0  0.000000000E+00  0.000000000E+00  2.022720578E+03  2.022720578E+03  0.000000000E+00  0.00000E+00  9.000E+00
      21    -1     0     0   501   502  0.000000000E+00  0.000000000E+00 -4.765733445E+01  4.765733445E+01  0.000000000E+00  0.00000E+00  9.000E+00
      25     1     1     2     0     0  9.695513781E+01 -1.832327509E+02  6.977923459E+02  7.385889911E+02  1.250000000E+02  0.00000E+00  9.000E+00
      25     1     1     2     0     0 -1.388697936E+02  2.127955067E+02  1.229524008E+03  1.261713531E+03  1.250000000E+02  0.00000E+00  9.000E+00
       2     1     1     2   501     0  4.191465584E+01 -2.956275583E+01  4.774688959E+01  7.007539063E+01  6.743495762E-07  0.00000E+00  9.000E+00
#rwgt            2          18   3.0939610966819995E-004           4       64364           0
</event>
<event>
      5   9999  3.19816E-02  2.48874E+01 -1.00000E+00  1.58898E-01
      21    -1     0     0   511   501  0.000000000E+00  0.000000000E+00  3.215812011E+02  3.215812011E+02  0.000000000E+00  0.00000E+00  9.000E+00
      21    -1     0     0   501   502  0.000000000E+00  0.000000000E+00 -1.869567468E+02  1.869567468E+02  0.000000000E+00  0.00000E+00  9.000E+00
      25     1     1     2     0     0  4.336205809E+01 -1.526413395E+02  7.520720519E+01  2.155476057E+02  1.250000000E+02  0.00000E+00  9.000E+00
      25     1     1     2     0     0 -6.085121864E+01  1.703475458E+02 -9.127891629E+00  2.200669797E+02  1.250000000E+02  0.00000E+00  9.000E+00
      21     1     1     2   511   502  1.748916055E+01 -1.770620630E+01  6.854514071E+01  7.292336246E+01  9.536743164E-07  0.00000E+00  9.000E+00
#rwgt            1           1   3.0787051622884060E-002           4       64383           0
</event>
<event>
      5   9999  3.19816E-02  1.88388E+01 -1.00000E+00  1.68541E-01
      21    -1     0     0   502   501  0.000000000E+00  0.000000000E+00  5.247840916E+01  5.247840916E+01  0.000000000E+00  0.00000E+00  9.000E+00
       2    -1     0     0   501     0  0.000000000E+00  0.000000000E+00 -2.014308206E+03  2.014308206E+03  0.000000000E+00  0.00000E+00  9.000E+00
      25     1     1     2     0     0 -1.664980128E+02  7.462283266E+00 -1.546111395E+03  1.560084203E+03  1.250000000E+02  0.00000E+00  9.000E+00
      25     1     1     2     0     0  1.562117809E+02  8.320394820E+00 -1.770400310E+02  2.672817278E+02  1.250000000E+02  0.00000E+00  9.000E+00
       2     1     1     2   502     0  1.028623191E+01 -1.578267809E+01 -2.386783705E+02  2.394206842E+02  3.814697266E-06  0.00000E+00  9.000E+00
#rwgt            1           1   3.0130252559913886E-002           4       64531           0
</event>
<event>
      5   9999  3.19816E-02  1.46749E+01 -1.00000E+00  1.78285E-01
      21    -1     0     0   502   501  0.000000000E+00  0.000000000E+00  1.707776206E+03  1.707776206E+03  0.000000000E+00  0.00000E+00  9.000E+00
      21    -1     0     0   511   502  0.000000000E+00  0.000000000E+00 -5.043712070E+02  5.043712070E+02  0.000000000E+00  0.00000E+00  9.000E+00
      25     1     1     2     0     0  5.000211332E+02  6.631036695E+02  1.069510276E+03  1.359854713E+03  1.250000000E+02  0.00000E+00  9.000E+00
      25     1     1     2     0     0 -4.887967667E+02 -6.536503492E+02  1.377336459E+02  8.371240144E+02  1.250000000E+02  0.00000E+00  9.000E+00
      21     1     1     2   511   501 -1.122436651E+01 -9.453320245E+00 -3.838923631E+00  1.516868491E+01  2.827296549E-07  0.00000E+00  9.000E+00
#rwgt            1           1   3.1860766555021451E-002           4       64640           0
</event>
<event>
      5   9999  3.19816E-02  4.04208E+02 -1.00000E+00  1.01549E-01
       2    -1     0     0   502     0  0.000000000E+00  0.000000000E+00  3.275098000E+03  3.275098000E+03  0.000000000E+00  0.00000E+00  9.000E+00
      21    -1     0     0   501   502  0.000000000E+00  0.000000000E+00 -2.377467291E+02  2.377467291E+02  0.000000000E+00  0.00000E+00  9.000E+00
      25     1     1     2     0     0  2.594420003E+02 -1.370439788E+01  2.103069971E+02  3.568641129E+02  1.250000000E+02  0.00000E+00  9.000E+00
      25     1     1     2     0     0  1.445169081E+02 -4.731772230E-01 -8.989609407E+01  2.111673941E+02  1.250000000E+02  0.00000E+00  9.000E+00
       2     1     1     2   501     0 -4.039589084E+02  1.417757511E+01  2.916940368E+03  2.944813222E+03  4.315837288E-05  0.00000E+00  9.000E+00
#rwgt            1           1   2.5337296785895278E-002           4       64872           0
</event>
<event>
      5   9999  3.19816E-02  9.92116E+01 -1.00000E+00  1.23983E-01
      21    -1     0     0   511   501  0.000000000E+00  0.000000000E+00  8.459060148E+02  8.459060148E+02  0.000000000E+00  0.00000E+00  9.000E+00
      21    -1     0     0   501   502  0.000000000E+00  0.000000000E+00 -5.939944939E+02  5.939944939E+02  0.000000000E+00  0.00000E+00  9.000E+00
      25     1     1     2     0     0  5.252533756E+01  6.098999756E+02  2.643006482E+02  6.783927506E+02  1.250000000E+02  0.00000E+00  9.000E+00
      25     1     1     2     0     0 -1.404094021E+02 -5.638638055E+02 -1.291950363E+02  6.082545098E+02  1.250000000E+02  0.00000E+00  9.000E+00
      21     1     1     2   511   502  8.788406450E+01 -4.603617016E+01  1.168059089E+02  1.532532483E+02  2.336015456E-06  0.00000E+00  9.000E+00
#rwgt            1           1   2.7022997040008642E-002           4       64965           0
</event>
<event>
      5   9999  3.19816E-02  1.39255E+02 -1.00000E+00  1.17687E-01
       2    -1     0     0   502     0  0.000000000E+00  0.000000000E+00  1.663684677E+03  1.663684677E+03  0.000000000E+00  0.00000E+00  9.000E+00
      21    -1     0     0   501   502  0.000000000E+00  0.000000000E+00 -6.140343574E+02  6.140343574E+02  0.000000000E+00  0.00000E+00  9.000E+00
      25     1     1     2     0     0 -4.846030372E+02  4.813906375E+02  1.157412396E+03  1.349742755E+03  1.250000000E+02  0.00000E+00  9.000E+00
      25     1     1     2     0     0  4.279920549E+02 -6.086195858E+02 -1.732314246E+02  7.740989121E+02  1.250000000E+02  0.00000E+00  9.000E+00
       2     1     1     2   501     0  5.661098234E+01  1.272289483E+02  6.546934752E+01  1.538773670E+02  2.523185073E-06  0.00000E+00  9.000E+00
#rwgt            2          18   6.5615237579232110E-004           4       65021           0
</event>
<event>
      5   9999  3.19816E-02  4.11655E+01 -1.00000E+00  1.44071E-01
      21    -1     0     0   502   501  0.000000000E+00  0.000000000E+00  6.619628254E+02  6.619628254E+02  0.000000000E+00  0.00000E+00  9.000E+00
      21    -1     0     0   511   502  0.000000000E+00  0.000000000E+00 -1.701738728E+02  1.701738728E+02  0.000000000E+00  0.00000E+00  9.000E+00
      25     1     1     2     0     0 -1.333396493E+02 -1.532242604E+02 -1.382102660E+01  2.388998887E+02  1.250000000E+02  0.00000E+00  9.000E+00
      25     1     1     2     0     0  1.343668126E+02  1.120716207E+02  5.083710958E+02  5.519788579E+02  1.250000000E+02  0.00000E+00  9.000E+00
      21     1     1     2   511   501 -1.027163285E+00  4.115263964E+01 -2.761116582E+00  4.125795170E+01  5.339525004E-07  0.00000E+00  9.000E+00
#rwgt            1           1   2.9264555982888438E-002           4       65070           0
</event>
<event>
      5   9999  3.19816E-02  7.65552E+01 -1.00000E+00  1.29282E-01
      21    -1     0     0   502   501  0.000000000E+00  0.000000000E+00  2.408628039E+02  2.408628039E+02  0.000000000E+00  0.00000E+00  9.000E+00
       1    -1     0     0   501     0  0.000000000E+00  0.000000000E+00 -1.222506395E+03  1.222506395E+03  0.000000000E+00  0.00000E+00  9.000E+00
      25     1     1     2     0     0  2.626362003E+02 -9.801265633E+01 -8.735640623E+01  3.191244212E+02  1.250000000E+02  0.00000E+00  9.000E+00
      25     1     1     2     0     0 -3.245219441E+02  5.294765723E+01 -1.282946582E+02  3.744361974E+02  1.250000000E+02  0.00000E+00  9.000E+00
       1     1     1     2   502     0  6.188574382E+01  4.506499910E+01 -7.659925266E+02  7.698085803E+02  0.000000000E+00  0.00000E+00  9.000E+00
#rwgt            1           1   3.1724590970913999E-002           4       65179           0
</event>
<event>
      5   9999  3.19816E-02  5.47439E+02 -1.00000E+00  9.77464E-02
      21    -1     0     0   502   501  0.000000000E+00  0.000000000E+00  6.821415786E+02  6.821415786E+02  0.000000000E+00  0.00000E+00  9.000E+00
       1    -1     0     0   501     0  0.000000000E+00  0.000000000E+00 -1.127244203E+03  1.127244203E+03  0.000000000E+00  0.00000E+00  9.000E+00
      25     1     1     2     0     0  3.599684162E+02 -4.669640550E+02 -1.334071957E+02  6.172966622E+02  1.250000000E+02  0.00000E+00  9.000E+00
      25     1     1     2     0     0  2.048838317E+01  7.333735790E+01  3.225829528E+02  3.542356608E+02  1.250000000E+02  0.00000E+00  9.000E+00
       1     1     1     2   502     0 -3.804567994E+02  3.936266971E+02 -6.342783813E+02  8.378534584E+02  7.629394531E-06  0.00000E+00  9.000E+00
#rwgt            1           1   2.8675418631356062E-002           4       65224           0
</event>
<event>
      5   9999  3.19816E-02  1.82425E+02 -1.00000E+00  1.13122E-01
      21    -1     0     0   511   501  0.000000000E+00  0.000000000E+00  1.918039942E+03  1.918039942E+03  0.000000000E+00  0.00000E+00  9.000E+00
      21    -1     0     0   501   502  0.000000000E+00  0.000000000E+00 -4.112819680E+02  4.112819680E+02  0.000000000E+00  0.00000E+00  9.000E+00
      25     1     1     2     0     0 -3.119089307E+01 -5.086098504E+02  1.366515321E+03  1.463777980E+03  1.250000000E+02  0.00000E+00  9.000E+00
      25     1     1     2     0     0 -1.126553223E+02  3.964171784E+02 -2.035607528E+02  4.763399847E+02  1.250000000E+02  0.00000E+00  9.000E+00
      21     1     1     2   511   502  1.438462154E+02  1.121926720E+02  3.438034053E+02  3.892039450E+02  5.394796609E-06  0.00000E+00  9.000E+00
#rwgt            1           1   3.3100672216494632E-002           4       65253           0
</event>
<event>
      5   9999  3.19816E-02  8.56258E+01 -1.00000E+00  1.26937E-01
      21    -1     0     0   502   501  0.000000000E+00  0.000000000E+00  4.390491720E+02  4.390491720E+02  0.000000000E+00  0.00000E+00  9.000E+00
      21    -1     0     0   501   512  0.000000000E+00  0.000000000E+00 -4.103387509E+02  4.103387509E+02  0.000000000E+00  0.00000E+00  9.000E+00
      25     1     1     2     0     0 -3.477847635E+01 -1.314003557E+02  1.025844428E+02  2.112443225E+02  1.250000000E+02  0.00000E+00  9.000E+00
      25     1     1     2     0     0  5.733054820E+01  2.140029339E+02  2.173519828E+02  3.345906930E+02  1.250000000E+02  0.00000E+00  9.000E+00
      21     1     1     2   502   512 -2.255207186E+01 -8.260257815E+01 -2.912260045E+02  3.035529074E+02  0.000000000E+00  0.00000E+00  9.000E+00
#rwgt            1           1   3.1446388563923289E-002           4       65330           0
</event>
<event>
      5   9999  3.19816E-02  3.29524E+01 -1.00000E+00  1.50261E-01
      21    -1     0     0   511   501  0.000000000E+00  0.000000000E+00  2.200897975E+02  2.200897975E+02  0.000000000E+00  0.00000E+00  9.000E+00
      21    -1     0     0   501   502  0.000000000E+00  0.000000000E+00 -9.753595727E+02  9.753595727E+02  0.000000000E+00  0.00000E+00  9.000E+00
      25     1     1     2     0     0  4.275023571E+02  1.492641707E+00 -3.934477301E+02  5.942950527E+02  1.250000000E+02  0.00000E+00  9.000E+00
      25     1     1     2     0     0 -4.226995680E+02  3.110784529E+01 -3.565159934E+02  5.677774885E+02  1.250000000E+02  0.00000E+00  9.000E+00
      21     1     1     2   511   502 -4.802789096E+00 -3.260048700E+01 -5.306051728E+00  3.337682910E+01  3.371747881E-07  0.00000E+00  9.000E+00
#rwgt            1           1   3.0968122995129473E-002           4       65389           0
</event>
<event>
      5   9999  3.19816E-02  4.62452E+01 -1.00000E+00  1.41038E-01
      21    -1     0     0   502   501  0.000000000E+00  0.000000000E+00  1.769262713E+02  1.769262713E+02  0.000000000E+00  0.00000E+00  9.000E+00
       2    -1     0     0   501     0  0.000000000E+00  0.000000000E+00 -7.377338155E+02  7.377338155E+02  0.000000000E+00  0.00000E+00  9.000E+00
      25     1     1     2     0     0  6.786574335E+01  1.084234682E+02  5.495070919E+01  1.870988723E+02  1.250000000E+02  0.00000E+00  9.000E+00
      25     1     1     2     0     0 -1.130877993E+02 -9.874964674E+01 -1.191988588E+02  2.288530337E+02  1.250000000E+02  0.00000E+00  9.000E+00
       2     1     1     2   502     0  4.522205599E+01 -9.673821488E+00 -4.965593947E+02  4.987081808E+02  7.629394531E-06  0.00000E+00  9.000E+00
#rwgt            1           1   2.7906398332482634E-002           4       65542           0
</event>
<event>
      5   9999  3.19816E-02  1.72676E+01 -1.00000E+00  1.71811E-01
      21    -1     0     0   511   501  0.000000000E+00  0.000000000E+00  2.097791405E+03  2.097791405E+03  0.000000000E+00  0.00000E+00  9.000E+00
      21    -1     0     0   501   502  0.000000000E+00  0.000000000E+00 -4.741628822E+01  4.741628822E+01  0.000000000E+00  0.00000E+00  9.000E+00
      25     1     1     2     0     0  8.833029610E+01  2.367364319E+02  1.454716396E+03  1.481779731E+03  1.250000000E+02  0.00000E+00  9.000E+00
      25     1     1     2     0     0 -7.578457482E+01 -2.248716068E+02  5.118971195E+02  5.779050115E+02  1.250000000E+02  0.00000E+00  9.000E+00
      21     1     1     2   511   502 -1.254572128E+01 -1.186482506E+01  8.376160089E+01  8.552295002E+01  1.907348633E-06  0.00000E+00  9.000E+00
#rwgt            1           1   2.4705168869316195E-002           4       65638           0
</event>
<event>
      5   9999  3.19816E-02  6.90316E+01 -1.00000E+00  1.31528E-01
      21    -1     0     0   502   501  0.000000000E+00  0.000000000E+00  9.161807114E+02  9.161807114E+02  0.000000000E+00  0.00000E+00  9.000E+00
      -2    -1     0     0     0   502  0.000000000E+00  0.000000000E+00 -4.707544845E+02  4.707544845E+02  0.000000000E+00  0.00000E+00  9.000E+00
      25     1     1     2     0     0 -1.581447687E+02  1.286760457E+02 -1.092600689E+02  2.629259502E+02  1.250000000E+02  0.00000E+00  9.000E+00
      25     1     1     2     0     0  1.629000333E+02 -1.975436358E+02  8.104583174E+02  8.590853236E+02  1.250000000E+02  0.00000E+00  9.000E+00
      -2     1     1     2     0   501 -4.755264526E+00  6.886759010E+01 -2.557720216E+02  2.649239222E+02  3.814697266E-06  0.00000E+00  9.000E+00
#rwgt            1           1   3.0835145852697515E-002           4       65776           0
</event>
<event>
      5   9999  3.19816E-02  2.61183E+01 -1.00000E+00  1.57340E-01
      21    -1     0     0   502   511  0.000000000E+00  0.000000000E+00  2.358768341E+02  2.358768341E+02  0.000000000E+00  0.00000E+00  9.000E+00
      21    -1     0     0   501   502  0.000000000E+00  0.000000000E+00 -1.437276361E+03  1.437276361E+03  0.000000000E+00  0.00000E+00  9.000E+00
      25     1     1     2     0     0  1.728607073E+02  3.251961616E+02 -7.364342836E+00  3.889892045E+02  1.250000000E+02  0.00000E+00  9.000E+00
      25     1     1     2     0     0 -1.844357717E+02 -3.017827922E+02 -1.200092079E+03  1.257352539E+03  1.250000000E+02  0.00000E+00  9.000E+00
      21     1     1     2   501   511  1.157506442E+01 -2.341336941E+01  6.056895223E+00  2.681145209E+01  4.129530925E-07  0.00000E+00  9.000E+00
#rwgt            1           1   2.7212738562714750E-002           4       65871           0
</event>
<event>
      5   9999  3.19816E-02  6.71134E+01 -1.00000E+00  1.32154E-01
      21    -1     0     0   502   501  0.000000000E+00  0.000000000E+00  7.094010758E+02  7.094010758E+02  0.000000000E+00  0.00000E+00  9.000E+00
      21    -1     0     0   501   512  0.000000000E+00  0.000000000E+00 -3.798835735E+02  3.798835735E+02  0.000000000E+00  0.00000E+00  9.000E+00
      25     1     1     2     0     0  2.315943643E+02 -2.425345904E+02 -1.324939297E+02  3.816262812E+02  1.250000000E+02  0.00000E+00  9.000E+00
      25     1     1     2     0     0 -2.986374645E+02  2.456062736E+02  4.885725614E+02  6.354800741E+02  1.250000000E+02  0.00000E+00  9.000E+00
      21     1     1     2   502   512  6.704310020E+01 -3.071683200E+00 -2.656112946E+01  7.217829397E+01  6.743495762E-07  0.00000E+00  9.000E+00
#rwgt            1           1   2.5447437360062244E-002           4       66064           0
</event>
<event>
      5   9999  3.19816E-02  8.70320E+01 -1.00000E+00  1.26603E-01
      21    -1     0     0   502   501  0.000000000E+00  0.000000000E+00  1.978110491E+02  1.978110491E+02  0.000000000E+00  0.00000E+00  9.000E+00
      21    -1     0     0   511   502  0.000000000E+00  0.000000000E+00 -9.114728446E+02  9.114728446E+02  0.000000000E+00  0.00000E+00  9.000E+00
      25     1     1     2     0     0  2.185771252E+02  2.380446338E+02 -1.046904210E+02  3.619755400E+02  1.250000000E+02  0.00000E+00  9.000E+00
      25     1     1     2     0     0 -2.732471771E+02 -1.703264739E+02 -5.031442474E+02  6.102903089E+02  1.250000000E+02  0.00000E+00  9.000E+00
      21     1     1     2   511   501  5.467005189E+01 -6.771815988E+01 -1.058271271E+02  1.370180447E+02  1.348699152E-06  0.00000E+00  9.000E+00
#rwgt            1           1   3.1846235807469168E-002           4       66132           0
</event>
<event>
      5   9999  3.19816E-02  5.12009E+01 -1.00000E+00  1.38490E-01
      21    -1     0     0   502   501  0.000000000E+00  0.000000000E+00  2.203308037E+03  2.203308037E+03  0.000000000E+00  0.00000E+00  9.000E+00
      21    -1     0     0   512   502  0.000000000E+00  0.000000000E+00 -2.707812145E+03  2.707812145E+03  0.000000000E+00  0.00000E+00  9.000E+00
      25     1     1     2     0     0 -9.006393638E+02 -1.338712531E+03  1.543226096E+03  2.236174029E+03  1.250000000E+02  0.00000E+00  9.000E+00
      25     1     1     2     0     0  8.533455621E+02  1.319095537E+03 -1.679457980E+03  2.303131735E+03  1.250000000E+02  0.00000E+00  9.000E+00
      21     1     1     2   512   501  4.729380170E+01  1.961699380E+01 -3.682722248E+02  3.718144183E+02  5.394796609E-06  0.00000E+00  9.000E+00
#rwgt            1           1   9.5242684399450845E-003           4       66205           0
</event>
<event>
      5   9999  3.19816E-02  1.79509E+02 -1.00000E+00  1.13384E-01
      21    -1     0     0   511   501  0.000000000E+00  0.000000000E+00  2.547368547E+03  2.547368547E+03  0.000000000E+00  0.00000E+00  9.000E+00
      21    -1     0     0   501   502  0.000000000E+00  0.000000000E+00 -5.401339861E+01  5.401339861E+01  0.000000000E+00  0.00000E+00  9.000E+00
      25     1     1     2     0     0  1.789099048E+01  1.278755602E+02  6.318300812E+02  6.568915420E+02  1.250000000E+02  0.00000E+00  9.000E+00
      25     1     1     2     0     0 -1.184826298E+01  5.153128414E+01  8.767138793E+01  1.615769997E+02  1.250000000E+02  0.00000E+00  9.000E+00
      21     1     1     2   511   502 -6.042727500E+00 -1.794068443E+02  1.773853679E+03  1.782913404E+03  3.051757812E-05  0.00000E+00  9.000E+00
#rwgt            1           1   2.7750655502770418E-002           4       66401           0
</event>
<event>
      5   9999  3.19816E-02  2.21792E+02 -1.00000E+00  1.10037E-01
      21    -1     0     0   502   512  0.000000000E+00  0.000000000E+00  1.098372288E+02  1.098372288E+02  0.000000000E+00  0.00000E+00  9.000E+00
      21    -1     0     0   501   502  0.000000000E+00  0.000000000E+00 -1.279795442E+03  1.279795442E+03  0.000000000E+00  0.00000E+00  9.000E+00
      25     1     1     2     0     0 -5.099296278E+01 -5.372651488E+01 -5.509469910E+02  5.697845273E+02  1.250000000E+02  0.00000E+00  9.000E+00
      25     1     1     2     0     0  8.165853443E+01  2.733886708E+02 -3.099111785E+02  4.394080338E+02  1.250000000E+02  0.00000E+00  9.000E+00
      21     1     1     2   501   512 -3.066557165E+01 -2.196621560E+02 -3.091000441E+02  3.804401100E+02  0.000000000E+00  0.00000E+00  9.000E+00
#rwgt            1           1   2.8654361906776924E-002           4       66457           0
</event>
<event>
      5   9999  3.19816E-02  7.85384E+01 -1.00000E+00  1.28738E-01
      21    -1     0     0   502   501  0.000000000E+00  0.000000000E+00  1.134690483E+03  1.134690483E+03  0.000000000E+00  0.00000E+00  9.000E+00
      21    -1     0     0   501   511  0.000000000E+00  0.000000000E+00 -1.318970163E+02  1.318970163E+02  0.000000000E+00  0.00000E+00  9.000E+00
      25     1     1     2     0     0 -9.244396593E+01  9.280887599E+01  1.226908953E+02  2.187176950E+02  1.250000000E+02  0.00000E+00  9.000E+00
      25     1     1     2     0     0  2.949177177E+01 -4.584826323E+01  9.395340516E+02  9.493793036E+02  1.250000000E+02  0.00000E+00  9.000E+00
      21     1     1     2   502   511  6.295219415E+01 -4.696061276E+01 -5.943148024E+01  9.849050078E+01  9.536743164E-07  0.00000E+00  9.000E+00
#rwgt            1           1   2.7859085170358885E-002           4       66495           0
</event>
<event>
      5   9999  3.19816E-02  8.17888E+01 -1.00000E+00  1.27886E-01
      21    -1     0     0   502   501  0.000000000E+00  0.000000000E+00  2.620303248E+02  2.620303248E+02  0.000000000E+00  0.00000E+00  9.000E+00
      21    -1     0     0   512   502  0.000000000E+00  0.000000000E+00 -1.080290029E+03  1.080290029E+03  0.000000000E+00  0.00000E+00  9.000E+00
      25     1     1     2     0     0 -3.466969514E+02  5.082194597E+01 -3.411300769E+02  5.047537773E+02  1.250000000E+02  0.00000E+00  9.000E+00
      25     1     1     2     0     0  2.758724340E+02 -9.172786656E+01  3.551097956E+01  3.184425082E+02  1.250000000E+02  0.00000E+00  9.000E+00
      21     1     1     2   512   501  7.082451734E+01  4.090592060E+01 -5.126406069E+02  5.191240685E+02  1.078959322E-05  0.00000E+00  9.000E+00
#rwgt            1           1   2.9542536704682893E-002           4       66588           0
</event>
<event>
      5   9999  3.19816E-02  1.92787E+02 -1.00000E+00  1.12232E-01
      21    -1     0     0   502   501  0.000000000E+00  0.000000000E+00  4.070107375E+02  4.070107375E+02  0.000000000E+00  0.00000E+00  9.000E+00
      21    -1     0     0   501   511  0.000000000E+00  0.000000000E+00 -6.837158705E+02  6.837158705E+02  0.000000000E+00  0.00000E+00  9.000E+00
      25     1     1     2     0     0 -7.697321333E-01  8.217749025E+01 -1.769357304E+02  2.317002052E+02  1.250000000E+02  0.00000E+00  9.000E+00
      25     1     1     2     0     0  1.782290012E+02 -1.575107588E+02  3.075445443E+02  4.083918005E+02  1.250000000E+02  0.00000E+00  9.000E+00
      21     1     1     2   502   511 -1.774592691E+02  7.533326850E+01 -4.073139469E+02  4.506346023E+02  7.629394531E-06  0.00000E+00  9.000E+00
#rwgt            2          11   3.1714238963030041E-003           4       66696           0
</event>
<event>
      5   9999  3.19816E-02  1.22510E+02 -1.00000E+00  1.19988E-01
      21    -1     0     0   512   501  0.000000000E+00  0.000000000E+00  1.764076406E+03  1.764076406E+03  0.000000000E+00  0.00000E+00  9.000E+00
      21    -1     0     0   501   502  0.000000000E+00  0.000000000E+00 -4.363385773E+02  4.363385773E+02  0.000000000E+00  0.00000E+00  9.000E+00
      25     1     1     2     0     0 -5.591785704E+02 -4.690856320E+02  3.348345364E+02  8.126876218E+02  1.250000000E+02  0.00000E+00  9.000E+00
      25     1     1     2     0     0  5.920010919E+02  3.510541253E+02  4.513594377E+02  8.324990292E+02  1.250000000E+02  0.00000E+00  9.000E+00
      21     1     1     2   512   502 -3.282252153E+01  1.180315067E+02  5.415438545E+02  5.552283322E+02  7.629394531E-06  0.00000E+00  9.000E+00
#rwgt            2          11   2.4170920291999684E-003           4       66821           0
</event>
<event>
      5   9999  3.19816E-02  3.00802E+01 -1.00000E+00  1.52959E-01
      21    -1     0     0   502   501  0.000000000E+00  0.000000000E+00  1.288265825E+02  1.288265825E+02  0.000000000E+00  0.00000E+00  9.000E+00
      21    -1     0     0   511   502  0.000000000E+00  0.000000000E+00 -9.812605436E+02  9.812605436E+02  0.000000000E+00  0.00000E+00  9.000E+00
      25     1     1     2     0     0 -2.772935885E+02  1.537763153E+02 -3.553631393E+02  4.923889217E+02  1.250000000E+02  0.00000E+00  9.000E+00
      25     1     1     2     0     0  2.840141589E+02 -1.244564849E+02 -4.342157194E+02  5.480161951E+02  1.250000000E+02  0.00000E+00  9.000E+00
      21     1     1     2   511   501 -6.720570369E+00 -2.931983040E+01 -6.285510243E+01  6.968200931E+01  0.000000000E+00  0.00000E+00  9.000E+00
#rwgt            1           1   2.7191164695567701E-002           4       66841           0
</event>
<event>
      5   9999  3.19816E-02  1.65736E+02 -1.00000E+00  1.14702E-01
      21    -1     0     0   502   501  0.000000000E+00  0.000000000E+00  4.516483144E+02  4.516483144E+02  0.000000000E+00  0.00000E+00  9.000E+00
      21    -1     0     0   501   512  0.000000000E+00  0.000000000E+00 -8.802835231E+02  8.802835231E+02  0.000000000E+00  0.00000E+00  9.000E+00
      25     1     1     2     0     0  3.305849964E+02  2.026827709E+02 -3.415389373E+02  5.316395312E+02  1.250000000E+02  0.00000E+00  9.000E+00
      25     1     1     2     0     0 -4.205883483E+02 -6.351475998E+01  1.860479143E+02  4.807988247E+02  1.250000000E+02  0.00000E+00  9.000E+00
      21     1     1     2   502   512  9.000335194E+01 -1.391680109E+02 -2.731441857E+02  3.194934816E+02  3.814697266E-06  0.00000E+00  9.000E+00
#rwgt            1           1   3.1294895308458442E-002           4       66954           0
</event>
<event>
      5   9999  3.19816E-02  2.48369E+01 -1.00000E+00  1.58964E-01
      21    -1     0     0   502   501  0.000000000E+00  0.000000000E+00  5.768981286E+02  5.768981286E+02  0.000000000E+00  0.00000E+00  9.000E+00
      21    -1     0     0   511   502  0.000000000E+00  0.000000000E+00 -1.070567587E+03  1.070567587E+03  0.000000000E+00  0.00000E+00  9.000E+00
      25     1     1     2     0     0 -3.005769577E+02  6.908602774E+02 -1.515565870E+02  7.786069801E+02  1.250000000E+02  0.00000E+00  9.000E+00
      25     1     1     2     0     0  3.242390162E+02 -6.833117778E+02 -3.068536653E+02  8.257300390E+02  1.250000000E+02  0.00000E+00  9.000E+00
      21     1     1     2   511   501 -2.366205851E+01 -7.548499576E+00 -3.525920617E+01  4.312869670E+01  6.743495762E-07  0.00000E+00  9.000E+00
#rwgt            1           1   3.4151263012838627E-002           4       67012           0
</event>
<event>
      5   9999  3.19816E-02  2.17557E+01 -1.00000E+00  1.63409E-01
      -1    -1     0     0     0   501  0.000000000E+00  0.000000000E+00  2.656471399E+02  2.656471399E+02  0.000000000E+00  0.00000E+00  9.000E+00
      21    -1     0     0   501   502  0.000000000E+00  0.000000000E+00 -1.269006910E+03  1.269006910E+03  0.000000000E+00  0.00000E+00  9.000E+00
      25     1     1     2     0     0  1.594382254E+02 -1.311088094E+02 -4.393932132E+02  5.012997740E+02  1.250000000E+02  0.00000E+00  9.000E+00
      25     1     1     2     0     0 -1.403808851E+02  1.416031122E+02 -7.807678774E+02  8.154641087E+02  1.250000000E+02  0.00000E+00  9.000E+00
      -1     1     1     2     0   502 -1.905734027E+01 -1.049430276E+01  2.168013202E+02  2.178901674E+02  5.394796609E-06  0.00000E+00  9.000E+00
#rwgt            1           1   2.8544392478005436E-002           4       67172           0
</event>
<event>
      5   9999  3.19816E-02  1.49525E+02 -1.00000E+00  1.16448E-01
      21    -1     0     0   502   511  0.000000000E+00  0.000000000E+00  7.746289653E+02  7.746289653E+02  0.000000000E+00  0.00000E+00  9.000E+00
      21    -1     0     0   501   502  0.000000000E+00  0.000000000E+00 -3.664958064E+02  3.664958064E+02  0.000000000E+00  0.00000E+00  9.000E+00
      25     1     1     2     0     0 -2.301902177E+02 -2.107399456E+02  3.603821627E+01  3.381162729E+02  1.250000000E+02  0.00000E+00  9.000E+00
      25     1     1     2     0     0  2.928615505E+02  7.498294832E+01 -7.153124899E+01  3.348612397E+02  1.250000000E+02  0.00000E+00  9.000E+00
      21     1     1     2   501   511 -6.267133282E+01  1.357569973E+02  4.436261916E+02  4.681472591E+02  0.000000000E+00  0.00000E+00  9.000E+00
#rwgt            1           1   2.9862309509673439E-002           4       67295           0
</event>
<event>
      5   9999  3.19816E-02  4.10277E+02 -1.00000E+00  1.01355E-01
      21    -1     0     0   502   501  0.000000000E+00  0.000000000E+00  1.263477659E+03  1.263477659E+03  0.000000000E+00  0.00000E+00  9.000E+00
       1    -1     0     0   501     0  0.000000000E+00  0.000000000E+00 -5.557847519E+02  5.557847519E+02  0.000000000E+00  0.00000E+00  9.000E+00
      25     1     1     2     0     0 -2.379894533E+02 -1.585733747E+02  3.359395448E+02  4.585464783E+02  1.250000000E+02  0.00000E+00  9.000E+00
      25     1     1     2     0     0  6.475443116E+02  1.342351302E+02  5.908705922E+02  8.955924087E+02  1.250000000E+02  0.00000E+00  9.000E+00
       1     1     1     2   502     0 -4.095548583E+02  2.433824453E+01 -2.191172298E+02  4.651235240E+02  7.629394531E-06  0.00000E+00  9.000E+00
#rwgt            2          12   3.7835685799042783E-004           4       67570           0
</event>
<event>
      5   9999  3.19816E-02  1.61010E+01 -1.00000E+00  1.74534E-01
      21    -1     0     0   502   501  0.000000000E+00  0.000000000E+00  7.014060618E+02  7.014060618E+02  0.000000000E+00  0.00000E+00  9.000E+00
      21    -1     0     0   501   511  0.000000000E+00  0.000000000E+00 -1.769940338E+02  1.769940338E+02  0.000000000E+00  0.00000E+00  9.000E+00
      25     1     1     2     0     0 -1.995661676E+02 -6.540093582E+01  3.912452353E+02  4.613044242E+02  1.250000000E+02  0.00000E+00  9.000E+00
      25     1     1     2     0     0  2.130872445E+02  5.665899029E+01  2.158156496E+02  3.328930903E+02  1.250000000E+02  0.00000E+00  9.000E+00
      21     1     1     2   502   511 -1.352107686E+01  8.741945529E+00 -8.264885683E+01  8.420258111E+01  1.651812370E-06  0.00000E+00  9.000E+00
#rwgt            1           1   2.7818879276408602E-002           4       67589           0
</event>
<event>
      5   9999  3.19816E-02  6.61561E+01 -1.00000E+00  1.32475E-01
      21    -1     0     0   502   501  0.000000000E+00  0.000000000E+00  4.188462006E+02  4.188462006E+02  0.000000000E+00  0.00000E+00  9.000E+00
      -2    -1     0     0     0   502  0.000000000E+00  0.000000000E+00 -6.724869770E+02  6.724869770E+02  0.000000000E+00  0.00000E+00  9.000E+00
      25     1     1     2     0     0 -1.789366210E+02 -2.478269603E+02 -1.117543515E+02  3.486410069E+02  1.250000000E+02  0.00000E+00  9.000E+00
      25     1     1     2     0     0  2.427247625E+02  2.302854317E+02 -3.645783738E+02  5.103813094E+02  1.250000000E+02  0.00000E+00  9.000E+00
      -2     1     1     2     0   501 -6.378814141E+01  1.754152859E+01  2.226919488E+02  2.323108613E+02  4.672030912E-06  0.00000E+00  9.000E+00
#rwgt            1           1   2.7139292868589876E-002           4       67797           0
</event>
<event>
      5   9999  3.19816E-02  4.28623E+02 -1.00000E+00  1.00790E-01
       1    -1     0     0   502     0  0.000000000E+00  0.000000000E+00  2.751939742E+03  2.751939742E+03  0.000000000E+00  0.00000E+00  9.000E+00
      21    -1     0     0   501   502  0.000000000E+00  0.000000000E+00 -1.041407550E+03  1.041407550E+03  0.000000000E+00  0.00000E+00  9.000E+00
      25     1     1     2     0     0 -1.271726078E+03 -2.495300793E+02  7.576212720E+02  1.506375607E+03  1.250000000E+02  0.00000E+00  9.000E+00
      25     1     1     2     0     0  1.459302826E+03 -1.358696968E+02  1.096806309E+03  1.834839064E+03  1.250000000E+02  0.00000E+00  9.000E+00
       1     1     1     2   501     0 -1.875767478E+02  3.853997762E+02 -1.438953888E+02  4.521326207E+02  3.814697266E-06  0.00000E+00  9.000E+00
#rwgt            1           1   4.1661019308163925E-002           4       67881           0
</event>
<event>
      5   9999  3.19816E-02  2.77970E+02  7.55638E-03  1.06680E-01
       1    -1     0     0   501     0  0.000000000E+00  0.000000000E+00  5.738175889E+02  5.738175889E+02  0.000000000E+00  0.00000E+00  9.000E+00
      -1    -1     0     0     0   502  0.000000000E+00  0.000000000E+00 -3.282540316E+02  3.282540316E+02  0.000000000E+00  0.00000E+00  9.000E+00
      25     1     1     2     0     0 -1.556601755E+02  4.198852727E+01 -1.512409934E+02  2.539526821E+02  1.250000000E+02  0.00000E+00  9.000E+00
      25     1     1     2     0     0  3.521500168E+00  1.906504017E+02  1.281833786E+02  2.615644379E+02  1.250000000E+02  0.00000E+00  9.000E+00
      21     1     1     2   501   502  1.521386753E+02 -2.326389290E+02  2.686211721E+02  3.865545005E+02  8.529922400E-06  0.00000E+00  9.000E+00
#rwgt            3           6   8.8558415440908865E-006           4       68029           0
</event>
<event>
      5   9999  3.19816E-02  6.74095E+01 -1.00000E+00  1.32055E-01
      21    -1     0     0   502   501  0.000000000E+00  0.000000000E+00  1.769089214E+03  1.769089214E+03  0.000000000E+00  0.00000E+00  9.000E+00
      21    -1     0     0   511   502  0.000000000E+00  0.000000000E+00 -6.786597207E+02  6.786597207E+02  0.000000000E+00  0.00000E+00  9.000E+00
      25     1     1     2     0     0  1.162332299E+02  7.718406368E+01  1.263848177E+03  1.277655963E+03  1.250000000E+02  0.00000E+00  9.000E+00
      25     1     1     2     0     0 -1.640994588E+02 -1.246484456E+02  4.673229439E+02  5.258151778E+02  1.250000000E+02  0.00000E+00  9.000E+00
      21     1     1     2   511   501  4.786622888E+01  4.746438188E+01 -6.407416276E+02  6.442777947E+02  0.000000000E+00  0.00000E+00  9.000E+00
#rwgt            1           1   2.8642769864583351E-002           4       68078           0
</event>
<event>
      5   9999  3.19816E-02  8.60215E+01 -1.00000E+00  1.26842E-01
      21    -1     0     0   502   501  0.000000000E+00  0.000000000E+00  3.403845891E+02  3.403845891E+02  0.000000000E+00  0.00000E+00  9.000E+00
      21    -1     0     0   512   502  0.000000000E+00  0.000000000E+00 -8.963647170E+02  8.963647170E+02  0.000000000E+00  0.00000E+00  9.000E+00
      25     1     1     2     0     0  4.547262492E+02  1.599492151E+02 -3.784641332E+01  4.994167239E+02  1.250000000E+02  0.00000E+00  9.000E+00
      25     1     1     2     0     0 -3.765270867E+02 -1.241079826E+02 -3.310084820E+02  5.313822104E+02  1.250000000E+02  0.00000E+00  9.000E+00
      21     1     1     2   512   501 -7.819916252E+01 -3.584123246E+01 -1.871252326E+02  2.059503718E+02  2.697398305E-06  0.00000E+00  9.000E+00
#rwgt            1           1   2.8770603162243707E-002           4       68192           0
</event>
<event>
      5   9999  3.19816E-02  7.41231E+01 -1.00000E+00  1.29974E-01
      21    -1     0     0   502   511  0.000000000E+00  0.000000000E+00  1.275413920E+03  1.275413920E+03  0.000000000E+00  0.00000E+00  9.000E+00
      21    -1     0     0   501   502  0.000000000E+00  0.000000000E+00 -3.129155881E+02  3.129155881E+02  0.000000000E+00  0.00000E+00  9.000E+00
      25     1     1     2     0     0  2.267113147E+02 -2.134417676E+02 -1.628811246E+02  3.729754270E+02  1.250000000E+02  0.00000E+00  9.000E+00
      25     1     1     2     0     0 -2.017425408E+02  2.832328109E+02  7.938434150E+02  8.756330541E+02  1.250000000E+02  0.00000E+00  9.000E+00
      21     1     1     2   501   511 -2.496877397E+01 -6.979104324E+01  3.315360420E+02  3.397210275E+02  6.607249480E-06  0.00000E+00  9.000E+00
#rwgt            1           1   2.9213308087217619E-002           4       68336           0
</event>
<event>
      5   9999  3.19816E-02  1.49509E+01 -1.00000E+00  1.77518E-01
      21    -1     0     0   502   501  0.000000000E+00  0.000000000E+00  2.017368954E+03  2.017368954E+03  0.000000000E+00  0.00000E+00  9.000E+00
      21    -1     0     0   501   512  0.000000000E+00  0.000000000E+00 -2.632568412E+02  2.632568412E+02  0.000000000E+00  0.00000E+00  9.000E+00
      25     1     1     2     0     0 -8.957556777E+01  4.581790499E+01  1.978017380E+03  1.984515260E+03  1.250000000E+02  0.00000E+00  9.000E+00
      25     1     1     2     0     0  8.610428926E+01 -3.127551841E+01 -2.320830126E+02  2.790692233E+02  1.250000000E+02  0.00000E+00  9.000E+00
      21     1     1     2   502   512  3.471278506E+00 -1.454238658E+01  8.177745365E+00  1.704131161E+01  2.920019320E-07  0.00000E+00  9.000E+00
#rwgt            1           1   2.7831698864993693E-002           4       68477           0
</event>
<event>
      5   9999  3.19816E-02  7.26317E+02 -1.00000E+00  9.44537E-02
      21    -1     0     0   502   511  0.000000000E+00  0.000000000E+00  8.443131247E+02  8.443131247E+02  0.000000000E+00  0.00000E+00  9.000E+00
      21    -1     0     0   501   502  0.000000000E+00  0.000000000E+00 -8.477637447E+02  8.477637447E+02  0.000000000E+00  0.00000E+00  9.000E+00
      25     1     1     2     0     0  2.645000495E+02  3.023051373E+02  6.003695924E+01  4.249448302E+02  1.250000000E+02  0.00000E+00  9.000E+00
      25     1     1     2     0     0  3.802122248E+01  3.580105645E+02 -3.191932304E+02  4.971181912E+02  1.250000000E+02  0.00000E+00  9.000E+00
      21     1     1     2   501   511 -3.025212720E+02 -6.603157018E+02  2.557056512E+02  7.700138480E+02  6.031565972E-06  0.00000E+00  9.000E+00
#rwgt            2          11   2.6315199286210157E-003           4       68982           0
</event>
<event>
      5   9999  3.19816E-02  2.07538E+01 -1.00000E+00  1.65054E-01
      21    -1     0     0   502   501  0.000000000E+00  0.000000000E+00  2.811105434E+02  2.811105434E+02  0.000000000E+00  0.00000E+00  9.000E+00
      21    -1     0     0   512   502  0.000000000E+00  0.000000000E+00 -2.453808670E+02  2.453808670E+02  0.000000000E+00  0.00000E+00  9.000E+00
      25     1     1     2     0     0 -8.140896778E+00  1.183755471E+02  2.129750770E+02  2.739752321E+02  1.250000000E+02  0.00000E+00  9.000E+00
      25     1     1     2     0     0  9.924132054E+00 -9.769852648E+01 -1.534540542E+02  2.209448737E+02  1.250000000E+02  0.00000E+00  9.000E+00
      21     1     1     2   512   501 -1.783235277E+00 -2.067702063E+01 -2.379134647E+01  3.157130465E+01  4.768371582E-07  0.00000E+00  9.000E+00
#rwgt            1           1   2.6646603593909461E-002           4       69017           0
</event>
<event>
      5   9999  3.19816E-02  7.02590E+02 -1.00000E+00  9.48288E-02
      21    -1     0     0   502   501  0.000000000E+00  0.000000000E+00  1.458636825E+03  1.458636825E+03  0.000000000E+00  0.00000E+00  9.000E+00
      21    -1     0     0   511   502  0.000000000E+00  0.000000000E+00 -2.681941512E+03  2.681941512E+03  0.000000000E+00  0.00000E+00  9.000E+00
      25     1     1     2     0     0  1.679542085E+03 -2.607226401E+02 -7.797406450E+02  1.874155379E+03  1.250000000E+02  0.00000E+00  9.000E+00
      25     1     1     2     0     0 -1.248135081E+03  8.152687450E+02 -1.450735175E+02  1.503055432E+03  1.250000000E+02  0.00000E+00  9.000E+00
      21     1     1     2   511   501 -4.314070044E+02 -5.545461048E+02 -2.984905248E+02  7.633675257E+02  1.789251617E-05  0.00000E+00  9.000E+00
#rwgt            2          11   3.6725633846281134E-003           4       69300           0
</event>
<event>
      5   9999  3.19816E-02  1.83856E+01 -1.00000E+00  1.69442E-01
      21    -1     0     0   512   501  0.000000000E+00  0.000000000E+00  1.587863235E+03  1.587863235E+03  0.000000000E+00  0.00000E+00  9.000E+00
      21    -1     0     0   501   502  0.000000000E+00  0.000000000E+00 -9.610276940E+01  9.610276940E+01  0.000000000E+00  0.00000E+00  9.000E+00
      25     1     1     2     0     0  1.013034559E+02  9.463634586E+01  1.404283053E+01  1.871914240E+02  1.250000000E+02  0.00000E+00  9.000E+00
      25     1     1     2     0     0 -1.050563669E+02 -1.126348801E+02  1.044632088E+03  1.063298949E+03  1.250000000E+02  0.00000E+00  9.000E+00
      21     1     1     2   512   502  3.752910962E+00  1.799853422E+01  4.330855470E+02  4.334756309E+02  5.394796609E-06  0.00000E+00  9.000E+00
#rwgt            1           1   2.8746404027814150E-002           4       69320           0
</event>
<event>
      5   9999  3.19816E-02  8.95496E+01 -1.00000E+00  1.26023E-01
      21    -1     0     0   502   501  0.000000000E+00  0.000000000E+00  8.436851833E+01  8.436851833E+01  0.000000000E+00  0.00000E+00  9.000E+00
      21    -1     0     0   511   502  0.000000000E+00  0.000000000E+00 -1.659003069E+03  1.659003069E+03  0.000000000E+00  0.00000E+00  9.000E+00
      25     1     1     2     0     0  5.262257310E+01  8.061164523E+01 -3.949043178E+01  1.626402987E+02  1.250000000E+02  0.00000E+00  9.000E+00
      25     1     1     2     0     0 -1.740208087E+01 -1.629441604E+02 -4.876432236E+02  5.294096196E+02  1.250000000E+02  0.00000E+00  9.000E+00
      21     1     1     2   511   501 -3.522049223E+01  8.233251520E+01 -1.047500895E+03  1.051321669E+03  1.525878906E-05  0.00000E+00  9.000E+00
#rwgt            1           1   2.6366990314474932E-002           4       69468           0
</event>
<event>
      5   9999  3.19816E-02  3.06262E+01 -1.00000E+00  1.52419E-01
      21    -1     0     0   502   501  0.000000000E+00  0.000000000E+00  1.982084957E+02  1.982084957E+02  0.000000000E+00  0.00000E+00  9.000E+00
      21    -1     0     0   501   512  0.000000000E+00  0.000000000E+00 -4.594408925E+02  4.594408925E+02  0.000000000E+00  0.00000E+00  9.000E+00
      25     1     1     2     0     0  1.441781264E+02 -2.036869656E+02 -6.962458889E+01  2.876600345E+02  1.250000000E+02  0.00000E+00  9.000E+00
      25     1     1     2     0     0 -1.209827689E+02  2.236854000E+02 -1.576825125E+02  3.242850031E+02  1.250000000E+02  0.00000E+00  9.000E+00
      21     1     1     2   502   512 -2.319535748E+01 -1.999843435E+01 -3.392529543E+01  4.570435051E+01  8.259061849E-07  0.00000E+00  9.000E+00
#rwgt            1           1   2.8045545758693988E-002           4       69522           0
</event>
<event>
      5   9999  3.19816E-02  3.59970E+01 -1.00000E+00  1.47739E-01
      21    -1     0     0   502   501  0.000000000E+00  0.000000000E+00  9.840784399E+02  9.840784399E+02  0.000000000E+00  0.00000E+00  9.000E+00
      21    -1     0     0   501   511  0.000000000E+00  0.000000000E+00 -4.325919263E+02  4.325919263E+02  0.000000000E+00  0.00000E+00  9.000E+00
      25     1     1     2     0     0 -4.004574202E+02 -4.132312440E+02  1.273081088E+01  5.889934465E+02  1.250000000E+02  0.00000E+00  9.000E+00
      25     1     1     2     0     0  4.109791673E+02  3.788062518E+02  5.456244578E+02  7.910304048E+02  1.250000000E+02  0.00000E+00  9.000E+00
      21     1     1     2   502   511 -1.052174710E+01  3.442499220E+01 -6.868755109E+00  3.664651480E+01  4.539354507E-07  0.00000E+00  9.000E+00
#rwgt            1           1   3.0588291054723923E-002           4       69753           0
</event>
<event>
      5   9999  3.19816E-02  2.23882E+02 -1.00000E+00  1.09893E-01
       1    -1     0     0   502     0  0.000000000E+00  0.000000000E+00  2.345754841E+03  2.345754841E+03  0.000000000E+00  0.00000E+00  9.000E+00
      21    -1     0     0   501   502  0.000000000E+00  0.000000000E+00 -1.377459442E+02  1.377459442E+02  0.000000000E+00  0.00000E+00  9.000E+00
      25     1     1     2     0     0  1.751796061E+02 -3.738585337E+01 -2.151584045E+01  2.194846870E+02  1.250000000E+02  0.00000E+00  9.000E+00
      25     1     1     2     0     0  8.124518744E+00 -9.115470022E+01  6.233184506E+02  6.422819303E+02  1.250000000E+02  0.00000E+00  9.000E+00
       1     1     1     2   501     0 -1.833041249E+02  1.285405536E+02  1.606206286E+03  1.621734168E+03  3.051757812E-05  0.00000E+00  9.000E+00
#rwgt            1           1   2.7200038728301790E-002           4       69936           0
</event>
<event>
      5   9999  3.19816E-02  9.57991E+00 -1.00000E+00  1.97937E-01
      21    -1     0     0   511   501  0.000000000E+00  0.000000000E+00  1.693592891E+03  1.693592891E+03  0.000000000E+00  0.00000E+00  9.000E+00
      21    -1     0     0   501   502  0.000000000E+00  0.000000000E+00 -1.078280851E+02  1.078280851E+02  0.000000000E+00  0.00000E+00  9.000E+00
      25     1     1     2     0     0 -1.218172474E+02  3.425627016E+02  6.705419373E+02  7.729425179E+02  1.250000000E+02  0.00000E+00  9.000E+00
      25     1     1     2     0     0  1.176500402E+02 -3.511887715E+02  6.189539478E+02  7.320546938E+02  1.250000000E+02  0.00000E+00  9.000E+00
      21     1     1     2   511   502  4.167207226E+00  8.626069935E+00  2.962689205E+02  2.964237641E+02  3.814697266E-06  0.00000E+00  9.000E+00
#rwgt            1           1   2.9861086902520487E-002           4       70033           0
</event>
<event>
      5   9999  3.19816E-02  1.02717E+01 -1.00000E+00  1.94421E-01
      21    -1     0     0   502   501  0.000000000E+00  0.000000000E+00  3.706794361E+01  3.706794361E+01  0.000000000E+00  0.00000E+00  9.000E+00
      21    -1     0     0   501   512  0.000000000E+00  0.000000000E+00 -8.532438905E+02  8.532438905E+02  0.000000000E+00  0.00000E+00  9.000E+00
      25     1     1     2     0     0 -8.265913751E+01  8.738769003E+01 -3.822090392E+02  4.197355013E+02  1.250000000E+02  0.00000E+00  9.000E+00
      25     1     1     2     0     0  7.721475842E+01 -7.867751414E+01 -3.701921696E+02  4.059796948E+02  1.250000000E+02  0.00000E+00  9.000E+00
      21     1     1     2   502   512  5.444379085E+00 -8.710175887E+00 -6.377473812E+01  6.459663807E+01  9.536743164E-07  0.00000E+00  9.000E+00
#rwgt            1           1   3.7790263729862404E-002           4       70228           0
</event>
<event>
      5   9999  3.19816E-02  2.38174E+02 -1.00000E+00  1.08954E-01
      21    -1     0     0   502   501  0.000000000E+00  0.000000000E+00  4.426492413E+02  4.426492413E+02  0.000000000E+00  0.00000E+00  9.000E+00
      21    -1     0     0   501   511  0.000000000E+00  0.000000000E+00 -8.370626140E+02  8.370626140E+02  0.000000000E+00  0.00000E+00  9.000E+00
      25     1     1     2     0     0 -1.956862069E+02  1.529674930E+02 -4.758221639E+02  5.511114925E+02  1.250000000E+02  0.00000E+00  9.000E+00
      25     1     1     2     0     0 -4.215325662E+00 -2.824525794E+02  2.811985855E+02  4.177258348E+02  1.250000000E+02  0.00000E+00  9.000E+00
      21     1     1     2   502   511  1.999015326E+02  1.294850863E+02 -1.997897943E+02  3.108745281E+02  5.394796609E-06  0.00000E+00  9.000E+00
#rwgt            1           1   2.4383207827077039E-002           4       70422           0
</event>
<event>
      5   9999  3.19816E-02  1.07380E+02 -1.00000E+00  1.22453E-01
      21    -1     0     0   502   512  0.000000000E+00  0.000000000E+00  2.730644562E+02  2.730644562E+02  0.000000000E+00  0.00000E+00  9.000E+00
      21    -1     0     0   501   502  0.000000000E+00  0.000000000E+00 -2.720473212E+02  2.720473212E+02  0.000000000E+00  0.00000E+00  9.000E+00
      25     1     1     2     0     0  1.030816172E+02  4.607219663E+01 -1.621170958E+02  2.337849864E+02  1.250000000E+02  0.00000E+00  9.000E+00
      25     1     1     2     0     0 -1.548095690E+00 -8.101985170E+01  1.332457640E+02  1.998650709E+02  1.250000000E+02  0.00000E+00  9.000E+00
      21     1     1     2   501   512 -1.015335215E+02  3.494765507E+01  2.988846692E+01  1.114617200E+02  2.654916936E-06  0.00000E+00  9.000E+00
#rwgt            1           1   2.6842171215693229E-002           4       70491           0
</event>
<event>
      5   9999  3.19816E-02  1.99833E+02 -1.00000E+00  1.11661E-01
       2    -1     0     0   502     0  0.000000000E+00  0.000000000E+00  2.624141294E+03  2.624141294E+03  0.000000000E+00  0.00000E+00  9.000E+00
      21    -1     0     0   501   502  0.000000000E+00  0.000000000E+00 -1.657008814E+03  1.657008814E+03  0.000000000E+00  0.00000E+00  9.000E+00
      25     1     1     2     0     0 -1.499859315E+03  3.119833137E+02 -1.955412405E+02  1.549442780E+03  1.250000000E+02  0.00000E+00  9.000E+00
      25     1     1     2     0     0  1.438781561E+03 -1.217127903E+02  1.655280891E+03  2.200110500E+03  1.250000000E+02  0.00000E+00  9.000E+00
       2     1     1     2   501     0  6.107775319E+01 -1.902705233E+02 -4.926071701E+02  5.315968285E+02  5.394796609E-06  0.00000E+00  9.000E+00
#rwgt            2          18   1.4006290060663670E-004           4       70695           0
</event>
<event>
      5   9999  3.19816E-02  4.30903E+02 -1.00000E+00  1.00722E-01
      21    -1     0     0   511   501  0.000000000E+00  0.000000000E+00  1.335455559E+03  1.335455559E+03  0.000000000E+00  0.00000E+00  9.000E+00
      21    -1     0     0   501   502  0.000000000E+00  0.000000000E+00 -1.214279883E+03  1.214279883E+03  0.000000000E+00  0.00000E+00  9.000E+00
      25     1     1     2     0     0  4.502778226E+02 -9.447791072E+02 -2.075919071E+02  1.074279795E+03  1.250000000E+02  0.00000E+00  9.000E+00
      25     1     1     2     0     0 -4.342655988E+02  5.141736045E+02 -2.716094963E+02  7.364494717E+02  1.250000000E+02  0.00000E+00  9.000E+00
      21     1     1     2   511   502 -1.601222381E+01  4.306055028E+02  6.003770787E+02  7.390061752E+02  0.000000000E+00  0.00000E+00  9.000E+00
#rwgt            2          11   2.3326832958679177E-003           4       70804           0
</event>
<event>
      5   9999  3.19816E-02  5.69408E+01 -1.00000E+00  1.35929E-01
      21    -1     0     0   502   501  0.000000000E+00  0.000000000E+00  1.415431936E+03  1.415431936E+03  0.000000000E+00  0.00000E+00  9.000E+00
      21    -1     0     0   501   512  0.000000000E+00  0.000000000E+00 -3.014864824E+02  3.014864824E+02  0.000000000E+00  0.00000E+00  9.000E+00
      25     1     1     2     0     0 -3.637077783E+02  4.483884671E+02  8.559060591E+02  1.039969109E+03  1.250000000E+02  0.00000E+00  9.000E+00
      25     1     1     2     0     0  3.576848608E+02 -3.917671356E+02  2.837668522E+02  6.144660890E+02  1.250000000E+02  0.00000E+00  9.000E+00
      21     1     1     2   502   512  6.022917520E+00 -5.662133149E+01 -2.572745801E+01  6.248322024E+01  8.259061849E-07  0.00000E+00  9.000E+00
#rwgt            1           1   3.4088312708229186E-002           4       70839           0
</event>
<event>
      5   9999  3.19816E-02  1.91997E+02 -1.00000E+00  1.12298E-01
      21    -1     0     0   502   501  0.000000000E+00  0.000000000E+00  5.819387833E+02  5.819387833E+02  0.000000000E+00  0.00000E+00  9.000E+00
      21    -1     0     0   511   502  0.000000000E+00  0.000000000E+00 -1.159343283E+03  1.159343283E+03  0.000000000E+00  0.00000E+00  9.000E+00
      25     1     1     2     0     0  3.640403993E+02 -5.294289317E+02 -3.905044128E+02  7.621936122E+02  1.250000000E+02  0.00000E+00  9.000E+00
      25     1     1     2     0     0 -5.126705419E+02  4.078890226E+02  5.619362313E+01  6.693185061E+02  1.250000000E+02  0.00000E+00  9.000E+00
      21     1     1     2   511   501  1.486301426E+02  1.215399091E+02 -2.430937102E+02  3.097699481E+02  0.000000000E+00  0.00000E+00  9.000E+00
#rwgt            1           1   2.5339019846924132E-002           4       70974           0
</event>
<event>
      5   9999  3.19816E-02  9.31011E+01 -1.00000E+00  1.25241E-01
      21    -1     0     0   502   501  0.000000000E+00  0.000000000E+00  2.246018432E+03  2.246018432E+03  0.000000000E+00  0.00000E+00  9.000E+00
      21    -1     0     0   501   512  0.000000000E+00  0.000000000E+00 -5.156107647E+01  5.156107647E+01  0.000000000E+00  0.00000E+00  9.000E+00
      25     1     1     2     0     0 -1.349514624E+01 -3.674212347E+01  1.739831494E+02  2.177779577E+02  1.250000000E+02  0.00000E+00  9.000E+00
      25     1     1     2     0     0  1.062279606E+02  2.846909149E+01  1.963720317E+03  1.970765677E+03  1.250000000E+02  0.00000E+00  9.000E+00
      21     1     1     2   502   512 -9.273281439E+01  8.273031983E+00  5.675388931E+01  1.090358743E+02  3.162979880E-06  0.00000E+00  9.000E+00
#rwgt            1           1   4.2208775554781496E-002           4       71067           0
</event>
<event>
      5   9999  3.19816E-02  1.29255E+01 -1.00000E+00  1.83698E-01
      21    -1     0     0   502   511  0.000000000E+00  0.000000000E+00  6.294004120E+02  6.294004120E+02  0.000000000E+00  0.00000E+00  9.000E+00
      21    -1     0     0   501   502  0.000000000E+00  0.000000000E+00 -4.805620771E+02  4.805620771E+02  0.000000000E+00  0.00000E+00  9.000E+00
      25     1     1     2     0     0  2.928561797E+02 -1.115013292E+02 -1.783419076E+02  3.816125318E+02  1.250000000E+02  0.00000E+00  9.000E+00
      25     1     1     2     0     0 -3.055434934E+02  1.139713926E+02 -4.836978144E+01  3.525775666E+02  1.250000000E+02  0.00000E+00  9.000E+00
      21     1     1     2   501   511  1.268731374E+01 -2.470063409E+00  3.755500240E+02  3.757723908E+02  5.394796609E-06  0.00000E+00  9.000E+00
#rwgt            1           1   2.6174897648784546E-002           4       71140           0
</event>
<event>
      5   9999  3.19816E-02  2.93929E+02 -1.00000E+00  1.05881E-01
      21    -1     0     0   502   501  0.000000000E+00  0.000000000E+00  9.195534525E+01  9.195534525E+01  0.000000000E+00  0.00000E+00  9.000E+00
      -2    -1     0     0     0   502  0.000000000E+00  0.000000000E+00 -1.860608886E+03  1.860608886E+03  0.000000000E+00  0.00000E+00  9.000E+00
      25     1     1     2     0     0  5.833763978E+01  1.335820450E+02 -3.194647115E+02  3.727333429E+02  1.250000000E+02  0.00000E+00  9.000E+00
      25     1     1     2     0     0  2.278091283E+02 -2.007690272E+02 -8.791389495E+02  9.384644340E+02  1.250000000E+02  0.00000E+00  9.000E+00
      -2     1     1     2     0   501 -2.861467681E+02  6.718698221E+01 -5.700498796E+02  6.413664543E+02  1.078959322E-05  0.00000E+00  9.000E+00
#rwgt            2           9   4.6185522596122083E-005           4       71456           0
</event>
<event>
      5   9999  3.19816E-02  5.88617E+02 -1.00000E+00  9.68797E-02
      21    -1     0     0   502   501  0.000000000E+00  0.000000000E+00  1.682554748E+03  1.682554748E+03  0.000000000E+00  0.00000E+00  9.000E+00
      21    -1     0     0   501   511  0.000000000E+00  0.000000000E+00 -8.563731169E+02  8.563731169E+02  0.000000000E+00  0.00000E+00  9.000E+00
      25     1     1     2     0     0 -4.286202386E+02 -4.075857228E+02  3.707726963E+01  6.056741321E+02  1.250000000E+02  0.00000E+00  9.000E+00
      25     1     1     2     0     0 -1.161882972E+02  1.847558743E+02  1.193107265E+03  1.219329487E+03  1.250000000E+02  0.00000E+00  9.000E+00
      21     1     1     2   502   511  5.448085358E+02  2.228298485E+02 -4.040029033E+02  7.139242453E+02  7.629394531E-06  0.00000E+00  9.000E+00
#rwgt            2          11   2.4346907733097363E-003           4       71505           0
</event>
<event>
      5   9999  3.19816E-02  2.23033E+00 -1.00000E+00  3.42335E-01
      21    -1     0     0   502   512  0.000000000E+00  0.000000000E+00  1.811284946E+02  1.811284946E+02  0.000000000E+00  0.00000E+00  9.000E+00
      21    -1     0     0   501   502  0.000000000E+00  0.000000000E+00 -3.888505755E+02  3.888505755E+02  0.000000000E+00  0.00000E+00  9.000E+00
      25     1     1     2     0     0  1.566046618E+02 -1.314760805E+02 -5.450903779E+01  2.457787929E+02  1.250000000E+02  0.00000E+00  9.000E+00
      25     1     1     2     0     0 -1.588038134E+02  1.318477262E+02 -1.776606797E+02  2.996511157E+02  1.250000000E+02  0.00000E+00  9.000E+00
      21     1     1     2   501   512  2.199151591E+00 -3.716456426E-01  2.444763670E+01  2.454916146E+01  3.371747881E-07  0.00000E+00  9.000E+00
#rwgt            1           1   2.7897057151911344E-002           4       71525           0
</event>
<event>
      5   9999  3.19816E-02  2.23441E+02 -1.00000E+00  1.09923E-01
      21    -1     0     0   502   511  0.000000000E+00  0.000000000E+00  9.691403643E+02  9.691403643E+02  0.000000000E+00  0.00000E+00  9.000E+00
      21    -1     0     0   501   502  0.000000000E+00  0.000000000E+00 -1.108237577E+03  1.108237577E+03  0.000000000E+00  0.00000E+00  9.000E+00
      25     1     1     2     0     0  2.361592652E+02 -1.340047326E+02 -8.791639110E+02  9.285917560E+02  1.250000000E+02  0.00000E+00  9.000E+00
      25     1     1     2     0     0 -9.439826793E+01  3.067169020E+02 -3.119546834E+01  3.458098440E+02  1.250000000E+02  0.00000E+00  9.000E+00
      21     1     1     2   501   511 -1.417609973E+02 -1.727121694E+02  7.712621671E+02  8.029763410E+02  1.525878906E-05  0.00000E+00  9.000E+00
#rwgt            1           1   3.2612434914743152E-002           4       72010           0
</event>
<event>
      5   9999  3.19816E-02  2.02684E+02 -1.00000E+00  1.11438E-01
      21    -1     0     0   502   501  0.000000000E+00  0.000000000E+00  5.423634783E+02  5.423634783E+02  0.000000000E+00  0.00000E+00  9.000E+00
       1    -1     0     0   501     0  0.000000000E+00  0.000000000E+00 -3.179046977E+02  3.179046977E+02  0.000000000E+00  0.00000E+00  9.000E+00
      25     1     1     2     0     0  3.223039688E+02  5.874107524E+01  1.336766096E+02  3.752663030E+02  1.250000000E+02  0.00000E+00  9.000E+00
      25     1     1     2     0     0 -2.057019476E+02  1.070446878E+02  1.280717138E+00  2.634359441E+02  1.250000000E+02  0.00000E+00  9.000E+00
       1     1     1     2   502     0 -1.166020212E+02 -1.657857630E+02  8.950145391E+01  2.215659288E+02  1.907348633E-06  0.00000E+00  9.000E+00
#rwgt            1           1   2.7292190498133671E-002           4       72085           0
</event>
<event>
      5   9999  3.19816E-02  3.05630E+01 -1.00000E+00  1.52481E-01
       2    -1     0     0   502     0  0.000000000E+00  0.000000000E+00  1.236826918E+03  1.236826918E+03  0.000000000E+00  0.00000E+00  9.000E+00
      21    -1     0     0   501   502  0.000000000E+00  0.000000000E+00 -1.094692541E+02  1.094692541E+02  0.000000000E+00  0.00000E+00  9.000E+00
      25     1     1     2     0     0  2.275870160E+02 -1.843553227E+02  6.060496421E+02  6.846195319E+02  1.250000000E+02  0.00000E+00  9.000E+00
      25     1     1     2     0     0 -2.121400888E+02  2.107275011E+02  3.110423287E+02  4.492013215E+02  1.250000000E+02  0.00000E+00  9.000E+00
       2     1     1     2   501     0 -1.544692713E+01 -2.637217842E+01  2.102656935E+02  2.124753191E+02  0.000000000E+00  0.00000E+00  9.000E+00
#rwgt            1           1   2.6340752492081249E-002           4       72195           0
</event>
<event>
      5   9999  3.19816E-02  5.36008E+01 -1.00000E+00  1.37374E-01
      21    -1     0     0   502   501  0.000000000E+00  0.000000000E+00  6.772824035E+02  6.772824035E+02  0.000000000E+00  0.00000E+00  9.000E+00
      21    -1     0     0   511   502  0.000000000E+00  0.000000000E+00 -2.750330655E+02  2.750330655E+02  0.000000000E+00  0.00000E+00  9.000E+00
      25     1     1     2     0     0  1.382481795E+02  1.920229310E+02  5.673008465E+02  6.272484480E+02  1.250000000E+02  0.00000E+00  9.000E+00
      25     1     1     2     0     0 -1.045972510E+02 -1.503017120E+02 -1.074259729E+02  2.463666560E+02  1.250000000E+02  0.00000E+00  9.000E+00
      21     1     1     2   511   501 -3.365092849E+01 -4.172121893E+01 -5.762553562E+01  7.870036501E+01  1.168007728E-06  0.00000E+00  9.000E+00
#rwgt            1           1   2.5566619670124333E-002           4       72285           0
</event>
<event>
      5   9999  3.19816E-02  8.27538E+02 -1.00000E+00  9.30091E-02
       2    -1     0     0   502     0  0.000000000E+00  0.000000000E+00  1.699604625E+03  1.699604625E+03  0.000000000E+00  0.00000E+00  9.000E+00
      21    -1     0     0   501   502  0.000000000E+00  0.000000000E+00 -9.246552257E+02  9.246552257E+02  0.000000000E+00  0.00000E+00  9.000E+00
      25     1     1     2     0     0 -5.357396940E+01 -2.158465699E+02 -2.651196804E+02  3.679311849E+02  1.250000000E+02  0.00000E+00  9.000E+00
      25     1     1     2     0     0 -3.532875604E+02 -5.047657148E+02  1.252971687E+03  1.401842921E+03  1.250000000E+02  0.00000E+00  9.000E+00
       2     1     1     2   501     0  4.068615298E+02  7.206122847E+02 -2.129026065E+02  8.544857454E+02  1.321449896E-05  0.00000E+00  9.000E+00
#rwgt            2          18   3.2661584963830680E-004           4       72733           0
</event>
<event>
      5   9999  3.19816E-02  6.05515E+01 -1.00000E+00  1.34491E-01
      21    -1     0     0   502   501  0.000000000E+00  0.000000000E+00  6.161587965E+02  6.161587965E+02  0.000000000E+00  0.00000E+00  9.000E+00
       2    -1     0     0   501     0  0.000000000E+00  0.000000000E+00 -8.247509033E+02  8.247509033E+02  0.000000000E+00  0.00000E+00  9.000E+00
      25     1     1     2     0     0  7.348583423E+01 -3.850736347E+02  9.846687895E+01  4.230869866E+02  1.250000000E+02  0.00000E+00  9.000E+00
      25     1     1     2     0     0 -9.804309540E+01  3.297254561E+02  2.591033534E+02  4.484315697E+02  1.250000000E+02  0.00000E+00  9.000E+00
       2     1     1     2   502     0  2.455726117E+01  5.534817865E+01 -5.661623392E+02  5.693911435E+02  1.321449896E-05  0.00000E+00  9.000E+00
#rwgt            1           1   2.9703831442442648E-002           4       72767           0
</event>
<event>
      5   9999  3.19816E-02  1.21287E+02 -1.00000E+00  1.20172E-01
      21    -1     0     0   502   511  0.000000000E+00  0.000000000E+00  9.685051626E+02  9.685051626E+02  0.000000000E+00  0.00000E+00  9.000E+00
      21    -1     0     0   501   502  0.000000000E+00  0.000000000E+00 -5.750140392E+02  5.750140392E+02  0.000000000E+00  0.00000E+00  9.000E+00
      25     1     1     2     0     0 -2.002279086E+02  3.429876072E+02 -2.860905985E+02  5.051777357E+02  1.250000000E+02  0.00000E+00  9.000E+00
      25     1     1     2     0     0  2.033943732E+02 -4.642335653E+02  2.260351431E+02  5.688575922E+02  1.250000000E+02  0.00000E+00  9.000E+00
      21     1     1     2   501   511 -3.166464567E+00  1.212459581E+02  4.535465787E+02  4.694838740E+02  7.629394531E-06  0.00000E+00  9.000E+00
#rwgt            1           1   3.1190615611307374E-002           4       72862           0
</event>
<event>
      5   9999  3.19816E-02  8.15669E+01 -1.00000E+00  1.27943E-01
      21    -1     0     0   512   501  0.000000000E+00  0.000000000E+00  1.716604953E+03  1.716604953E+03  0.000000000E+00  0.00000E+00  9.000E+00
      21    -1     0     0   501   502  0.000000000E+00  0.000000000E+00 -2.609479534E+02  2.609479534E+02  0.000000000E+00  0.00000E+00  9.000E+00
      25     1     1     2     0     0 -4.554019863E+01 -4.685957363E+01 -1.716439706E+02  2.221629627E+02  1.250000000E+02  0.00000E+00  9.000E+00
      25     1     1     2     0     0  1.066793155E+02  1.008519020E+02  8.463628355E+01  2.105703754E+02  1.250000000E+02  0.00000E+00  9.000E+00
      21     1     1     2   512   502 -6.113911688E+01 -5.399232837E+01  1.542664687E+03  1.544819568E+03  2.157918644E-05  0.00000E+00  9.000E+00
#rwgt            2          11   5.4092775224424076E-003           4       73120           0
</event>
<event>
      5   9999  3.19816E-02  1.68634E+02 -1.00000E+00  1.14413E-01
      21    -1     0     0   502   501  0.000000000E+00  0.000000000E+00  1.389428176E+03  1.389428176E+03  0.000000000E+00  0.00000E+00  9.000E+00
      21    -1     0     0   501   511  0.000000000E+00  0.000000000E+00 -6.716678218E+02  6.716678218E+02  0.000000000E+00  0.00000E+00  9.000E+00
      25     1     1     2     0     0 -2.735326425E+02 -4.302267050E+02 -2.756865923E+02  5.929108039E+02  1.250000000E+02  0.00000E+00  9.000E+00
      25     1     1     2     0     0  4.177959953E+02  3.429034141E+02  1.124974208E+03  1.254323808E+03  1.250000000E+02  0.00000E+00  9.000E+00
      21     1     1     2   502   511 -1.442633528E+02  8.732329091E+01 -1.315272616E+02  2.138613865E+02  4.264961200E-06  0.00000E+00  9.000E+00
#rwgt            1           1   3.0388582563639153E-002           4       73140           0
</event>
<event>
      5   9999  3.19816E-02  3.57908E+01 -1.00000E+00  1.47900E-01
      21    -1     0     0   502   512  0.000000000E+00  0.000000000E+00  4.487545003E+02  4.487545003E+02  0.000000000E+00  0.00000E+00  9.000E+00
      21    -1     0     0   501   502  0.000000000E+00  0.000000000E+00 -6.243424994E+02  6.243424994E+02  0.000000000E+00  0.00000E+00  9.000E+00
      25     1     1     2     0     0 -1.737663595E+02 -2.226186097E+02 -3.083824395E+02  4.364384516E+02  1.250000000E+02  0.00000E+00  9.000E+00
      25     1     1     2     0     0  2.070662107E+02  2.357372173E+02 -1.370182040E+02  3.644824268E+02  1.250000000E+02  0.00000E+00  9.000E+00
      21     1     1     2   501   512 -3.329985115E+01 -1.311860759E+01  2.698126444E+02  2.721761213E+02  5.394796609E-06  0.00000E+00  9.000E+00
#rwgt            1           1   2.9057593728147649E-002           4       73243           0
</event>
<event>
      5   9999  3.19816E-02  1.72732E+02 -1.00000E+00  1.14016E-01
      21    -1     0     0   502   501  0.000000000E+00  0.000000000E+00  1.688386077E+02  1.688386077E+02  0.000000000E+00  0.00000E+00  9.000E+00
      -4    -1     0     0     0   502  0.000000000E+00  0.000000000E+00 -6.672124159E+02  6.672124159E+02  0.000000000E+00  0.00000E+00  9.000E+00
      25     1     1     2     0     0 -1.233063859E+00 -6.032437282E+00  7.176319224E+01  1.442666507E+02  1.250000000E+02  0.00000E+00  9.000E+00
      25     1     1     2     0     0 -1.652035163E+02 -4.017649299E+01 -2.429524495E+02  3.218031155E+02  1.250000000E+02  0.00000E+00  9.000E+00
      -4     1     1     2     0   501  1.664365802E+02  4.620893027E+01 -3.271845509E+02  3.699812574E+02  0.000000000E+00  0.00000E+00  9.000E+00
#rwgt            1           1   2.5376482222636422E-002           4       73387           0
</event>
<event>
      5   9999  3.19816E-02  4.19856E+02 -1.00000E+00  1.01056E-01
       2    -1     0     0   502     0  0.000000000E+00  0.000000000E+00  2.326661439E+03  2.326661439E+03  0.000000000E+00  0.00000E+00  9.000E+00
      21    -1     0     0   501   502  0.000000000E+00  0.000000000E+00 -5.586512305E+02  5.586512305E+02  0.000000000E+00  0.00000E+00  9.000E+00
      25     1     1     2     0     0  5.513847553E+02  4.965205853E+02 -1.950196535E+02  7.773130034E+02  1.250000000E+02  0.00000E+00  9.000E+00
      25     1     1     2     0     0 -2.573151900E+02 -1.968501801E+02  8.323035165E+02  9.018399215E+02  1.250000000E+02  0.00000E+00  9.000E+00
       2     1     1     2   501     0 -2.940695653E+02 -2.996704052E+02  1.130726345E+03  1.206159744E+03  1.525878906E-05  0.00000E+00  9.000E+00
#rwgt            2          18   1.5719292372078219E-003           4       73495           0
</event>
<event>
      5   9999  3.19816E-02  1.01360E+02 -1.00000E+00  1.23565E-01
      21    -1     0     0   502   501  0.000000000E+00  0.000000000E+00  3.294375990E+02  3.294375990E+02  0.000000000E+00  0.00000E+00  9.000E+00
      -4    -1     0     0     0   502  0.000000000E+00  0.000000000E+00 -9.183397174E+02  9.183397174E+02  0.000000000E+00  0.00000E+00  9.000E+00
      25     1     1     2     0     0 -1.491923752E+02  4.902729872E+01  1.224513538E+02  2.351199160E+02  1.250000000E+02  0.00000E+00  9.000E+00
      25     1     1     2     0     0  9.437829152E+01 -1.342869076E+02  7.520657749E+01  2.195934078E+02  1.250000000E+02  0.00000E+00  9.000E+00
      -4     1     1     2     0   501  5.481408371E+01  8.525960891E+01 -7.865600496E+02  7.930639926E+02  1.525878906E-05  0.00000E+00  9.000E+00
#rwgt            1           1   3.0591847723799089E-002           4       73529           0
</event>
<event>
      5   9999  3.19816E-02  7.67311E+00 -1.00000E+00  2.10068E-01
      21    -1     0     0   502   501  0.000000000E+00  0.000000000E+00  1.876977792E+03  1.876977792E+03  0.000000000E+00  0.00000E+00  9.000E+00
      21    -1     0     0   511   502  0.000000000E+00  0.000000000E+00 -1.291125281E+02  1.291125281E+02  0.000000000E+00  0.00000E+00  9.000E+00
      25     1     1     2     0     0 -2.344122488E+02  7.686981856E+01  1.463033546E+03  1.488942654E+03  1.250000000E+02  0.00000E+00  9.000E+00
      25     1     1     2     0     0  2.268620437E+02 -7.823768434E+01  3.551122054E+02  4.464495499E+02  1.250000000E+02  0.00000E+00  9.000E+00
      21     1     1     2   511   501  7.550205083E+00  1.367865777E+00 -7.028048749E+01  7.069811578E+01  3.303624740E-06  0.00000E+00  9.000E+00
#rwgt            1           1   2.8615410131899111E-002           4       73590           0
</event>
<event>
      5   9999  3.19816E-02  8.27678E+01 -1.00000E+00  1.27639E-01
      21    -1     0     0   502   512  0.000000000E+00  0.000000000E+00  3.976436157E+02  3.976436157E+02  0.000000000E+00  0.00000E+00  9.000E+00
      21    -1     0     0   501   502  0.000000000E+00  0.000000000E+00 -9.059998894E+02  9.059998894E+02  0.000000000E+00  0.00000E+00  9.000E+00
      25     1     1     2     0     0  3.358104617E+02 -2.425953045E+02 -5.588158992E+02  7.067682485E+02  1.250000000E+02  0.00000E+00  9.000E+00
      25     1     1     2     0     0 -3.931125279E+02  3.023195106E+02  3.456951274E+01  5.125959396E+02  1.250000000E+02  0.00000E+00  9.000E+00
      21     1     1     2   501   512  5.730206615E+01 -5.972420609E+01  1.589011271E+01  8.427931692E+01  9.536743164E-07  0.00000E+00  9.000E+00
#rwgt            1           1   2.9156162993063079E-002           4       73883           0
</event>
<event>
      5   9999  3.19816E-02  5.82745E+01 -1.00000E+00  1.35384E-01
      21    -1     0     0   502   501  0.000000000E+00  0.000000000E+00  5.698040026E+02  5.698040026E+02  0.000000000E+00  0.00000E+00  9.000E+00
      21    -1     0     0   501   511  0.000000000E+00  0.000000000E+00 -1.432989107E+03  1.432989107E+03  0.000000000E+00  0.00000E+00  9.000E+00
      25     1     1     2     0     0  2.796698795E+02  2.372368259E+02  4.582601919E+02  6.001032882E+02  1.250000000E+02  0.00000E+00  9.000E+00
      25     1     1     2     0     0 -2.849799299E+02 -1.792047754E+02 -7.867528791E+02  8.648312002E+02  1.250000000E+02  0.00000E+00  9.000E+00
      21     1     1     2   502   511  5.310050350E+00 -5.803205052E+01 -5.346924166E+02  5.378586207E+02  7.629394531E-06  0.00000E+00  9.000E+00
#rwgt            1           1   3.2165186529520141E-002           4       73973           0
</event>
<event>
      5   9999  3.19816E-02  5.93561E+01 -1.00000E+00  1.34954E-01
      21    -1     0     0   502   501  0.000000000E+00  0.000000000E+00  2.865533014E+02  2.865533014E+02  0.000000000E+00  0.00000E+00  9.000E+00
      21    -1     0     0   512   502  0.000000000E+00  0.000000000E+00 -3.470020682E+02  3.470020682E+02  0.000000000E+00  0.00000E+00  9.000E+00
      25     1     1     2     0     0 -2.620329004E+02 -6.490224736E+01  6.141741471E+01  3.037608293E+02  1.250000000E+02  0.00000E+00  9.000E+00
      25     1     1     2     0     0  2.028011829E+02  6.106102949E+01 -8.648946714E+01  2.606956022E+02  1.250000000E+02  0.00000E+00  9.000E+00
      21     1     1     2   512   501  5.923171753E+01  3.841217868E+00 -3.537671434E+01  6.909893800E+01  4.768371582E-07  0.00000E+00  9.000E+00
#rwgt            1           1   2.5447430983514551E-002           4       74065           0
</event>
<event>
      5   9999  3.19816E-02  3.35660E+01 -1.00000E+00  1.49727E-01
      21    -1     0     0   502   501  0.000000000E+00  0.000000000E+00  1.498600069E+02  1.498600069E+02  0.000000000E+00  0.00000E+00  9.000E+00
      21    -1     0     0   501   511  0.000000000E+00  0.000000000E+00 -4.033950969E+02  4.033950969E+02  0.000000000E+00  0.00000E+00  9.000E+00
      25     1     1     2     0     0 -1.018211687E+02  1.629710215E+02 -4.247761045E+01  2.331447010E+02  1.250000000E+02  0.00000E+00  9.000E+00
      25     1     1     2     0     0  7.915965187E+01 -1.382095306E+02 -1.558679765E+02  2.555150699E+02  1.250000000E+02  0.00000E+00  9.000E+00
      21     1     1     2   502   511  2.266151680E+01 -2.476149086E+01 -5.518950306E+01  6.459533282E+01  6.743495762E-07  0.00000E+00  9.000E+00
#rwgt            1           1   2.9525042423909392E-002           4       74151           0
</event>
<event>
      5   9999  3.19816E-02  3.31274E+01 -1.00000E+00  1.50108E-01
      21    -1     0     0   512   501  0.000000000E+00  0.000000000E+00  1.594571062E+02  1.594571062E+02  0.000000000E+00  0.00000E+00  9.000E+00
      21    -1     0     0   501   502  0.000000000E+00  0.000000000E+00 -1.998639305E+03  1.998639305E+03  0.000000000E+00  0.00000E+00  9.000E+00
      25     1     1     2     0     0 -2.656227590E+02 -2.016495428E+02 -1.533181464E+03  1.574003935E+03  1.250000000E+02  0.00000E+00  9.000E+00
      25     1     1     2     0     0  2.364279588E+02  2.173047420E+02 -3.739422306E+02  5.085049877E+02  1.250000000E+02  0.00000E+00  9.000E+00
      21     1     1     2   512   502  2.919480025E+01 -1.565519922E+01  6.794149527E+01  7.558748841E+01  9.536743164E-07  0.00000E+00  9.000E+00
#rwgt            1           1   3.0038894841989107E-002           4       74281           0
</event>
<event>
      5   9999  3.19816E-02  1.58925E+01 -1.00000E+00  1.75051E-01
      21    -1     0     0   511   501  0.000000000E+00  0.000000000E+00  7.140034284E+02  7.140034284E+02  0.000000000E+00  0.00000E+00  9.000E+00
      21    -1     0     0   501   502  0.000000000E+00  0.000000000E+00 -1.648179534E+02  1.648179534E+02  0.000000000E+00  0.00000E+00  9.000E+00
      25     1     1     2     0     0 -4.798383870E+01 -5.573261822E+01  5.625373491E+02  5.809318744E+02  1.250000000E+02  0.00000E+00  9.000E+00
      25     1     1     2     0     0  6.095130106E+01  6.492041469E+01 -1.170274218E+02  1.930029502E+02  1.250000000E+02  0.00000E+00  9.000E+00
      21     1     1     2   511   502 -1.296746236E+01 -9.187796468E+00  1.036755477E+02  1.048865572E+02  1.348699152E-06  0.00000E+00  9.000E+00
#rwgt            1           1   2.9473879135359704E-002           4       74393           0
</event>
<event>
      5   9999  3.19816E-02  1.02826E+02 -1.00000E+00  1.23286E-01
      21    -1     0     0   502   501  0.000000000E+00  0.000000000E+00  5.709422134E+02  5.709422134E+02  0.000000000E+00  0.00000E+00  9.000E+00
      21    -1     0     0   512   502  0.000000000E+00  0.000000000E+00 -4.872899611E+02  4.872899611E+02  0.000000000E+00  0.00000E+00  9.000E+00
      25     1     1     2     0     0 -1.887543046E+02  3.095281928E+02  2.274449817E+02  4.458610875E+02  1.250000000E+02  0.00000E+00  9.000E+00
      25     1     1     2     0     0  2.067380510E+02 -4.107697949E+02 -6.115894780E+01  4.804558908E+02  1.250000000E+02  0.00000E+00  9.000E+00
      21     1     1     2   512   501 -1.798374642E+01  1.012416021E+02 -8.263378156E+01  1.319151962E+02  0.000000000E+00  0.00000E+00  9.000E+00
#rwgt            1           1   2.9802053915210243E-002           4       74607           0
</event>
<event>
      5   9999  3.19816E-02  8.20206E+01 -1.00000E+00  1.27827E-01
      21    -1     0     0   511   501  0.000000000E+00  0.000000000E+00  1.687027385E+03  1.687027385E+03  0.000000000E+00  0.00000E+00  9.000E+00
      21    -1     0     0   501   502  0.000000000E+00  0.000000000E+00 -3.444989572E+02  3.444989572E+02  0.000000000E+00  0.00000E+00  9.000E+00
      25     1     1     2     0     0 -2.388266108E+02  4.780077473E+01 -2.482343585E+02  3.695515672E+02  1.250000000E+02  0.00000E+00  9.000E+00
      25     1     1     2     0     0  2.873120025E+02 -1.139561861E+02  1.511780319E+03  1.548108179E+03  1.250000000E+02  0.00000E+00  9.000E+00
      21     1     1     2   511   502 -4.848539171E+01  6.615541134E+01  7.898246741E+01  1.138665966E+02  2.132480600E-06  0.00000E+00  9.000E+00
#rwgt            1           1   3.0409918456414848E-002           4       74692           0
</event>
<event>
      5   9999  3.19816E-02  7.94753E+01 -1.00000E+00  1.28488E-01
      21    -1     0     0   502   501  0.000000000E+00  0.000000000E+00  1.544619090E+03  1.544619090E+03  0.000000000E+00  0.00000E+00  9.000E+00
      21    -1     0     0   512   502  0.000000000E+00  0.000000000E+00 -4.115157329E+02  4.115157329E+02  0.000000000E+00  0.00000E+00  9.000E+00
      25     1     1     2     0     0  2.615840918E+01 -5.209557658E+02  9.428710039E+02  1.084762602E+03  1.250000000E+02  0.00000E+00  9.000E+00
      25     1     1     2     0     0  1.250911684E+01  5.903902853E+02  3.465460321E+02  6.960145971E+02  1.250000000E+02  0.00000E+00  9.000E+00
      21     1     1     2   512   501 -3.866752602E+01 -6.943451946E+01 -1.563136789E+02  1.753576240E+02  0.000000000E+00  0.00000E+00  9.000E+00
#rwgt            1           1   2.3275305778603834E-002           4       74798           0
</event>
<event>
      5   9999  3.19816E-02  1.37043E+01 -1.00000E+00  1.81161E-01
      21    -1     0     0   511   501  0.000000000E+00  0.000000000E+00  9.133331190E+02  9.133331190E+02  0.000000000E+00  0.00000E+00  9.000E+00
      21    -1     0     0   501   502  0.000000000E+00  0.000000000E+00 -1.301387546E+02  1.301387546E+02  0.000000000E+00  0.00000E+00  9.000E+00
      25     1     1     2     0     0  1.036857851E+02 -2.450791382E+01  5.304409042E+02  5.552872524E+02  1.250000000E+02  0.00000E+00  9.000E+00
      25     1     1     2     0     0 -1.055627612E+02  1.093273244E+01 -6.038913480E+01  1.747422925E+02  1.250000000E+02  0.00000E+00  9.000E+00
      21     1     1     2   511   502  1.876976157E+00  1.357518139E+01  3.131425950E+02  3.134423286E+02  3.814697266E-06  0.00000E+00  9.000E+00
#rwgt            1           1   2.8612226054659462E-002           4       74886           0
</event>
<event>
      5   9999  3.19816E-02  6.80973E+01 -1.00000E+00  1.31830E-01
      21    -1     0     0   502   512  0.000000000E+00  0.000000000E+00  2.167725891E+03  2.167725891E+03  0.000000000E+00  0.00000E+00  9.000E+00
      21    -1     0     0   501   502  0.000000000E+00  0.000000000E+00 -4.648685134E+02  4.648685134E+02  0.000000000E+00  0.00000E+00  9.000E+00
      25     1     1     2     0     0  1.021895282E+02  2.006543744E+02 -4.067304671E+02  4.814141154E+02  1.250000000E+02  0.00000E+00  9.000E+00
      25     1     1     2     0     0 -1.606114302E+02 -1.656668593E+02  8.461799501E+02  8.859385124E+02  1.250000000E+02  0.00000E+00  9.000E+00
      21     1     1     2   501   512  5.842190201E+01 -3.498751507E+01  1.263407894E+03  1.265241776E+03  1.525878906E-05  0.00000E+00  9.000E+00
#rwgt            1           1   3.1760254116330690E-002           4       75171           0
</event>
<event>
      5   9999  3.19816E-02  9.15126E+01 -1.00000E+00  1.25586E-01
      21    -1     0     0   502   511  0.000000000E+00  0.000000000E+00  4.704202926E+02  4.704202926E+02  0.000000000E+00  0.00000E+00  9.000E+00
      21    -1     0     0   501   502  0.000000000E+00  0.000000000E+00 -1.425145088E+02  1.425145088E+02  0.000000000E+00  0.00000E+00  9.000E+00
      25     1     1     2     0     0 -4.329863976E+01  3.290103728E+01  1.182009194E+02  1.804264609E+02  1.250000000E+02  0.00000E+00  9.000E+00
      25     1     1     2     0     0  6.660347862E+01 -1.213964932E+02 -1.770032651E+01  1.873804511E+02  1.250000000E+02  0.00000E+00  9.000E+00
      21     1     1     2   501   511 -2.330483886E+01  8.849545588E+01  2.274051909E+02  2.451278892E+02  0.000000000E+00  0.00000E+00  9.000E+00
#rwgt            1           1   3.0914256574260807E-002           4       75350           0
</event>
<event>
      5   9999  3.19816E-02  2.85526E+01 -1.00000E+00  1.54547E-01
      21    -1     0     0   502   512  0.000000000E+00  0.000000000E+00  1.545085268E+03  1.545085268E+03  0.000000000E+00  0.00000E+00  9.000E+00
      21    -1     0     0   501   502  0.000000000E+00  0.000000000E+00 -1.078195566E+02  1.078195566E+02  0.000000000E+00  0.00000E+00  9.000E+00
      25     1     1     2     0     0  9.538739006E+01  3.993799012E-01  1.348844259E+03  1.357978184E+03  1.250000000E+02  0.00000E+00  9.000E+00
      25     1     1     2     0     0 -1.161290102E+02  1.922288892E+01 -2.895868234E+01  1.741237254E+02  1.250000000E+02  0.00000E+00  9.000E+00
      21     1     1     2   501   512  2.074162019E+01 -1.962226882E+01  1.173801353E+02  1.208029156E+02  1.907348633E-06  0.00000E+00  9.000E+00
#rwgt            1           1   2.9999335409300977E-002           4       75406           0
</event>
<event>
      5   9999  3.19816E-02  1.29247E+02 -1.00000E+00  1.19016E-01
       2    -1     0     0   502     0  0.000000000E+00  0.000000000E+00  2.165923557E+03  2.165923557E+03  0.000000000E+00  0.00000E+00  9.000E+00
      21    -1     0     0   501   502  0.000000000E+00  0.000000000E+00 -4.274119972E+02  4.274119972E+02  0.000000000E+00  0.00000E+00  9.000E+00
      25     1     1     2     0     0  9.029758563E+01 -1.586159755E+02 -2.857859282E+02  3.614018241E+02  1.250000000E+02  0.00000E+00  9.000E+00
      25     1     1     2     0     0  3.894130212E+01  1.600266361E+02  3.278884717E+00  2.067866059E+02  1.250000000E+02  0.00000E+00  9.000E+00
       2     1     1     2   501     0 -1.292388877E+02 -1.410660581E+00  2.021018603E+03  2.025147124E+03  0.000000000E+00  0.00000E+00  9.000E+00
#rwgt            2          18   6.7585462374494629E-002           4       75716           0
</event>
<event>
      5   9999  3.19816E-02  4.05239E+01 -1.00000E+00  1.44491E-01
      21    -1     0     0   511   501  0.000000000E+00  0.000000000E+00  9.828454725E+02  9.828454725E+02  0.000000000E+00  0.00000E+00  9.000E+00
      21    -1     0     0   501   502  0.000000000E+00  0.000000000E+00 -6.079623459E+02  6.079623459E+02  0.000000000E+00  0.00000E+00  9.000E+00
      25     1     1     2     0     0  1.211722657E+02 -3.292673267E+02 -2.874061080E+02  4.704539949E+02  1.250000000E+02  0.00000E+00  9.000E+00
      25     1     1     2     0     0 -9.994522488E+01  3.637868265E+02 -5.561410999E+01  4.013076530E+02  1.250000000E+02  0.00000E+00  9.000E+00
      21     1     1     2   511   502 -2.122704083E+01 -3.451949978E+01  7.179033446E+02  7.190461705E+02  1.078959322E-05  0.00000E+00  9.000E+00
#rwgt            1           1   3.1880874579328422E-002           4       75750           0
</event>
<event>
      5   9999  3.19816E-02  1.95227E+01 -1.00000E+00  1.67239E-01
      21    -1     0     0   502   501  0.000000000E+00  0.000000000E+00  6.926523501E+02  6.926523501E+02  0.000000000E+00  0.00000E+00  9.000E+00
      21    -1     0     0   512   502  0.000000000E+00  0.000000000E+00 -1.363771406E+02  1.363771406E+02  0.000000000E+00  0.00000E+00  9.000E+00
      25     1     1     2     0     0  1.249946248E+01 -2.260133740E+02  3.863569870E+02  4.649032191E+02  1.250000000E+02  0.00000E+00  9.000E+00
      25     1     1     2     0     0 -2.577775863E+01  2.403249836E+02  1.932135800E+02  3.337320453E+02  1.250000000E+02  0.00000E+00  9.000E+00
      21     1     1     2   512   501  1.327829614E+01 -1.431160955E+01 -2.329535738E+01  3.039422629E+01  6.743495762E-07  0.00000E+00  9.000E+00
#rwgt            1           1   2.9825040795504694E-002           4       75883           0
</event>
<event>
      5   9999  3.19816E-02  1.06348E+01 -1.00000E+00  1.92717E-01
      21    -1     0     0   511   501  0.000000000E+00  0.000000000E+00  3.510401285E+02  3.510401285E+02  0.000000000E+00  0.00000E+00  9.000E+00
      21    -1     0     0   501   502  0.000000000E+00  0.000000000E+00 -1.029152700E+03  1.029152700E+03  0.000000000E+00  0.00000E+00  9.000E+00
      25     1     1     2     0     0  6.735059225E+01  3.886035898E+01  1.773774374E+02  2.305081020E+02  1.250000000E+02  0.00000E+00  9.000E+00
      25     1     1     2     0     0 -6.631425560E+01 -2.827615031E+01 -9.971949863E+02  1.007581243E+03  1.250000000E+02  0.00000E+00  9.000E+00
      21     1     1     2   511   502 -1.036336648E+00 -1.058420867E+01  1.417049772E+02  1.421034835E+02  2.697398305E-06  0.00000E+00  9.000E+00
#rwgt            1           1   2.5963975734359997E-002           4       76027           0
</event>
<event>
      5   9999  3.19816E-02  8.33064E+01 -1.00000E+00  1.27504E-01
      21    -1     0     0   502   501  0.000000000E+00  0.000000000E+00  1.589506136E+02  1.589506136E+02  0.000000000E+00  0.00000E+00  9.000E+00
      21    -1     0     0   512   502  0.000000000E+00  0.000000000E+00 -1.493388120E+03  1.493388120E+03  0.000000000E+00  0.00000E+00  9.000E+00
      25     1     1     2     0     0  1.825937260E+02  3.956117795E+02 -6.630842304E+02  8.032153170E+02  1.250000000E+02  0.00000E+00  9.000E+00
      25     1     1     2     0     0 -2.436668408E+02 -3.389546548E+02 -5.452427044E+02  6.979816574E+02  1.250000000E+02  0.00000E+00  9.000E+00
      21     1     1     2   512   501  6.107311486E+01 -5.665712475E+01 -1.261105720E+02  1.511417596E+02  1.907348633E-06  0.00000E+00  9.000E+00
#rwgt            2          11   4.4049843439624746E-003           4       76421           0
</event>
<event>
      5   9999  3.19816E-02  1.84791E+02 -1.00000E+00  1.12913E-01
      21    -1     0     0   511   501  0.000000000E+00  0.000000000E+00  5.503987336E+02  5.503987336E+02  0.000000000E+00  0.00000E+00  9.000E+00
      21    -1     0     0   501   502  0.000000000E+00  0.000000000E+00 -1.609323451E+03  1.609323451E+03  0.000000000E+00  0.00000E+00  9.000E+00
      25     1     1     2     0     0  2.426384317E+02 -2.502523250E+01  1.547043073E+02  3.147349576E+02  1.250000000E+02  0.00000E+00  9.000E+00
      25     1     1     2     0     0 -1.972130943E+02  2.041456436E+02 -1.484795611E+03  1.516842594E+03  1.250000000E+02  0.00000E+00  9.000E+00
      21     1     1     2   511   502 -4.542533740E+01 -1.791204111E+02  2.711665861E+02  3.281446333E+02  3.814697266E-06  0.00000E+00  9.000E+00
#rwgt            2          11   4.9519065167452194E-003           4       76531           0
</event>
<event>
      5   9999  3.19816E-02  2.25572E+01 -1.00000E+00  1.62170E-01
      21    -1     0     0   502   501  0.000000000E+00  0.000000000E+00  1.157368330E+03  1.157368330E+03  0.000000000E+00  0.00000E+00  9.000E+00
      21    -1     0     0   512   502  0.000000000E+00  0.000000000E+00 -4.528883388E+02  4.528883388E+02  0.000000000E+00  0.00000E+00  9.000E+00
      25     1     1     2     0     0 -5.398239800E+02  3.125822030E+02  6.619886002E+02  9.181347776E+02  1.250000000E+02  0.00000E+00  9.000E+00
      25     1     1     2     0     0  5.622715798E+02 -3.103611647E+02  6.829702131E+01  6.578471443E+02  1.250000000E+02  0.00000E+00  9.000E+00
      21     1     1     2   512   501 -2.244759981E+01 -2.221038273E+00 -2.580563012E+01  3.427474718E+01  4.768371582E-07  0.00000E+00  9.000E+00
#rwgt            1           1   2.8177653896151175E-002           4       76551           0
</event>
<event>
      5   9999  3.19816E-02  1.83186E+02 -1.00000E+00  1.13054E-01
      21    -1     0     0   502   501  0.000000000E+00  0.000000000E+00  2.246767015E+02  2.246767015E+02  0.000000000E+00  0.00000E+00  9.000E+00
      21    -1     0     0   511   502  0.000000000E+00  0.000000000E+00 -7.722251574E+02  7.722251574E+02  0.000000000E+00  0.00000E+00  9.000E+00
      25     1     1     2     0     0  2.030872424E+01  3.754467193E+01 -3.067392815E+01  1.356021259E+02  1.250000000E+02  0.00000E+00  9.000E+00
      25     1     1     2     0     0  2.420184747E+01 -2.152409036E+02  5.903978503E+01  2.569534437E+02  1.250000000E+02  0.00000E+00  9.000E+00
      21     1     1     2   511   501 -4.451057171E+01  1.776962317E+02 -5.759143128E+02  6.043462893E+02  0.000000000E+00  0.00000E+00  9.000E+00
#rwgt            1           1   2.6251390507640641E-002           4       76737           0
</event>
<event>
      5   9999  3.19816E-02  6.09153E+01 -1.00000E+00  1.34353E-01
      21    -1     0     0   502   501  0.000000000E+00  0.000000000E+00  3.476674915E+02  3.476674915E+02  0.000000000E+00  0.00000E+00  9.000E+00
      21    -1     0     0   501   512  0.000000000E+00  0.000000000E+00 -6.444402428E+02  6.444402428E+02  0.000000000E+00  0.00000E+00  9.000E+00
      25     1     1     2     0     0  2.950465105E+02  3.027973117E+02 -4.507746729E+01  4.431654696E+02  1.250000000E+02  0.00000E+00  9.000E+00
      25     1     1     2     0     0 -2.404698353E+02 -3.298538396E+02 -2.215037848E+02  4.809555321E+02  1.250000000E+02  0.00000E+00  9.000E+00
      21     1     1     2   502   512 -5.457667521E+01  2.705652788E+01 -3.019149923E+01  6.798673256E+01  1.469710828E-06  0.00000E+00  9.000E+00
#rwgt            2          11   6.2666339940100606E-003           4       76850           0
</event>
<event>
      5   9999  3.19816E-02  4.49465E+01 -1.00000E+00  1.41768E-01
       2    -1     0     0   502     0  0.000000000E+00  0.000000000E+00  1.076959598E+03  1.076959598E+03  0.000000000E+00  0.00000E+00  9.000E+00
      21    -1     0     0   501   502  0.000000000E+00  0.000000000E+00 -2.690050519E+02  2.690050519E+02  0.000000000E+00  0.00000E+00  9.000E+00
      25     1     1     2     0     0 -6.177154345E+01 -2.660272269E+02  6.429405717E+02  7.096363771E+02  1.250000000E+02  0.00000E+00  9.000E+00
      25     1     1     2     0     0  1.708747222E+01  2.611769807E+02 -1.441616078E+02  3.239027109E+02  1.250000000E+02  0.00000E+00  9.000E+00
       2     1     1     2   501     0  4.468407123E+01  4.850246146E+00  3.091755822E+02  3.124255619E+02  6.607249480E-06  0.00000E+00  9.000E+00
#rwgt            1           1   2.6139590021743816E-002           4       76870           0
</event>
<event>
      5   9999  3.19816E-02  9.31370E+02 -1.00000E+00  9.17386E-02
      21    -1     0     0   502   501  0.000000000E+00  0.000000000E+00  1.791133653E+03  1.791133653E+03  0.000000000E+00  0.00000E+00  9.000E+00
      21    -1     0     0   511   502  0.000000000E+00  0.000000000E+00 -6.875607902E+02  6.875607902E+02  0.000000000E+00  0.00000E+00  9.000E+00
      25     1     1     2     0     0  2.925692242E+01  2.351133736E+02  2.921345800E+02  3.963607937E+02  1.250000000E+02  0.00000E+00  9.000E+00
      25     1     1     2     0     0 -8.461637101E+02  2.122260484E+02  7.354963145E+02  1.147873141E+03  1.250000000E+02  0.00000E+00  9.000E+00
      21     1     1     2   511   501  8.169067877E+02 -4.473394220E+02  7.594196807E+01  9.344605079E+02  1.668248719E-05  0.00000E+00  9.000E+00
#rwgt            2          11   1.4088676764735170E-003           4       77061           0
</event>
<event>
      5   9999  3.19816E-02  8.82979E+01 -1.00000E+00  1.26309E-01
      21    -1     0     0   502   501  0.000000000E+00  0.000000000E+00  3.157315578E+03  3.157315578E+03  0.000000000E+00  0.00000E+00  9.000E+00
      21    -1     0     0   501   512  0.000000000E+00  0.000000000E+00 -1.586286072E+02  1.586286072E+02  0.000000000E+00  0.00000E+00  9.000E+00
      25     1     1     2     0     0  6.388570706E+02 -1.030969699E+02  1.046414635E+03  1.236679397E+03  1.250000000E+02  0.00000E+00  9.000E+00
      25     1     1     2     0     0 -5.598919704E+02  1.426068210E+02  1.859455570E+03  1.951157539E+03  1.250000000E+02  0.00000E+00  9.000E+00
      21     1     1     2   502   512 -7.896510021E+01 -3.950985105E+01  9.281676488E+01  1.281072489E+02  2.697398305E-06  0.00000E+00  9.000E+00
#rwgt            1           1   5.7125769258217531E-002           4       77111           0
</event>
<event>
      5   9999  3.19816E-02  1.94475E+01 -1.00000E+00  1.67379E-01
      21    -1     0     0   502   511  0.000000000E+00  0.000000000E+00  7.265092145E+02  7.265092145E+02  0.000000000E+00  0.00000E+00  9.000E+00
      21    -1     0     0   501   502  0.000000000E+00  0.000000000E+00 -3.959081294E+02  3.959081294E+02  0.000000000E+00  0.00000E+00  9.000E+00
      25     1     1     2     0     0 -2.202074848E+02  2.148099987E+02  3.970175645E+02  5.175737807E+02  1.250000000E+02  0.00000E+00  9.000E+00
      25     1     1     2     0     0  2.316125683E+02 -2.305620752E+02 -2.437609452E+02  4.264359867E+02  1.250000000E+02  0.00000E+00  9.000E+00
      21     1     1     2   501   511 -1.140508354E+01  1.575207648E+01  1.773444658E+02  1.784075766E+02  2.697398305E-06  0.00000E+00  9.000E+00
#rwgt            1           1   3.0542745623051652E-002           4       77197           0
</event>
<event>
      5   9999  3.19816E-02  3.54030E+02 -1.00000E+00  1.03307E-01
      21    -1     0     0   502   512  0.000000000E+00  0.000000000E+00  4.967912023E+02  4.967912023E+02  0.000000000E+00  0.00000E+00  9.000E+00
      21    -1     0     0   501   502  0.000000000E+00  0.000000000E+00 -1.055476568E+03  1.055476568E+03  0.000000000E+00  0.00000E+00  9.000E+00
      25     1     1     2     0     0  1.079342488E+02 -6.744606475E+02 -4.630705329E+02  8.346294301E+02  1.250000000E+02  0.00000E+00  9.000E+00
      25     1     1     2     0     0 -1.187588887E+01  3.337115267E+02 -6.340946931E+01  3.621466286E+02  1.250000000E+02  0.00000E+00  9.000E+00
      21     1     1     2   501   512 -9.605835996E+01  3.407491208E+02 -3.220536393E+01  3.554917120E+02  4.017901312E-06  0.00000E+00  9.000E+00
#rwgt            1           1   2.8252881999528218E-002           4       77382           0
</event>
<event>
      5   9999  3.19816E-02  2.24537E+01 -1.00000E+00  1.62326E-01
      21    -1     0     0   502   511  0.000000000E+00  0.000000000E+00  2.301814530E+02  2.301814530E+02  0.000000000E+00  0.00000E+00  9.000E+00
      21    -1     0     0   501   502  0.000000000E+00  0.000000000E+00 -5.308467501E+02  5.308467501E+02  0.000000000E+00  0.00000E+00  9.000E+00
      25     1     1     2     0     0  1.839423627E+02 -4.810722697E+01  1.252081173E+02  2.597136322E+02  1.250000000E+02  0.00000E+00  9.000E+00
      25     1     1     2     0     0 -1.709851021E+02  6.644511136E+01 -4.242341931E+02  4.788011159E+02  1.250000000E+02  0.00000E+00  9.000E+00
      21     1     1     2   501   511 -1.295726066E+01 -1.833788438E+01 -1.639221316E+00  2.251345495E+01  5.327034870E-07  0.00000E+00  9.000E+00
#rwgt            1           1   2.8637757820238235E-002           4       77433           0
</event>
<event>
      5   9999  3.19816E-02  3.36608E+01 -1.00000E+00  1.49646E-01
      21    -1     0     0   502   501  0.000000000E+00  0.000000000E+00  2.006411586E+02  2.006411586E+02  0.000000000E+00  0.00000E+00  9.000E+00
      21    -1     0     0   512   502  0.000000000E+00  0.000000000E+00 -4.517273510E+02  4.517273510E+02  0.000000000E+00  0.00000E+00  9.000E+00
      25     1     1     2     0     0  4.529454260E+01 -1.767408601E+02  8.354048143E+01  2.364168760E+02  1.250000000E+02  0.00000E+00  9.000E+00
      25     1     1     2     0     0 -7.150357056E+01  1.556189657E+02 -3.026052624E+02  3.694928523E+02  1.250000000E+02  0.00000E+00  9.000E+00
      21     1     1     2   512   501  2.620902795E+01  2.112189439E+01 -3.202141143E+01  4.645878129E+01  0.000000000E+00  0.00000E+00  9.000E+00
#rwgt            1           1   2.9597302865846029E-002           4       77557           0
</event>
<event>
      5   9999  3.19816E-02  2.24472E+01 -1.00000E+00  1.62336E-01
      21    -1     0     0   502   511  0.000000000E+00  0.000000000E+00  9.949843083E+01  9.949843083E+01  0.000000000E+00  0.00000E+00  9.000E+00
      21    -1     0     0   501   502  0.000000000E+00  0.000000000E+00 -3.880917101E+02  3.880917101E+02  0.000000000E+00  0.00000E+00  9.000E+00
      25     1     1     2     0     0  6.382425620E+00 -1.014266155E+02 -4.336691527E+01  1.668345978E+02  1.250000000E+02  0.00000E+00  9.000E+00
      25     1     1     2     0     0 -6.913604162E-01  1.231404463E+02 -2.406806021E+02  2.978526477E+02  1.250000000E+02  0.00000E+00  9.000E+00
      21     1     1     2   501   511 -5.691065204E+00 -2.171383078E+01 -4.545761905E+00  2.290289548E+01  6.637292341E-07  0.00000E+00  9.000E+00
#rwgt            1           1   2.8336285634352299E-002           4       77672           0
</event>
<event>
      5   9999  3.19816E-02  2.08588E+02 -1.00000E+00  1.10987E-01
      21    -1     0     0   512   501  0.000000000E+00  0.000000000E+00  2.019008553E+03  2.019008553E+03  0.000000000E+00  0.00000E+00  9.000E+00
      21    -1     0     0   501   502  0.000000000E+00  0.000000000E+00 -6.474343140E+01  6.474343140E+01  0.000000000E+00  0.00000E+00  9.000E+00
      25     1     1     2     0     0 -7.819868754E+01  5.263677680E+01  1.539678949E+02  2.195831908E+02  1.250000000E+02  0.00000E+00  9.000E+00
      25     1     1     2     0     0  2.206263967E+02  9.975518217E+01  9.206905850E+02  9.601683481E+02  1.250000000E+02  0.00000E+00  9.000E+00
      21     1     1     2   512   502 -1.424277092E+02 -1.523919590E+02  8.796066417E+02  9.040004456E+02  1.078959322E-05  0.00000E+00  9.000E+00
#rwgt            1           1   2.9379524811933039E-002           4       77863           0
</event>
<event>
      5   9999  3.19816E-02  1.06380E+02 -1.00000E+00  1.22632E-01
       2    -1     0     0   502     0  0.000000000E+00  0.000000000E+00  1.897219865E+03  1.897219865E+03  0.000000000E+00  0.00000E+00  9.000E+00
      21    -1     0     0   501   502  0.000000000E+00  0.000000000E+00 -1.794017395E+03  1.794017395E+03  0.000000000E+00  0.00000E+00  9.000E+00
      25     1     1     2     0     0  4.429408437E+01  8.840599008E+02  4.693425869E+02  1.009668925E+03  1.250000000E+02  0.00000E+00  9.000E+00
      25     1     1     2     0     0 -8.369529819E+01 -9.828735939E+02 -1.358509335E+03  1.683513593E+03  1.250000000E+02  0.00000E+00  9.000E+00
       2     1     1     2   501     0  3.940121382E+01  9.881369314E+01  9.923692188E+02  9.980547420E+02  0.000000000E+00  0.00000E+00  9.000E+00
#rwgt            1           1   6.5602604955914384E-002           4       77911           0
</event>
<event>
      5   9999  3.19816E-02  2.08193E+01 -1.00000E+00  1.64943E-01
      21    -1     0     0   502   511  0.000000000E+00  0.000000000E+00  2.680038323E+02  2.680038323E+02  0.000000000E+00  0.00000E+00  9.000E+00
      21    -1     0     0   501   502  0.000000000E+00  0.000000000E+00 -3.707761485E+02  3.707761485E+02  0.000000000E+00  0.00000E+00  9.000E+00
      25     1     1     2     0     0 -1.189064983E+01  2.869697253E+02 -7.342520104E+01  3.217285672E+02  1.250000000E+02  0.00000E+00  9.000E+00
      25     1     1     2     0     0  1.325372286E+01 -2.661950968E+02 -3.177314782E+01  2.960912421E+02  1.250000000E+02  0.00000E+00  9.000E+00
      21     1     1     2   501   511 -1.363073034E+00 -2.077462852E+01  2.426032645E+00  2.096017158E+01  2.169641819E-07  0.00000E+00  9.000E+00
#rwgt            1           1   2.8004747464357462E-002           4       78047           0
</event>
<event>
      5   9999  3.19816E-02  2.31592E+02 -1.00000E+00  1.09377E-01
       2    -1     0     0   502     0  0.000000000E+00  0.000000000E+00  2.190989204E+03  2.190989204E+03  0.000000000E+00  0.00000E+00  9.000E+00
      21    -1     0     0   501   502  0.000000000E+00  0.000000000E+00 -4.869345814E+02  4.869345814E+02  0.000000000E+00  0.00000E+00  9.000E+00
      25     1     1     2     0     0  1.233280822E+02 -1.876164153E+02  1.826487070E+03  1.844475468E+03  1.250000000E+02  0.00000E+00  9.000E+00
      25     1     1     2     0     0 -3.516929053E+02  1.490914572E+02 -3.318487308E+02  5.212146797E+02  1.250000000E+02  0.00000E+00  9.000E+00
       2     1     1     2   501     0  2.283648231E+02  3.852495817E+01  2.094162836E+02  3.122336380E+02  2.697398305E-06  0.00000E+00  9.000E+00
#rwgt            2          18   1.3154755202052552E-003           4       78319           0
</event>
<event>
      5   9999  3.19816E-02  4.08809E+01 -1.00000E+00  1.44256E-01
       2    -1     0     0   502     0  0.000000000E+00  0.000000000E+00  3.540157421E+03  3.540157421E+03  0.000000000E+00  0.00000E+00  9.000E+00
      21    -1     0     0   501   502  0.000000000E+00  0.000000000E+00 -6.565973979E+02  6.565973979E+02  0.000000000E+00  0.00000E+00  9.000E+00
      25     1     1     2     0     0 -1.794772888E+02 -5.007593724E+01  3.117840524E+02  3.841275726E+02  1.250000000E+02  0.00000E+00  9.000E+00
      25     1     1     2     0     0  1.839256681E+02  9.071405854E+01 -5.970456591E+02  6.435419262E+02  1.250000000E+02  0.00000E+00  9.000E+00
       2     1     1     2   501     0 -4.448379301E+00 -4.063812130E+01  3.168821629E+03  3.169085320E+03  0.000000000E+00  0.00000E+00  9.000E+00
#rwgt            2          18   2.6118582737219755E-003           4       78428           0
</event>
<event>
      5   9999  3.19816E-02  2.05690E+01 -1.00000E+00  1.65370E-01
      21    -1     0     0   502   501  0.000000000E+00  0.000000000E+00  5.199403992E+02  5.199403992E+02  0.000000000E+00  0.00000E+00  9.000E+00
      21    -1     0     0   501   511  0.000000000E+00  0.000000000E+00 -8.268066601E+01  8.268066601E+01  0.000000000E+00  0.00000E+00  9.000E+00
      25     1     1     2     0     0 -1.322619739E+01  3.545765176E+01  4.366597074E+02  4.557728353E+02  1.250000000E+02  0.00000E+00  9.000E+00
      25     1     1     2     0     0  9.089463851E+00 -1.530891522E+01  1.278547981E+00  1.262680321E+02  1.250000000E+02  0.00000E+00  9.000E+00
      21     1     1     2   502   511  4.136733535E+00 -2.014873654E+01 -6.785222012E-01  2.058019779E+01  1.526914651E-07  0.00000E+00  9.000E+00
#rwgt            1           1   2.6784512644400574E-002           4       78447           0
</event>
<event>
      5   9999  3.19816E-02  2.09470E+01 -1.00000E+00  1.64728E-01
      21    -1     0     0   502   501  0.000000000E+00  0.000000000E+00  1.403406322E+03  1.403406322E+03  0.000000000E+00  0.00000E+00  9.000E+00
      21    -1     0     0   501   512  0.000000000E+00  0.000000000E+00 -3.835042955E+01  3.835042955E+01  0.000000000E+00  0.00000E+00  9.000E+00
      25     1     1     2     0     0 -1.297602981E+02  8.759889965E+01  4.631012400E+02  5.045781016E+02  1.250000000E+02  0.00000E+00  9.000E+00
      25     1     1     2     0     0  1.463956124E+02 -1.003284859E+02  8.817405211E+02  9.080687347E+02  1.250000000E+02  0.00000E+00  9.000E+00
      21     1     1     2   502   512 -1.663531423E+01  1.272958629E+01  2.021413087E+01  2.910991470E+01  5.840038640E-07  0.00000E+00  9.000E+00
#rwgt            1           1   3.8780490021518649E-002           4       78613           0
</event>
<event>
      5   9999  3.19816E-02  2.05874E+02 -1.00000E+00  1.11192E-01
      21    -1     0     0   502   511  0.000000000E+00  0.000000000E+00  8.699072304E+02  8.699072304E+02  0.000000000E+00  0.00000E+00  9.000E+00
      21    -1     0     0   501   502  0.000000000E+00  0.000000000E+00 -6.908607568E+02  6.908607568E+02  0.000000000E+00  0.00000E+00  9.000E+00
      25     1     1     2     0     0 -2.717959812E+02  5.379029759E+02 -1.086121069E+02  6.250074053E+02  1.250000000E+02  0.00000E+00  9.000E+00
      25     1     1     2     0     0  7.172665617E+01 -4.893584447E+02 -7.806057822E+01  5.160764038E+02  1.250000000E+02  0.00000E+00  9.000E+00
      21     1     1     2   501   511  2.000693250E+02 -4.854453119E+01  3.657191587E+02  4.196841781E+02  0.000000000E+00  0.00000E+00  9.000E+00
#rwgt            1           1   3.0624464191298724E-002           4       78728           0
</event>
<event>
      5   9999  3.19816E-02  3.17631E+01 -1.00000E+00  1.51337E-01
      21    -1     0     0   502   501  0.000000000E+00  0.000000000E+00  5.327193994E+02  5.327193994E+02  0.000000000E+00  0.00000E+00  9.000E+00
      21    -1     0     0   501   512  0.000000000E+00  0.000000000E+00 -6.978425836E+02  6.978425836E+02  0.000000000E+00  0.00000E+00  9.000E+00
      25     1     1     2     0     0  1.444134153E+02  2.028199622E+02 -1.919327289E+02  3.383110166E+02  1.250000000E+02  0.00000E+00  9.000E+00
      25     1     1     2     0     0 -1.395091139E+02 -2.342021313E+02  4.098733100E+02  5.078725838E+02  1.250000000E+02  0.00000E+00  9.000E+00
      21     1     1     2   502   512 -4.904301402E+00  3.138216916E+01 -3.830637652E+02  3.843783825E+02  5.394796609E-06  0.00000E+00  9.000E+00
#rwgt            1           1   3.1451909972765875E-002           4       78776           0
</event>
<event>
      5   9999  3.19816E-02  1.98924E+01 -1.00000E+00  1.66563E-01
      21    -1     0     0   502   501  0.000000000E+00  0.000000000E+00  7.491073865E+01  7.491073865E+01  0.000000000E+00  0.00000E+00  9.000E+00
      21    -1     0     0   511   502  0.000000000E+00  0.000000000E+00 -6.625529466E+02  6.625529466E+02  0.000000000E+00  0.00000E+00  9.000E+00
      25     1     1     2     0     0  8.745339102E+01  8.241075281E+01 -8.491997447E+01  1.930700128E+02  1.250000000E+02  0.00000E+00  9.000E+00
      25     1     1     2     0     0 -9.864152265E+01 -9.885860873E+01 -4.713484447E+02  5.072450402E+02  1.250000000E+02  0.00000E+00  9.000E+00
      21     1     1     2   511   501  1.118813163E+01  1.644785593E+01 -3.137378878E+01  3.714863223E+01  6.743495762E-07  0.00000E+00  9.000E+00
#rwgt            1           1   2.7228657753423337E-002           4       78900           0
</event>
<event>
      5   9999  3.19816E-02  2.41763E+01 -1.00000E+00  1.59848E-01
      21    -1     0     0   512   501  0.000000000E+00  0.000000000E+00  1.860727824E+02  1.860727824E+02  0.000000000E+00  0.00000E+00  9.000E+00
      21    -1     0     0   501   502  0.000000000E+00  0.000000000E+00 -3.951304867E+02  3.951304867E+02  0.000000000E+00  0.00000E+00  9.000E+00
      25     1     1     2     0     0  1.493403633E+02 -9.706564714E+01 -1.242692256E+02  2.505835677E+02  1.250000000E+02  0.00000E+00  9.000E+00
      25     1     1     2     0     0 -1.565091139E+02  7.397661474E+01 -1.500827838E+02  2.609932648E+02  1.250000000E+02  0.00000E+00  9.000E+00
      21     1     1     2   512   502  7.168750606E+00  2.308903239E+01  6.529430509E+01  6.962643664E+01  9.536743164E-07  0.00000E+00  9.000E+00
#rwgt            1           1   3.3618896192195262E-002           4       79017           0
</event>
<event>
      5   9999  3.19816E-02  1.43507E+02 -1.00000E+00  1.17160E-01
      21    -1     0     0   502   501  0.000000000E+00  0.000000000E+00  2.066488238E+03  2.066488238E+03  0.000000000E+00  0.00000E+00  9.000E+00
      21    -1     0     0   511   502  0.000000000E+00  0.000000000E+00 -3.503018822E+02  3.503018822E+02  0.000000000E+00  0.00000E+00  9.000E+00
      25     1     1     2     0     0 -1.577305988E+02  1.788245825E+02  1.454950737E+03  1.479649898E+03  1.250000000E+02  0.00000E+00  9.000E+00
      25     1     1     2     0     0  2.586190146E+02 -2.808819615E+02  5.104343539E+02  6.495742457E+02  1.250000000E+02  0.00000E+00  9.000E+00
      21     1     1     2   511   501 -1.008884159E+02  1.020573790E+02 -2.491987354E+02  2.875659764E+02  2.697398305E-06  0.00000E+00  9.000E+00
#rwgt            1           1   2.9587543932785877E-002           4       79115           0
</event>
<event>
      5   9999  3.19816E-02  1.12198E+02 -1.00000E+00  1.21621E-01
      21    -1     0     0   502   512  0.000000000E+00  0.000000000E+00  1.420574017E+02  1.420574017E+02  0.000000000E+00  0.00000E+00  9.000E+00
      21    -1     0     0   501   502  0.000000000E+00  0.000000000E+00 -1.055678917E+03  1.055678917E+03  0.000000000E+00  0.00000E+00  9.000E+00
      25     1     1     2     0     0 -7.327887563E+01  1.869632150E+02 -8.425031386E+02  8.750780399E+02  1.250000000E+02  0.00000E+00  9.000E+00
      25     1     1     2     0     0  1.923402363E+00 -1.003794203E+02 -1.200129472E+02  2.002694060E+02  1.250000000E+02  0.00000E+00  9.000E+00
      21     1     1     2   501   512  7.135547327E+01 -8.658379468E+01  4.889457082E+01  1.223888725E+02  1.507891493E-06  0.00000E+00  9.000E+00
#rwgt            1           1   3.1512265885389378E-002           4       79179           0
</event>
<event>
      5   9999  3.19816E-02  2.37875E+02 -1.00000E+00  1.08973E-01
      21    -1     0     0   502   501  0.000000000E+00  0.000000000E+00  4.043377554E+02  4.043377554E+02  0.000000000E+00  0.00000E+00  9.000E+00
      21    -1     0     0   501   511  0.000000000E+00  0.000000000E+00 -8.268676591E+02  8.268676591E+02  0.000000000E+00  0.00000E+00  9.000E+00
      25     1     1     2     0     0  4.669871565E+02  1.571653618E+02 -1.140640020E+02  5.209736575E+02  1.250000000E+02  0.00000E+00  9.000E+00
      25     1     1     2     0     0 -3.534349181E+02  5.185684877E+01 -9.401466763E+01  3.899604234E+02  1.250000000E+02  0.00000E+00  9.000E+00
      21     1     1     2   502   511 -1.135522384E+02 -2.090222106E+02 -2.144512341E+02  3.202713337E+02  3.814697266E-06  0.00000E+00  9.000E+00
#rwgt            2          11   3.3254461957777579E-003           4       79249           0
</event>
<event>
      5   9999  3.19816E-02  2.98618E+01 -1.00000E+00  1.53179E-01
      21    -1     0     0   502   501  0.000000000E+00  0.000000000E+00  7.251800471E+02  7.251800471E+02  0.000000000E+00  0.00000E+00  9.000E+00
      -3    -1     0     0     0   502  0.000000000E+00  0.000000000E+00 -4.160071694E+02  4.160071694E+02  0.000000000E+00  0.00000E+00  9.000E+00
      25     1     1     2     0     0  3.682894823E+01  1.576029105E+02  6.603246786E+02  6.912660341E+02  1.250000000E+02  0.00000E+00  9.000E+00
      25     1     1     2     0     0 -6.667691442E+01 -1.566943164E+02 -1.840603322E+02  2.801823078E+02  1.250000000E+02  0.00000E+00  9.000E+00
      -3     1     1     2     0   501  2.984796619E+01 -9.085940556E-01 -1.670914687E+02  1.697388745E+02  4.264961200E-06  0.00000E+00  9.000E+00
#rwgt            1           1   2.7884528429181942E-002           4       79269           0
</event>
<event>
      5   9999  3.19816E-02  2.61249E+02 -1.00000E+00  1.07581E-01
      21    -1     0     0   502   501  0.000000000E+00  0.000000000E+00  6.626199308E+02  6.626199308E+02  0.000000000E+00  0.00000E+00  9.000E+00
      21    -1     0     0   511   502  0.000000000E+00  0.000000000E+00 -5.643658322E+02  5.643658322E+02  0.000000000E+00  0.00000E+00  9.000E+00
      25     1     1     2     0     0 -3.498878872E+02 -2.545285187E+02  1.344818628E+02  4.700177357E+02  1.250000000E+02  0.00000E+00  9.000E+00
      25     1     1     2     0     0  1.229509031E+02  3.839529644E+02  1.366936699E+02  4.436743883E+02  1.250000000E+02  0.00000E+00  9.000E+00
      21     1     1     2   511   501  2.269369841E+02 -1.294244457E+02 -1.729214341E+02  3.132936390E+02  3.303624740E-06  0.00000E+00  9.000E+00
#rwgt            1           1   2.9857880948853475E-002           4       79421           0
</event>
<event>
      5   9999  3.19816E-02  5.43949E+01 -1.00000E+00  1.37020E-01
      21    -1     0     0   502   501  0.000000000E+00  0.000000000E+00  1.802510237E+02  1.802510237E+02  0.000000000E+00  0.00000E+00  9.000E+00
      21    -1     0     0   512   502  0.000000000E+00  0.000000000E+00 -3.741792416E+02  3.741792416E+02  0.000000000E+00  0.00000E+00  9.000E+00
      25     1     1     2     0     0  1.567820307E+02  5.822028997E+01 -2.201439674E+01  2.099519968E+02  1.250000000E+02  0.00000E+00  9.000E+00
      25     1     1     2     0     0 -2.016849928E+02 -2.751958080E+01 -1.128602862E+02  2.641904765E+02  1.250000000E+02  0.00000E+00  9.000E+00
      21     1     1     2   512   501  4.490296211E+01 -3.070070917E+01 -5.905353501E+01  8.028779202E+01  9.536743164E-07  0.00000E+00  9.000E+00
#rwgt            1           1   2.7482320476944436E-002           4       79465           0
</event>
<event>
      5   9999  3.19816E-02  5.47892E+01 -1.00000E+00  1.36846E-01
      21    -1     0     0   502   511  0.000000000E+00  0.000000000E+00  4.107324017E+02  4.107324017E+02  0.000000000E+00  0.00000E+00  9.000E+00
      21    -1     0     0   501   502  0.000000000E+00  0.000000000E+00 -4.047395616E+02  4.047395616E+02  0.000000000E+00  0.00000E+00  9.000E+00
      25     1     1     2     0     0  1.476591542E+02 -1.540361416E+02 -1.977898409E+02  3.166641437E+02  1.250000000E+02  0.00000E+00  9.000E+00
      25     1     1     2     0     0 -1.151753520E+02  1.981570551E+02 -2.620876967E+01  2.623804105E+02  1.250000000E+02  0.00000E+00  9.000E+00
      21     1     1     2   501   511 -3.248380221E+01 -4.412091355E+01  2.299914506E+02  2.364274091E+02  3.814697266E-06  0.00000E+00  9.000E+00
#rwgt            1           1   2.6179458588159107E-002           4       79534           0
</event>
<event>
      5   9999  3.19816E-02  1.11412E+01 -1.00000E+00  1.90484E-01
      21    -1     0     0   512   501  0.000000000E+00  0.000000000E+00  6.460463445E+02  6.460463445E+02  0.000000000E+00  0.00000E+00  9.000E+00
      21    -1     0     0   501   502  0.000000000E+00  0.000000000E+00 -2.508397379E+02  2.508397379E+02  0.000000000E+00  0.00000E+00  9.000E+00
      25     1     1     2     0     0 -6.836394063E+01 -1.327012512E+02  5.199268986E+01  2.015229273E+02  1.250000000E+02  0.00000E+00  9.000E+00
      25     1     1     2     0     0  6.291746514E+01  1.424204489E+02 -1.193804415E+02  2.326346524E+02  1.250000000E+02  0.00000E+00  9.000E+00
      21     1     1     2   512   502  5.446475497E+00 -9.719197748E+00  4.625943582E+02  4.627285027E+02  0.000000000E+00  0.00000E+00  9.000E+00
#rwgt            1           1   2.5219290539158383E-002           4       79622           0
</event>
<event>
      5   9999  3.19816E-02  1.21380E+01 -1.00000E+00  1.86507E-01
      21    -1     0     0   511   501  0.000000000E+00  0.000000000E+00  1.137897912E+03  1.137897912E+03  0.000000000E+00  0.00000E+00  9.000E+00
      21    -1     0     0   501   502  0.000000000E+00  0.000000000E+00 -3.093524513E+02  3.093524513E+02  0.000000000E+00  0.00000E+00  9.000E+00
      25     1     1     2     0     0  4.593013987E+02  9.985279075E+00 -6.994879498E+00  4.761632168E+02  1.250000000E+02  0.00000E+00  9.000E+00
      25     1     1     2     0     0 -4.575307126E+02  2.022859069E+00  7.694375516E+02  9.038791903E+02  1.250000000E+02  0.00000E+00  9.000E+00
      21     1     1     2   511   502 -1.770686085E+00 -1.200813814E+01  6.610278829E+01  6.720795585E+01  9.536743164E-07  0.00000E+00  9.000E+00
#rwgt            1           1   3.0697789904307278E-002           4       79863           0
</event>
<event>
      5   9999  3.19816E-02  4.35079E+01 -1.00000E+00  1.42612E-01
       4    -1     0     0   502     0  0.000000000E+00  0.000000000E+00  1.274583484E+03  1.274583484E+03  0.000000000E+00  0.00000E+00  9.000E+00
      21    -1     0     0   501   502  0.000000000E+00  0.000000000E+00 -1.299554122E+02  1.299554122E+02  0.000000000E+00  0.00000E+00  9.000E+00
      25     1     1     2     0     0 -1.443384649E+02  2.049078557E+01  5.190646104E+02  5.534496675E+02  1.250000000E+02  0.00000E+00  9.000E+00
      25     1     1     2     0     0  1.015984769E+02 -2.862916767E+01 -5.235296503E+01  1.717780915E+02  1.250000000E+02  0.00000E+00  9.000E+00
       4     1     1     2   501     0  4.273998795E+01  8.138382102E+00  6.779164263E+02  6.793111370E+02  1.078959322E-05  0.00000E+00  9.000E+00
#rwgt            1           1   2.0999400758341891E-002           4       80129           0
</event>
<event>
      5   9999  3.19816E-02  4.45603E+01 -1.00000E+00  1.41991E-01
      21    -1     0     0   502   511  0.000000000E+00  0.000000000E+00  6.940602725E+02  6.940602725E+02  0.000000000E+00  0.00000E+00  9.000E+00
      21    -1     0     0   501   502  0.000000000E+00  0.000000000E+00 -1.507995821E+02  1.507995821E+02  0.000000000E+00  0.00000E+00  9.000E+00
      25     1     1     2     0     0  1.831841841E+02 -9.589505961E+00 -2.644372147E+01  2.235456874E+02  1.250000000E+02  0.00000E+00  9.000E+00
      25     1     1     2     0     0 -1.429012567E+02 -9.460604441E+00  3.619136004E+02  4.087991271E+02  1.250000000E+02  0.00000E+00  9.000E+00
      21     1     1     2   501   511 -4.028292739E+01  1.905011040E+01  2.077908115E+02  2.125150401E+02  2.697398305E-06  0.00000E+00  9.000E+00
#rwgt            1           1   1.8531510964313033E-002           4       80202           0
</event>
<event>
      5   9999  3.19816E-02  1.06522E+02 -1.00000E+00  1.22606E-01
      21    -1     0     0   502   501  0.000000000E+00  0.000000000E+00  2.059418394E+03  2.059418394E+03  0.000000000E+00  0.00000E+00  9.000E+00
      21    -1     0     0   501   512  0.000000000E+00  0.000000000E+00 -1.568978192E+02  1.568978192E+02  0.000000000E+00  0.00000E+00  9.000E+00
      25     1     1     2     0     0  1.580050264E+02 -1.837973919E+02  2.642324576E+02  3.797247178E+02  1.250000000E+02  0.00000E+00  9.000E+00
      25     1     1     2     0     0 -6.245461406E+01  1.367123793E+02  1.701521895E+03  1.712714983E+03  1.250000000E+02  0.00000E+00  9.000E+00
      21     1     1     2   502   512 -9.555041234E+01  4.708501263E+01 -6.323377771E+01  1.238765125E+02  2.023048729E-06  0.00000E+00  9.000E+00
#rwgt            1           1   3.0198558448622122E-002           4       80280           0
</event>
<event>
      5   9999  3.19816E-02  8.96272E+00 -1.00000E+00  2.01421E-01
      21    -1     0     0   502   501  0.000000000E+00  0.000000000E+00  1.425242520E+03  1.425242520E+03  0.000000000E+00  0.00000E+00  9.000E+00
      21    -1     0     0   511   502  0.000000000E+00  0.000000000E+00 -3.414850183E+02  3.414850183E+02  0.000000000E+00  0.00000E+00  9.000E+00
      25     1     1     2     0     0  5.153313437E+02 -3.810254556E+01 -1.739304257E+01  5.319264195E+02  1.250000000E+02  0.00000E+00  9.000E+00
      25     1     1     2     0     0 -5.073261466E+02  4.213331944E+01  1.106483653E+03  1.224371720E+03  1.250000000E+02  0.00000E+00  9.000E+00
      21     1     1     2   511   501 -8.005197115E+00 -4.030773877E+00 -5.333108060E+00  1.042939886E+01  8.429369702E-08  0.00000E+00  9.000E+00
#rwgt            1           1   2.9191810774378459E-002           4       80390           0
</event>
<event>
      5   9999  3.19816E-02  8.92128E+01 -1.00000E+00  1.26099E-01
       1    -1     0     0   502     0  0.000000000E+00  0.000000000E+00  9.915507258E+02  9.915507258E+02  0.000000000E+00  0.00000E+00  9.000E+00
      21    -1     0     0   501   502  0.000000000E+00  0.000000000E+00 -2.280946270E+02  2.280946270E+02  0.000000000E+00  0.00000E+00  9.000E+00
      25     1     1     2     0     0 -1.228951459E+02  5.273088738E+01 -7.976528120E+01  1.996778993E+02  1.250000000E+02  0.00000E+00  9.000E+00
      25     1     1     2     0     0  1.264616147E+02 -1.418724056E+02  6.490436650E+01  2.365542142E+02  1.250000000E+02  0.00000E+00  9.000E+00
       1     1     1     2   501     0 -3.566468758E+00  8.914151821E+01  7.783170135E+02  7.834132393E+02  1.078959322E-05  0.00000E+00  9.000E+00
#rwgt            1           1   2.5962969753437020E-002           4       80727           0
</event>
<event>
      5   9999  3.19816E-02  1.11556E+02 -1.00000E+00  1.21729E-01
      21    -1     0     0   502   501  0.000000000E+00  0.000000000E+00  3.504721301E+02  3.504721301E+02  0.000000000E+00  0.00000E+00  9.000E+00
      21    -1     0     0   501   511  0.000000000E+00  0.000000000E+00 -1.289633635E+03  1.289633635E+03  0.000000000E+00  0.00000E+00  9.000E+00
      25     1     1     2     0     0  5.127751558E+02  1.331865373E+02 -6.401252913E+02  8.402751946E+02  1.250000000E+02  0.00000E+00  9.000E+00
      25     1     1     2     0     0 -4.716397341E+02 -2.949162542E+01 -8.799229838E+00  4.888928525E+02  1.250000000E+02  0.00000E+00  9.000E+00
      21     1     1     2   502   511 -4.113542166E+01 -1.036949119E+02 -2.902369833E+02  3.109377175E+02  0.000000000E+00  0.00000E+00  9.000E+00
#rwgt            2          11   3.2374293716671710E-003           4       80839           0
</event>
<event>
      5   9999  3.19816E-02  7.15821E+01 -1.00000E+00  1.30731E-01
       2    -1     0     0   502     0  0.000000000E+00  0.000000000E+00  1.587976463E+03  1.587976463E+03  0.000000000E+00  0.00000E+00  9.000E+00
      21    -1     0     0   501   502  0.000000000E+00  0.000000000E+00 -1.436495635E+02  1.436495635E+02  0.000000000E+00  0.00000E+00  9.000E+00
      25     1     1     2     0     0 -2.423425097E+02  2.303675519E+02  1.682103933E+02  3.946122621E+02  1.250000000E+02  0.00000E+00  9.000E+00
      25     1     1     2     0     0  1.707752989E+02 -2.318255879E+02  8.759389857E+02  9.304845043E+02  1.250000000E+02  0.00000E+00  9.000E+00
       2     1     1     2   501     0  7.156721082E+01  1.458036051E+00  4.001775205E+02  4.065292602E+02  5.394796609E-06  0.00000E+00  9.000E+00
#rwgt            1           1   2.9944072113156594E-002           4       80874           0
</event>
<event>
      5   9999  3.19816E-02  1.27884E+02 -1.00000E+00  1.19207E-01
      21    -1     0     0   502   511  0.000000000E+00  0.000000000E+00  1.279954571E+03  1.279954571E+03  0.000000000E+00  0.00000E+00  9.000E+00
      21    -1     0     0   501   502  0.000000000E+00  0.000000000E+00 -1.861780703E+02  1.861780703E+02  0.000000000E+00  0.00000E+00  9.000E+00
      25     1     1     2     0     0  1.959173405E+02 -1.613091880E+02  6.609605464E+00  2.829716334E+02  1.250000000E+02  0.00000E+00  9.000E+00
      25     1     1     2     0     0 -1.254974398E+02  2.680581473E+02  9.069623852E+02  9.621904935E+02  1.250000000E+02  0.00000E+00  9.000E+00
      21     1     1     2   501   511 -7.041990075E+01 -1.067489593E+02  1.802045104E+02  2.209705146E+02  1.907348633E-06  0.00000E+00  9.000E+00
#rwgt            1           1   2.8684870986072822E-002           4       80974           0
</event>
<event>
      5   9999  3.19816E-02  3.18982E+01 -1.00000E+00  1.51212E-01
      21    -1     0     0   512   501  0.000000000E+00  0.000000000E+00  4.586965897E+02  4.586965897E+02  0.000000000E+00  0.00000E+00  9.000E+00
      21    -1     0     0   501   502  0.000000000E+00  0.000000000E+00 -9.421976070E+02  9.421976070E+02  0.000000000E+00  0.00000E+00  9.000E+00
      25     1     1     2     0     0 -9.437691097E+01  6.089469951E+02 -2.664540828E+02  6.828954696E+02  1.250000000E+02  0.00000E+00  9.000E+00
      25     1     1     2     0     0  1.197921234E+02 -5.896709860E+02 -2.576314044E+02  6.663789951E+02  1.250000000E+02  0.00000E+00  9.000E+00
      21     1     1     2   512   502 -2.541521242E+01 -1.927600904E+01  4.058446983E+01  5.161973207E+01  0.000000000E+00  0.00000E+00  9.000E+00
#rwgt            1           1   3.0761682814277366E-002           4       81039           0
</event>
<event>
      5   9999  3.19816E-02  6.16348E+01 -1.00000E+00  1.34082E-01
      21    -1     0     0   502   501  0.000000000E+00  0.000000000E+00  3.240223975E+01  3.240223975E+01  0.000000000E+00  0.00000E+00  9.000E+00
       2    -1     0     0   501     0  0.000000000E+00  0.000000000E+00 -2.355017160E+03  2.355017160E+03  0.000000000E+00  0.00000E+00  9.000E+00
      25     1     1     2     0     0 -1.401930693E+02 -8.426042314E+00 -4.389590657E+02  4.775302674E+02  1.250000000E+02  0.00000E+00  9.000E+00
      25     1     1     2     0     0  1.830017286E+02  5.276858814E+01 -1.074269178E+03  1.098159107E+03  1.250000000E+02  0.00000E+00  9.000E+00
       2     1     1     2   502     0 -4.280865932E+01 -4.434254582E+01 -8.093866763E+02  8.117300256E+02  1.078959322E-05  0.00000E+00  9.000E+00
#rwgt            2          13   2.4035134849079848E-003           4       81292           0
</event>
<event>
      5   9999  3.19816E-02  6.16384E+01 -1.00000E+00  1.34081E-01
      21    -1     0     0   502   501  0.000000000E+00  0.000000000E+00  5.407049173E+02  5.407049173E+02  0.000000000E+00  0.00000E+00  9.000E+00
      21    -1     0     0   501   511  0.000000000E+00  0.000000000E+00 -5.026146563E+02  5.026146563E+02  0.000000000E+00  0.00000E+00  9.000E+00
      25     1     1     2     0     0  1.443854863E+02 -2.989914556E+02  3.980002191E+02  5.331718612E+02  1.250000000E+02  0.00000E+00  9.000E+00
      25     1     1     2     0     0 -1.190571250E+02  2.427974425E+02 -3.171753535E+02  4.351441163E+02  1.250000000E+02  0.00000E+00  9.000E+00
      21     1     1     2   502   511 -2.532836133E+01  5.619401313E+01 -4.273460459E+01  7.500359611E+01  1.261592536E-06  0.00000E+00  9.000E+00
#rwgt            1           1   3.0645269608629226E-002           4       81326           0
</event>
<event>
      5   9999  3.19816E-02  4.74475E+01 -1.00000E+00  1.40386E-01
      21    -1     0     0   502   512  0.000000000E+00  0.000000000E+00  9.278910328E+02  9.278910328E+02  0.000000000E+00  0.00000E+00  9.000E+00
      21    -1     0     0   501   502  0.000000000E+00  0.000000000E+00 -1.339473378E+02  1.339473378E+02  0.000000000E+00  0.00000E+00  9.000E+00
      25     1     1     2     0     0  1.280302411E+02 -1.445487612E+01 -3.967142213E+01  1.838464245E+02  1.250000000E+02  0.00000E+00  9.000E+00
      25     1     1     2     0     0 -1.169945579E+02 -3.169139197E+01  3.389514988E+02  3.810579870E+02  1.250000000E+02  0.00000E+00  9.000E+00
      21     1     1     2   501   512 -1.103568319E+01  4.614626810E+01  4.946636184E+02  4.969339591E+02  7.629394531E-06  0.00000E+00  9.000E+00
#rwgt            1           1   3.3370573985739893E-002           4       81432           0
</event>
<event>
      5   9999  3.19816E-02  1.40543E+02 -1.00000E+00  1.17526E-01
       2    -1     0     0   502     0  0.000000000E+00  0.000000000E+00  1.443572203E+03  1.443572203E+03  0.000000000E+00  0.00000E+00  9.000E+00
      21    -1     0     0   501   502  0.000000000E+00  0.000000000E+00 -7.386470552E+02  7.386470552E+02  0.000000000E+00  0.00000E+00  9.000E+00
      25     1     1     2     0     0 -7.633052749E+01 -1.887153428E+02 -5.087235392E+02  5.620182109E+02  1.250000000E+02  0.00000E+00  9.000E+00
      25     1     1     2     0     0 -2.275248598E+01  2.883885715E+02 -7.497828121E+01  3.239326881E+02  1.250000000E+02  0.00000E+00  9.000E+00
       2     1     1     2   501     0  9.908301347E+01 -9.967322868E+01  1.288626969E+03  1.296268360E+03  1.525878906E-05  0.00000E+00  9.000E+00
#rwgt            2          18   5.1840863035805288E-003           4       81581           0
</event>
<event>
      5   9999  3.19816E-02  1.66394E+02 -1.00000E+00  1.14636E-01
      21    -1     0     0   502   501  0.000000000E+00  0.000000000E+00  1.563183086E+03  1.563183086E+03  0.000000000E+00  0.00000E+00  9.000E+00
      -1    -1     0     0     0   502  0.000000000E+00  0.000000000E+00 -2.647900891E+02  2.647900891E+02  0.000000000E+00  0.00000E+00  9.000E+00
      25     1     1     2     0     0 -9.258807178E+01  1.256740229E+01  1.301151685E+03  1.310477469E+03  1.250000000E+02  0.00000E+00  9.000E+00
      25     1     1     2     0     0 -1.567485653E+01  1.137902761E+02  1.953324368E+02  2.587927529E+02  1.250000000E+02  0.00000E+00  9.000E+00
      -1     1     1     2     0   501  1.082629283E+02 -1.263576784E+02 -1.980911243E+02  2.587029533E+02  1.009274029E-05  0.00000E+00  9.000E+00
#rwgt            2          10   7.0362898270562898E-004           4       81600           0
</event>
<event>
      5   9999  3.19816E-02  1.38023E+02 -1.00000E+00  1.17844E-01
      21    -1     0     0   502   511  0.000000000E+00  0.000000000E+00  1.018899286E+03  1.018899286E+03  0.000000000E+00  0.00000E+00  9.000E+00
      21    -1     0     0   501   502  0.000000000E+00  0.000000000E+00 -3.484879962E+02  3.484879962E+02  0.000000000E+00  0.00000E+00  9.000E+00
      25     1     1     2     0     0  2.274465536E+02  3.985155135E+02  8.401660836E+01  4.829392713E+02  1.250000000E+02  0.00000E+00  9.000E+00
      25     1     1     2     0     0 -2.503349543E+02 -2.624032498E+02  1.259275412E+02  4.037397682E+02  1.250000000E+02  0.00000E+00  9.000E+00
      21     1     1     2   501   511  2.288840068E+01 -1.361122638E+02  4.604671408E+02  4.807082431E+02  0.000000000E+00  0.00000E+00  9.000E+00
#rwgt            2          11   2.0427113195157901E-003           4       81769           0
</event>
<event>
      5   9999  3.19816E-02  1.38437E+02 -1.00000E+00  1.17791E-01
       2    -1     0     0   502     0  0.000000000E+00  0.000000000E+00  1.230594876E+03  1.230594876E+03  0.000000000E+00  0.00000E+00  9.000E+00
      21    -1     0     0   501   502  0.000000000E+00  0.000000000E+00 -2.485719403E+02  2.485719403E+02  0.000000000E+00  0.00000E+00  9.000E+00
      25     1     1     2     0     0 -2.028878182E+02 -1.036584929E+02 -2.911156132E+01  2.614976729E+02  1.250000000E+02  0.00000E+00  9.000E+00
      25     1     1     2     0     0  3.030839711E+02  1.991865351E+02  2.835545721E+02  4.770360203E+02  1.250000000E+02  0.00000E+00  9.000E+00
       2     1     1     2   501     0 -1.001961529E+02 -9.552804217E+01  7.275799246E+02  7.406331228E+02  1.078959322E-05  0.00000E+00  9.000E+00
#rwgt            1           1   2.6252411795079412E-002           4       81819           0
</event>
<event>
      5   9999  3.19816E-02  1.25426E+02 -1.00000E+00  1.19559E-01
       1    -1     0     0   502     0  0.000000000E+00  0.000000000E+00  2.866324767E+03  2.866324767E+03  0.000000000E+00  0.00000E+00  9.000E+00
      21    -1     0     0   501   502  0.000000000E+00  0.000000000E+00 -6.418603442E+02  6.418603442E+02  0.000000000E+00  0.00000E+00  9.000E+00
      25     1     1     2     0     0 -3.821618193E+02 -1.204061174E+02 -2.812747661E+02  5.052581353E+02  1.250000000E+02  0.00000E+00  9.000E+00
      25     1     1     2     0     0  5.055264328E+02  9.776081261E+01  3.714519082E+01  5.311486759E+02  1.250000000E+02  0.00000E+00  9.000E+00
       1     1     1     2   501     0 -1.233646135E+02  2.264530480E+01  2.468593998E+03  2.471778300E+03  3.051757812E-05  0.00000E+00  9.000E+00
#rwgt            2          17   1.9764270878947282E-003           4       82027           0
</event>
<event>
      5   9999  3.19816E-02  3.41096E+02 -1.00000E+00  1.03811E-01
      21    -1     0     0   502   501  0.000000000E+00  0.000000000E+00  1.329868956E+02  1.329868956E+02  0.000000000E+00  0.00000E+00  9.000E+00
       2    -1     0     0   501     0  0.000000000E+00  0.000000000E+00 -2.030997491E+03  2.030997491E+03  0.000000000E+00  0.00000E+00  9.000E+00
      25     1     1     2     0     0 -5.272570250E+01  8.773307433E+01 -6.061591183E+02  6.273204673E+02  1.250000000E+02  0.00000E+00  9.000E+00
      25     1     1     2     0     0 -2.876656172E+02 -6.581241863E+01 -1.673006319E+02  3.615207922E+02  1.250000000E+02  0.00000E+00  9.000E+00
       2     1     1     2   502     0  3.403913197E+02 -2.192065571E+01 -1.124550845E+03  1.175143127E+03  1.525878906E-05  0.00000E+00  9.000E+00
#rwgt            1           1   3.4400768297549504E-002           4       82046           0
</event>
<event>
      5   9999  3.19816E-02  1.57145E+01 -1.00000E+00  1.75501E-01
       2    -1     0     0   502     0  0.000000000E+00  0.000000000E+00  2.936002281E+02  2.936002281E+02  0.000000000E+00  0.00000E+00  9.000E+00
      21    -1     0     0   501   502  0.000000000E+00  0.000000000E+00 -4.536971280E+02  4.536971280E+02  0.000000000E+00  0.00000E+00  9.000E+00
      25     1     1     2     0     0  1.655652838E+02  1.597594412E+02 -3.121711949E+02  4.074442259E+02  1.250000000E+02  0.00000E+00  9.000E+00
      25     1     1     2     0     0 -1.498507938E+02 -1.597506535E+02  7.777748077E+01  2.639126147E+02  1.250000000E+02  0.00000E+00  9.000E+00
       2     1     1     2   501     0 -1.571448997E+01 -8.787691923E-03  7.429681436E+01  7.594051551E+01  1.348699152E-06  0.00000E+00  9.000E+00
#rwgt            1           1   2.6506812485027072E-002           4       82081           0
</event>
<event>
      5   9999  3.19816E-02  4.66468E+02 -1.00000E+00  9.97161E-02
       1    -1     0     0   502     0  0.000000000E+00  0.000000000E+00  8.616356690E+02  8.616356690E+02  0.000000000E+00  0.00000E+00  9.000E+00
      21    -1     0     0   501   502  0.000000000E+00  0.000000000E+00 -4.838572257E+02  4.838572257E+02  0.000000000E+00  0.00000E+00  9.000E+00
      25     1     1     2     0     0 -1.101913197E+02  3.026480203E+02  5.308050163E+02  6.333379165E+02  1.250000000E+02  0.00000E+00  9.000E+00
      25     1     1     2     0     0 -1.549822371E+02  8.111627002E+01  1.699217316E+01  2.156689061E+02  1.250000000E+02  0.00000E+00  9.000E+00
       1     1     1     2   501     0  2.651735568E+02 -3.837642903E+02 -1.700187462E+02  4.964860721E+02  1.160194880E-05  0.00000E+00  9.000E+00
#rwgt            2          17   1.9718103619139631E-004           4       82282           0
</event>
<event>
      5   9999  3.19816E-02  9.35626E+01 -1.00000E+00  1.25142E-01
      21    -1     0     0   511   501  0.000000000E+00  0.000000000E+00  1.575753481E+02  1.575753481E+02  0.000000000E+00  0.00000E+00  9.000E+00
      21    -1     0     0   501   502  0.000000000E+00  0.000000000E+00 -1.035383769E+03  1.035383769E+03  0.000000000E+00  0.00000E+00  9.000E+00
      25     1     1     2     0     0  2.075602865E+01 -2.451094108E+01 -9.145583318E+02  9.236198034E+02  1.250000000E+02  0.00000E+00  9.000E+00
      25     1     1     2     0     0 -1.138489350E+02  1.514779705E+01  4.440335082E+01  1.754642223E+02  1.250000000E+02  0.00000E+00  9.000E+00
      21     1     1     2   511   502  9.309290630E+01  9.363144031E+00 -7.653440019E+00  9.387509155E+01  6.583548198E-07  0.00000E+00  9.000E+00
#rwgt            1           1   2.8110900062155907E-002           4       82376           0
</event>
<event>
      5   9999  3.19816E-02  8.34843E+01 -1.00000E+00  1.27460E-01
      21    -1     0     0   502   501  0.000000000E+00  0.000000000E+00  5.574398635E+02  5.574398635E+02  0.000000000E+00  0.00000E+00  9.000E+00
      21    -1     0     0   501   512  0.000000000E+00  0.000000000E+00 -1.030127696E+03  1.030127696E+03  0.000000000E+00  0.00000E+00  9.000E+00
      25     1     1     2     0     0 -1.893216225E+02 -6.137089726E+02 -5.144352900E+02  8.323160742E+02  1.250000000E+02  0.00000E+00  9.000E+00
      25     1     1     2     0     0  2.578628403E+02  5.660463009E+02  1.142792808E+02  6.446599206E+02  1.250000000E+02  0.00000E+00  9.000E+00
      21     1     1     2   502   512 -6.854121780E+01  4.766267172E+01 -7.253182365E+01  1.105915650E+02  1.348699152E-06  0.00000E+00  9.000E+00
#rwgt            1           1   2.9188025032787675E-002           4       82459           0
</event>
<event>
      5   9999  3.19816E-02  1.02622E+02 -1.00000E+00  1.23324E-01
      21    -1     0     0   502   501  0.000000000E+00  0.000000000E+00  7.626658218E+02  7.626658218E+02  0.000000000E+00  0.00000E+00  9.000E+00
       1    -1     0     0   501     0  0.000000000E+00  0.000000000E+00 -1.367627145E+02  1.367627145E+02  0.000000000E+00  0.00000E+00  9.000E+00
      25     1     1     2     0     0  6.477706623E+01  1.762392905E+02  5.531306672E+02  5.973565860E+02  1.250000000E+02  0.00000E+00  9.000E+00
      25     1     1     2     0     0 -9.545958185E+01 -7.831100674E+01 -9.708586449E-01  1.757017021E+02  1.250000000E+02  0.00000E+00  9.000E+00
       1     1     1     2   502     0  3.068251563E+01 -9.792828377E+01  7.374329875E+01  1.263702482E+02  0.000000000E+00  0.00000E+00  9.000E+00
#rwgt            1           1   2.7634218780834992E-002           4       82585           0
</event>
<event>
      5   9999  3.19816E-02  2.41344E+02 -1.00000E+00  1.08756E-01
      21    -1     0     0   502   501  0.000000000E+00  0.000000000E+00  4.847418411E+02  4.847418411E+02  0.000000000E+00  0.00000E+00  9.000E+00
      -1    -1     0     0     0   502  0.000000000E+00  0.000000000E+00 -5.902027667E+02  5.902027667E+02  0.000000000E+00  0.00000E+00  9.000E+00
      25     1     1     2     0     0  2.928863082E+01  2.633537126E+02 -3.146483877E+02  4.299320989E+02  1.250000000E+02  0.00000E+00  9.000E+00
      25     1     1     2     0     0  2.118739301E+02 -2.727027322E+02  1.037044212E+02  3.816240944E+02  1.250000000E+02  0.00000E+00  9.000E+00
      -1     1     1     2     0   501 -2.411625610E+02  9.349019644E+00  1.054830410E+02  2.633884145E+02  3.303624740E-06  0.00000E+00  9.000E+00
#rwgt            1           1   2.7746726674035185E-002           4       82705           0
</event>
<event>
      5   9999  3.19816E-02  1.22456E+02 -1.00000E+00  1.19996E-01
      21    -1     0     0   511   501  0.000000000E+00  0.000000000E+00  1.595538706E+03  1.595538706E+03  0.000000000E+00  0.00000E+00  9.000E+00
      21    -1     0     0   501   502  0.000000000E+00  0.000000000E+00 -2.905045540E+02  2.905045540E+02  0.000000000E+00  0.00000E+00  9.000E+00
      25     1     1     2     0     0  1.979647490E+02 -3.600675530E+01 -1.183523935E+02  2.647995795E+02  1.250000000E+02  0.00000E+00  9.000E+00
      25     1     1     2     0     0 -7.694813682E+01  5.472954396E+01 -3.268644804E+01  1.600304428E+02  1.250000000E+02  0.00000E+00  9.000E+00
      21     1     1     2   511   502 -1.210166122E+02 -1.872278866E+01  1.456072994E+03  1.461213238E+03  2.157918644E-05  0.00000E+00  9.000E+00
#rwgt            2          11   7.8622528780789621E-003           4       82786           0
</event>
<event>
      5   9999  3.19816E-02  1.06847E+02 -1.00000E+00  1.22548E-01
      21    -1     0     0   502   501  0.000000000E+00  0.000000000E+00  5.011469618E+02  5.011469618E+02  0.000000000E+00  0.00000E+00  9.000E+00
       2    -1     0     0   501     0  0.000000000E+00  0.000000000E+00 -1.363447618E+03  1.363447618E+03  0.000000000E+00  0.00000E+00  9.000E+00
      25     1     1     2     0     0 -5.364881649E+02  3.810920028E+02  6.243637695E+01  6.727361792E+02  1.250000000E+02  0.00000E+00  9.000E+00
      25     1     1     2     0     0  5.242511594E+02 -2.749481284E+02 -6.086663039E+02  8.582164185E+02  1.250000000E+02  0.00000E+00  9.000E+00
       2     1     1     2   502     0  1.223700555E+01 -1.061438744E+02 -3.160707289E+02  3.336419819E+02  5.394796609E-06  0.00000E+00  9.000E+00
#rwgt            1           1   3.4326509410836634E-002           4       82821           0
</event>
<event>
      5   9999  3.19816E-02  7.05271E+01 -1.00000E+00  1.31056E-01
      21    -1     0     0   502   501  0.000000000E+00  0.000000000E+00  2.254288310E+02  2.254288310E+02  0.000000000E+00  0.00000E+00  9.000E+00
      21    -1     0     0   511   502  0.000000000E+00  0.000000000E+00 -4.075741469E+02  4.075741469E+02  0.000000000E+00  0.00000E+00  9.000E+00
      25     1     1     2     0     0  4.103883866E+01  1.596219890E+02  8.345767845E+01  2.230550375E+02  1.250000000E+02  0.00000E+00  9.000E+00
      25     1     1     2     0     0 -1.002801031E+02 -1.213526034E+02 -8.910413540E+01  2.198797407E+02  1.250000000E+02  0.00000E+00  9.000E+00
      21     1     1     2   511   501  5.924126445E+01 -3.826938564E+01 -1.764988590E+02  1.900681996E+02  0.000000000E+00  0.00000E+00  9.000E+00
#rwgt            1           1   2.6203972970435335E-002           4       82866           0
</event>
<event>
      5   9999  3.19816E-02  3.26987E+02 -1.00000E+00  1.04391E-01
      21    -1     0     0   502   501  0.000000000E+00  0.000000000E+00  6.307494677E+02  6.307494677E+02  0.000000000E+00  0.00000E+00  9.000E+00
      21    -1     0     0   512   502  0.000000000E+00  0.000000000E+00 -7.321731727E+02  7.321731727E+02  0.000000000E+00  0.00000E+00  9.000E+00
      25     1     1     2     0     0  6.218861759E+02  1.930663857E+02 -2.969524793E+01  6.637197096E+02  1.250000000E+02  0.00000E+00  9.000E+00
      25     1     1     2     0     0 -3.168535436E+02 -7.527193495E+01  4.559777421E+01  3.518041917E+02  1.250000000E+02  0.00000E+00  9.000E+00
      21     1     1     2   512   501 -3.050326323E+02 -1.177944507E+02 -1.173262313E+02  3.473987391E+02  4.046097457E-06  0.00000E+00  9.000E+00
#rwgt            1           1   2.6472793601792357E-002           4       82934           0
</event>
<event>
      5   9999  3.19816E-02  2.71448E+01 -1.00000E+00  1.56119E-01
      21    -1     0     0   502   501  0.000000000E+00  0.000000000E+00  6.907782442E+02  6.907782442E+02  0.000000000E+00  0.00000E+00  9.000E+00
      21    -1     0     0   511   502  0.000000000E+00  0.000000000E+00 -3.416600057E+02  3.416600057E+02  0.000000000E+00  0.00000E+00  9.000E+00
      25     1     1     2     0     0 -6.085358844E+01 -1.115787778E+02  6.485924592E+02  6.726441563E+02  1.250000000E+02  0.00000E+00  9.000E+00
      25     1     1     2     0     0  7.500566992E+01  8.841503900E+01 -2.397507595E+02  2.941912580E+02  1.250000000E+02  0.00000E+00  9.000E+00
      21     1     1     2   511   501 -1.415208148E+01  2.316373879E+01 -5.972346122E+01  6.560283549E+01  6.743495762E-07  0.00000E+00  9.000E+00
#rwgt            1           1   2.6568425010785515E-002           4       83010           0
</event>
<event>
      5   9999  3.19816E-02  8.40771E+01 -1.00000E+00  1.27313E-01
      21    -1     0     0   502   501  0.000000000E+00  0.000000000E+00  2.254626286E+03  2.254626286E+03  0.000000000E+00  0.00000E+00  9.000E+00
       2    -1     0     0   501     0  0.000000000E+00  0.000000000E+00 -3.711775588E+02  3.711775588E+02  0.000000000E+00  0.00000E+00  9.000E+00
      25     1     1     2     0     0  2.193605370E+02 -1.828750571E+02  9.474584657E+02  9.974291333E+02  1.250000000E+02  0.00000E+00  9.000E+00
      25     1     1     2     0     0 -1.573158635E+02  2.396149770E+02  1.257631297E+03  1.295926347E+03  1.250000000E+02  0.00000E+00  9.000E+00
       2     1     1     2   502     0 -6.204467349E+01 -5.673991985E+01 -3.216410349E+02  3.324483649E+02  1.144409180E-05  0.00000E+00  9.000E+00
#rwgt            1           1   7.9886038232644369E-002           4       83210           0
</event>
<event>
      5   9999  3.19816E-02  1.82574E+01 -1.00000E+00  1.69703E-01
      21    -1     0     0   511   501  0.000000000E+00  0.000000000E+00  4.911910834E+02  4.911910834E+02  0.000000000E+00  0.00000E+00  9.000E+00
      21    -1     0     0   501   502  0.000000000E+00  0.000000000E+00 -1.249814657E+02  1.249814657E+02  0.000000000E+00  0.00000E+00  9.000E+00
      25     1     1     2     0     0  1.203829312E+02 -1.075565150E+01  3.443533681E+00  1.739097240E+02  1.250000000E+02  0.00000E+00  9.000E+00
      25     1     1     2     0     0 -1.234675527E+02 -7.239267613E+00  1.571391678E+02  2.358269739E+02  1.250000000E+02  0.00000E+00  9.000E+00
      21     1     1     2   511   502  3.084621448E+00  1.799491912E+01  2.056269162E+02  2.064358512E+02  3.814697266E-06  0.00000E+00  9.000E+00
#rwgt            1           1   2.5327643481230636E-002           4       83292           0
</event>
<event>
      5   9999  3.19816E-02  2.39733E+01 -1.00000E+00  1.60127E-01
       2    -1     0     0   502     0  0.000000000E+00  0.000000000E+00  1.175394432E+03  1.175394432E+03  0.000000000E+00  0.00000E+00  9.000E+00
      21    -1     0     0   501   502  0.000000000E+00  0.000000000E+00 -1.431420408E+02  1.431420408E+02  0.000000000E+00  0.00000E+00  9.000E+00
      25     1     1     2     0     0  8.323054571E+01  2.110237911E+02  3.003749059E+01  2.607405127E+02  1.250000000E+02  0.00000E+00  9.000E+00
      25     1     1     2     0     0 -9.382171450E+01 -1.895168628E+02  5.212512622E+02  5.762352243E+02  1.250000000E+02  0.00000E+00  9.000E+00
       2     1     1     2   501     0  1.059116879E+01 -2.150692832E+01  4.809636382E+02  4.815607356E+02  5.394796609E-06  0.00000E+00  9.000E+00
#rwgt            1           1   2.9036384011727312E-002           4       83420           0
</event>
<event>
      5   9999  3.19816E-02  1.82931E+01 -1.00000E+00  1.69630E-01
      21    -1     0     0   511   501  0.000000000E+00  0.000000000E+00  2.697214875E+02  2.697214875E+02  0.000000000E+00  0.00000E+00  9.000E+00
      21    -1     0     0   501   502  0.000000000E+00  0.000000000E+00 -4.412075892E+02  4.412075892E+02  0.000000000E+00  0.00000E+00  9.000E+00
      25     1     1     2     0     0  1.043983913E+02 -6.053757333E+01  1.820930737E+02  2.516877219E+02  1.250000000E+02  0.00000E+00  9.000E+00
      25     1     1     2     0     0 -1.185894946E+02  4.899417257E+01 -3.840094075E+02  4.237359110E+02  1.250000000E+02  0.00000E+00  9.000E+00
      21     1     1     2   511   502  1.419110332E+01  1.154340076E+01  3.043023214E+01  3.550544384E+01  8.920806376E-07  0.00000E+00  9.000E+00
#rwgt            1           1   2.7355927535483427E-002           4       83582           0
</event>
<event>
      5   9999  3.19816E-02  1.99969E+01 -1.00000E+00  1.66375E-01
      21    -1     0     0   502   501  0.000000000E+00  0.000000000E+00  2.418328827E+03  2.418328827E+03  0.000000000E+00  0.00000E+00  9.000E+00
      21    -1     0     0   501   512  0.000000000E+00  0.000000000E+00 -5.118759373E+01  5.118759373E+01  0.000000000E+00  0.00000E+00  9.000E+00
      25     1     1     2     0     0  1.532179713E+02  2.617822406E+02  1.582696073E+03  1.616340789E+03  1.250000000E+02  0.00000E+00  9.000E+00
      25     1     1     2     0     0 -1.375465758E+02 -2.493612179E+02  7.624939324E+02  8.234816783E+02  1.250000000E+02  0.00000E+00  9.000E+00
      21     1     1     2   502   512 -1.567139550E+01 -1.242102269E+01  2.195122799E+01  2.969395312E+01  5.840038640E-07  0.00000E+00  9.000E+00
#rwgt            1           1   7.3688703822516979E-002           4       83778           0
</event>
<event>
      5   9999  3.19816E-02  8.00405E+01 -1.00000E+00  1.28339E-01
       1    -1     0     0   502     0  0.000000000E+00  0.000000000E+00  2.755213320E+03  2.755213320E+03  0.000000000E+00  0.00000E+00  9.000E+00
      21    -1     0     0   501   502  0.000000000E+00  0.000000000E+00 -2.445748044E+02  2.445748044E+02  0.000000000E+00  0.00000E+00  9.000E+00
      25     1     1     2     0     0  8.425426300E+01  1.860574981E+02  5.109672061E+02  5.642948335E+02  1.250000000E+02  0.00000E+00  9.000E+00
      25     1     1     2     0     0 -1.531384589E+02 -2.268183179E+02 -1.129375867E+02  3.213686908E+02  1.250000000E+02  0.00000E+00  9.000E+00
       1     1     1     2   501     0  6.888419587E+01  4.076081985E+01  2.112608896E+03  2.114124600E+03  4.315837288E-05  0.00000E+00  9.000E+00
#rwgt            1           1   2.9477169529471901E-002           4       83902           0
</event>
<event>
      5   9999  3.19816E-02  5.90173E+01 -1.00000E+00  1.35088E-01
      21    -1     0     0   511   501  0.000000000E+00  0.000000000E+00  2.517879762E+03  2.517879762E+03  0.000000000E+00  0.00000E+00  9.000E+00
      21    -1     0     0   501   502  0.000000000E+00  0.000000000E+00 -5.685644468E+02  5.685644468E+02  0.000000000E+00  0.00000E+00  9.000E+00
      25     1     1     2     0     0 -4.279864509E+02  2.896268597E+02  1.258458556E+03  1.366162164E+03  1.250000000E+02  0.00000E+00  9.000E+00
      25     1     1     2     0     0  4.865038887E+02 -2.819622859E+02 -3.524525832E+02  6.753048110E+02  1.250000000E+02  0.00000E+00  9.000E+00
      21     1     1     2   511   502 -5.851743785E+01 -7.664573758E+00  1.043309342E+03  1.044977234E+03  1.525878906E-05  0.00000E+00  9.000E+00
#rwgt            1           1   2.4878393701677479E-002           4       83966           0
</event>
<event>
      5   9999  3.19816E-02  2.25049E+01 -1.00000E+00  1.62249E-01
      21    -1     0     0   512   501  0.000000000E+00  0.000000000E+00  2.354511873E+02  2.354511873E+02  0.000000000E+00  0.00000E+00  9.000E+00
      21    -1     0     0   501   502  0.000000000E+00  0.000000000E+00 -7.788642464E+02  7.788642464E+02  0.000000000E+00  0.00000E+00  9.000E+00
      25     1     1     2     0     0  2.449579704E+02 -1.393194408E+01  6.549701453E+01  2.830430449E+02  1.250000000E+02  0.00000E+00  9.000E+00
      25     1     1     2     0     0 -2.674196940E+02  1.532518322E+01 -6.328112856E+02  6.984434674E+02  1.250000000E+02  0.00000E+00  9.000E+00
      21     1     1     2   512   502  2.246172358E+01 -1.393239139E+00  2.390121208E+01  3.282892140E+01  4.768371582E-07  0.00000E+00  9.000E+00
#rwgt            1           1   2.6368114115939648E-002           4       84120           0
</event>
<event>
      5   9999  3.19816E-02  7.51037E+01 -1.00000E+00  1.29691E-01
      21    -1     0     0   502   501  0.000000000E+00  0.000000000E+00  3.536425929E+02  3.536425929E+02  0.000000000E+00  0.00000E+00  9.000E+00
      21    -1     0     0   511   502  0.000000000E+00  0.000000000E+00 -4.248989101E+02  4.248989101E+02  0.000000000E+00  0.00000E+00  9.000E+00
      25     1     1     2     0     0  8.073916971E+01 -2.478773165E+02  2.132643713E+02  3.592612832E+02  1.250000000E+02  0.00000E+00  9.000E+00
      25     1     1     2     0     0 -8.872379206E+01  1.731992472E+02 -2.322830005E+02  3.277960995E+02  1.250000000E+02  0.00000E+00  9.000E+00
      21     1     1     2   511   501  7.984622349E+00  7.467806927E+01 -5.223768785E+01  9.148412024E+01  1.907348633E-06  0.00000E+00  9.000E+00
#rwgt            1           1   2.7675035303188333E-002           4       84280           0
</event>
<event>
      5   9999  3.19816E-02  1.03907E+02 -1.00000E+00  1.23084E-01
      21    -1     0     0   502   512  0.000000000E+00  0.000000000E+00  2.131584737E+02  2.131584737E+02  0.000000000E+00  0.00000E+00  9.000E+00
      21    -1     0     0   501   502  0.000000000E+00  0.000000000E+00 -1.200903090E+03  1.200903090E+03  0.000000000E+00  0.00000E+00  9.000E+00
      25     1     1     2     0     0  5.826658921E+01 -3.244111408E+02 -3.497759377E+02  4.965941908E+02  1.250000000E+02  0.00000E+00  9.000E+00
      25     1     1     2     0     0 -1.615606159E+02  3.356843346E+02 -6.954004467E+02  7.987443811E+02  1.250000000E+02  0.00000E+00  9.000E+00
      21     1     1     2   501   512  1.032940267E+02 -1.127319373E+01  5.743176791E+01  1.187229920E+02  1.507891493E-06  0.00000E+00  9.000E+00
#rwgt            1           1   2.7996271230389780E-002           4       84372           0
</event>
<event>
      5   9999  3.19816E-02  3.85124E+01 -1.00000E+00  1.45868E-01
      -2    -1     0     0     0   501  0.000000000E+00  0.000000000E+00  1.311850328E+03  1.311850328E+03  0.000000000E+00  0.00000E+00  9.000E+00
      21    -1     0     0   501   502  0.000000000E+00  0.000000000E+00 -5.086480107E+02  5.086480107E+02  0.000000000E+00  0.00000E+00  9.000E+00
      25     1     1     2     0     0  4.307281521E+00 -8.905272647E+01 -5.233693802E+00  1.536272512E+02  1.250000000E+02  0.00000E+00  9.000E+00
      25     1     1     2     0     0  1.752281114E+01  1.207805270E+02 -4.111244458E+02  4.467026915E+02  1.250000000E+02  0.00000E+00  9.000E+00
      -2     1     1     2     0   502 -2.183009267E+01 -3.172780051E+01  1.219560457E+03  1.220168396E+03  1.525878906E-05  0.00000E+00  9.000E+00
#rwgt            1           1   3.5011133453166261E-002           4       84427           0
</event>
<event>
      5   9999  3.19816E-02  3.07132E+01 -1.00000E+00  1.52334E-01
      21    -1     0     0   511   501  0.000000000E+00  0.000000000E+00  1.605146982E+02  1.605146982E+02  0.000000000E+00  0.00000E+00  9.000E+00
      21    -1     0     0   501   502  0.000000000E+00  0.000000000E+00 -3.898591689E+02  3.898591689E+02  0.000000000E+00  0.00000E+00  9.000E+00
      25     1     1     2     0     0  1.014541442E+02  1.492685534E+02 -1.203762591E+02  2.503786895E+02  1.250000000E+02  0.00000E+00  9.000E+00
      25     1     1     2     0     0 -1.126027952E+02 -1.778868956E+02 -1.117826027E+02  2.691532786E+02  1.250000000E+02  0.00000E+00  9.000E+00
      21     1     1     2   511   502  1.114865106E+01  2.861834222E+01  2.814391061E+00  3.084189892E+01  1.659323085E-07  0.00000E+00  9.000E+00
#rwgt            1           1   2.5599438276077049E-002           4       84579           0
</event>
<event>
      5   9999  3.19816E-02  3.43282E+01 -1.00000E+00  1.49083E-01
      21    -1     0     0   502   512  0.000000000E+00  0.000000000E+00  2.386749230E+02  2.386749230E+02  0.000000000E+00  0.00000E+00  9.000E+00
      21    -1     0     0   501   502  0.000000000E+00  0.000000000E+00 -5.637582072E+02  5.637582072E+02  0.000000000E+00  0.00000E+00  9.000E+00
      25     1     1     2     0     0  3.417948809E+02 -1.509079214E+01 -1.522175980E+02  3.947742010E+02  1.250000000E+02  0.00000E+00  9.000E+00
      25     1     1     2     0     0 -3.094757710E+02  2.666242598E+01 -1.583956116E+02  3.704055987E+02  1.250000000E+02  0.00000E+00  9.000E+00
      21     1     1     2   501   512 -3.231910991E+01 -1.157163383E+01 -1.447007465E+01  3.725333053E+01  5.840038640E-07  0.00000E+00  9.000E+00
#rwgt            1           1   2.2684412850953770E-002           4       84720           0
</event>
<event>
      5   9999  3.19816E-02  3.31898E+02 -1.00000E+00  1.04186E-01
      21    -1     0     0   511   501  0.000000000E+00  0.000000000E+00  2.346181318E+03  2.346181318E+03  0.000000000E+00  0.00000E+00  9.000E+00
      21    -1     0     0   501   502  0.000000000E+00  0.000000000E+00 -7.372414491E+02  7.372414491E+02  0.000000000E+00  0.00000E+00  9.000E+00
      25     1     1     2     0     0 -1.082895400E+03 -2.133559280E+02  1.219398294E+03  1.649466702E+03  1.250000000E+02  0.00000E+00  9.000E+00
      25     1     1     2     0     0  9.636276985E+02 -9.637169806E+01  7.937691741E+01  9.796895123E+02  1.250000000E+02  0.00000E+00  9.000E+00
      21     1     1     2   511   502  1.192677014E+02  3.097276261E+02  3.101646571E+02  4.542665533E+02  5.394796609E-06  0.00000E+00  9.000E+00
#rwgt            2          11   6.0464795287117189E-003           4       84977           0
</event>
<event>
      5   9999  3.19816E-02  3.86015E+01 -1.00000E+00  1.45805E-01
      21    -1     0     0   502   501  0.000000000E+00  0.000000000E+00  1.468091805E+03  1.468091805E+03  0.000000000E+00  0.00000E+00  9.000E+00
      21    -1     0     0   512   502  0.000000000E+00  0.000000000E+00 -1.043401084E+02  1.043401084E+02  0.000000000E+00  0.00000E+00  9.000E+00
      25     1     1     2     0     0  8.990370466E+01 -2.175129871E+02  1.829894720E+02  3.232719019E+02  1.250000000E+02  0.00000E+00  9.000E+00
      25     1     1     2     0     0 -6.718586910E+01  2.487215264E+02  1.175886071E+03  1.210251788E+03  1.250000000E+02  0.00000E+00  9.000E+00
      21     1     1     2   512   501 -2.271783557E+01 -3.120853925E+01  4.876153691E+00  3.890822342E+01  8.800520337E-07  0.00000E+00  9.000E+00
#rwgt            1           1   2.7006490142786971E-002           4       84997           0
</event>
<event>
      5   9999  3.19816E-02  6.91748E+01 -1.00000E+00  1.31482E-01
       1    -1     0     0   502     0  0.000000000E+00  0.000000000E+00  5.335187095E+02  5.335187095E+02  0.000000000E+00  0.00000E+00  9.000E+00
      21    -1     0     0   501   502  0.000000000E+00  0.000000000E+00 -1.078870855E+03  1.078870855E+03  0.000000000E+00  0.00000E+00  9.000E+00
      25     1     1     2     0     0 -3.959263827E+01  4.660142451E+02 -1.270857331E+01  4.842761211E+02  1.250000000E+02  0.00000E+00  9.000E+00
      25     1     1     2     0     0  7.513184937E+01 -4.066668683E+02 -7.688876357E+02  8.819500739E+02  1.250000000E+02  0.00000E+00  9.000E+00
       1     1     1     2   501     0 -3.553921110E+01 -5.934737680E+01  2.362440638E+02  2.461633692E+02  3.814697266E-06  0.00000E+00  9.000E+00
#rwgt            1           1   3.0319855208339516E-002           4       85102           0
</event>
<event>
      5   9999  3.19816E-02  6.60670E+01 -1.00000E+00  1.32505E-01
      21    -1     0     0   502   511  0.000000000E+00  0.000000000E+00  4.612117191E+02  4.612117191E+02  0.000000000E+00  0.00000E+00  9.000E+00
      21    -1     0     0   501   502  0.000000000E+00  0.000000000E+00 -3.125767898E+02  3.125767898E+02  0.000000000E+00  0.00000E+00  9.000E+00
      25     1     1     2     0     0  2.079193902E+02 -1.749201057E+02  7.449954554E+01  3.082250776E+02  1.250000000E+02  0.00000E+00  9.000E+00
      25     1     1     2     0     0 -2.483849895E+02  2.271444770E+02 -9.264063622E+00  3.591664507E+02  1.250000000E+02  0.00000E+00  9.000E+00
      21     1     1     2   501   511  4.046559927E+01 -5.222437126E+01  8.339944729E+01  1.063969806E+02  1.348699152E-06  0.00000E+00  9.000E+00
#rwgt            1           1   2.6694064190135414E-002           4       85165           0
</event>
<event>
      5   9999  3.19816E-02  2.80065E+01 -1.00000E+00  1.55143E-01
      21    -1     0     0   512   501  0.000000000E+00  0.000000000E+00  7.817121497E+01  7.817121497E+01  0.000000000E+00  0.00000E+00  9.000E+00
      21    -1     0     0   501   502  0.000000000E+00  0.000000000E+00 -2.024844102E+03  2.024844102E+03  0.000000000E+00  0.00000E+00  9.000E+00
      25     1     1     2     0     0  6.444727796E+01  3.287738662E+02 -7.366768872E+02  8.188794434E+02  1.250000000E+02  0.00000E+00  9.000E+00
      25     1     1     2     0     0 -5.371277426E+01 -3.546415537E+02 -1.191479879E+03  1.250561872E+03  1.250000000E+02  0.00000E+00  9.000E+00
      21     1     1     2   512   502 -1.073450371E+01  2.586768758E+01 -1.851612026E+01  3.357400095E+01  5.840038640E-07  0.00000E+00  9.000E+00
#rwgt            1           1   3.1804718316163744E-002           4       85236           0
</event>
<event>
      5   9999  3.19816E-02  9.30865E+01 -1.00000E+00  1.25244E-01
      21    -1     0     0   502   501  0.000000000E+00  0.000000000E+00  3.131304703E+02  3.131304703E+02  0.000000000E+00  0.00000E+00  9.000E+00
      21    -1     0     0   511   502  0.000000000E+00  0.000000000E+00 -9.208944103E+02  9.208944103E+02  0.000000000E+00  0.00000E+00  9.000E+00
      25     1     1     2     0     0 -2.365594802E+02 -3.390141032E+02 -2.805827437E+02  5.150171123E+02  1.250000000E+02  0.00000E+00  9.000E+00
      25     1     1     2     0     0  1.991966809E+02  4.242732556E+02 -1.319427577E+02  5.027136406E+02  1.250000000E+02  0.00000E+00  9.000E+00
      21     1     1     2   511   501  3.736279930E+01 -8.525915239E+01 -1.952384385E+02  2.162941278E+02  2.697398305E-06  0.00000E+00  9.000E+00
#rwgt            1           1   2.3981958927745527E-002           4       85390           0
</event>
<event>
      5   9999  3.19816E-02  1.21176E+02 -1.00000E+00  1.20189E-01
      21    -1     0     0   512   501  0.000000000E+00  0.000000000E+00  4.319355783E+02  4.319355783E+02  0.000000000E+00  0.00000E+00  9.000E+00
      21    -1     0     0   501   502  0.000000000E+00  0.000000000E+00 -2.949124679E+02  2.949124679E+02  0.000000000E+00  0.00000E+00  9.000E+00
      25     1     1     2     0     0 -1.672983579E+02  9.430470000E+01 -3.410783657E+01  2.316688617E+02  1.250000000E+02  0.00000E+00  9.000E+00
      25     1     1     2     0     0  2.155942011E+02 -2.054405355E+02  5.554166157E+01  3.277141275E+02  1.250000000E+02  0.00000E+00  9.000E+00
      21     1     1     2   512   502 -4.829584318E+01  1.111358355E+02  1.155892854E+02  1.674650570E+02  1.348699152E-06  0.00000E+00  9.000E+00
#rwgt            1           1   2.8683323745812304E-002           4       85537           0
</event>
<event>
      5   9999  3.19816E-02  1.79600E+02 -1.00000E+00  1.13376E-01
       2    -1     0     0   502     0  0.000000000E+00  0.000000000E+00  6.847764827E+02  6.847764827E+02  0.000000000E+00  0.00000E+00  9.000E+00
      21    -1     0     0   501   502  0.000000000E+00  0.000000000E+00 -1.977166870E+02  1.977166870E+02  0.000000000E+00  0.00000E+00  9.000E+00
      25     1     1     2     0     0 -1.421041275E+02  1.463594387E+02  9.610233356E+01  2.578280955E+02  1.250000000E+02  0.00000E+00  9.000E+00
      25     1     1     2     0     0 -3.151192734E+01 -1.923349123E+02  4.645032670E+01  2.361532403E+02  1.250000000E+02  0.00000E+00  9.000E+00
       2     1     1     2   501     0  1.736160548E+02  4.597547361E+01  3.445071355E+02  3.885118339E+02  6.607249480E-06  0.00000E+00  9.000E+00
#rwgt            1           1   2.6466352294281993E-002           4       85616           0
</event>
<event>
      5   9999  3.19816E-02  1.83763E+01 -1.00000E+00  1.69461E-01
      21    -1     0     0   502   501  0.000000000E+00  0.000000000E+00  6.773710505E+02  6.773710505E+02  0.000000000E+00  0.00000E+00  9.000E+00
       2    -1     0     0   501     0  0.000000000E+00  0.000000000E+00 -9.141936824E+01  9.141936824E+01  0.000000000E+00  0.00000E+00  9.000E+00
      25     1     1     2     0     0 -1.289406713E+02  7.202793397E+01  5.096669465E+02  5.451597163E+02  1.250000000E+02  0.00000E+00  9.000E+00
      25     1     1     2     0     0  1.208546094E+02 -5.552630212E+01  8.717395925E+01  2.022703785E+02  1.250000000E+02  0.00000E+00  9.000E+00
       2     1     1     2   502     0  8.086061908E+00 -1.650163185E+01 -1.088922347E+01  2.136032393E+01  7.633118912E-07  0.00000E+00  9.000E+00
#rwgt            1           1   2.8582439686702269E-002           4       85704           0
</event>
<event>
      5   9999  3.19816E-02  7.15997E+01 -1.00000E+00  1.30726E-01
      21    -1     0     0   502   501  0.000000000E+00  0.000000000E+00  5.679828210E+02  5.679828210E+02  0.000000000E+00  0.00000E+00  9.000E+00
      21    -1     0     0   501   511  0.000000000E+00  0.000000000E+00 -1.345850159E+03  1.345850159E+03  0.000000000E+00  0.00000E+00  9.000E+00
      25     1     1     2     0     0  2.171760492E+02 -6.064561741E+02 -9.228089890E+02  1.132323257E+03  1.250000000E+02  0.00000E+00  9.000E+00
      25     1     1     2     0     0 -1.569900724E+02  5.676725135E+02  2.520064456E+02  6.527099004E+02  1.250000000E+02  0.00000E+00  9.000E+00
      21     1     1     2   502   511 -6.018597678E+01  3.878366058E+01 -1.070647948E+02  1.287998230E+02  1.348699152E-06  0.00000E+00  9.000E+00
#rwgt            1           1   3.2692096392139915E-002           4       85865           0
</event>
<event>
      5   9999  3.19816E-02  2.19422E+02 -1.00000E+00  1.10202E-01
      21    -1     0     0   502   501  0.000000000E+00  0.000000000E+00  3.013947403E+02  3.013947403E+02  0.000000000E+00  0.00000E+00  9.000E+00
      21    -1     0     0   512   502  0.000000000E+00  0.000000000E+00 -2.268864625E+03  2.268864625E+03  0.000000000E+00  0.00000E+00  9.000E+00
      25     1     1     2     0     0  5.536296625E+02  2.904167104E+02 -8.525629268E+02  1.064582647E+03  1.250000000E+02  0.00000E+00  9.000E+00
      25     1     1     2     0     0 -7.515319770E+02 -1.956507348E+02 -8.005244696E+02  1.122294056E+03  1.250000000E+02  0.00000E+00  9.000E+00
      21     1     1     2   512   501  1.979023145E+02 -9.476597563E+01 -3.143824882E+02  3.833826615E+02  7.629394531E-06  0.00000E+00  9.000E+00
#rwgt            1           1   2.5977061172296850E-002           4       85935           0
</event>
<event>
      5   9999  3.19816E-02  2.21387E+01 -1.00000E+00  1.62809E-01
      21    -1     0     0   511   501  0.000000000E+00  0.000000000E+00  8.873196171E+02  8.873196171E+02  0.000000000E+00  0.00000E+00  9.000E+00
      21    -1     0     0   501   502  0.000000000E+00  0.000000000E+00 -2.392178577E+02  2.392178577E+02  0.000000000E+00  0.00000E+00  9.000E+00
      25     1     1     2     0     0 -2.031064641E+02  2.980371280E+02  1.361564668E+02  4.052677496E+02  1.250000000E+02  0.00000E+00  9.000E+00
      25     1     1     2     0     0  2.252451328E+02 -2.980221533E+02  2.682883212E+02  4.766090609E+02  1.250000000E+02  0.00000E+00  9.000E+00
      21     1     1     2   511   502 -2.213866875E+01 -1.497473467E-02  2.436569714E+02  2.446606642E+02  3.814697266E-06  0.00000E+00  9.000E+00
#rwgt            1           1   3.0479497965999157E-002           4       85997           0
</event>
<event>
      5   9999  3.19816E-02  9.16450E+01 -1.00000E+00  1.25556E-01
      21    -1     0     0   502   501  0.000000000E+00  0.000000000E+00  1.502948767E+02  1.502948767E+02  0.000000000E+00  0.00000E+00  9.000E+00
      21    -1     0     0   501   512  0.000000000E+00  0.000000000E+00 -7.156480235E+02  7.156480235E+02  0.000000000E+00  0.00000E+00  9.000E+00
      25     1     1     2     0     0 -2.158019916E+02 -1.379988063E+02 -9.759184363E+01  3.012695439E+02  1.250000000E+02  0.00000E+00  9.000E+00
      25     1     1     2     0     0  1.257495943E+02  1.209878004E+02 -2.570100949E+02  3.348584734E+02  1.250000000E+02  0.00000E+00  9.000E+00
      21     1     1     2   502   512  9.005239732E+01  1.701100594E+01 -2.107512084E+02  2.298148829E+02  0.000000000E+00  0.00000E+00  9.000E+00
#rwgt            1           1   2.7727618458344910E-002           4       86182           0
</event>
<event>
      5   9999  3.19816E-02  5.22125E+01 -1.00000E+00  1.38011E-01
      21    -1     0     0   502   501  0.000000000E+00  0.000000000E+00  3.176135284E+02  3.176135284E+02  0.000000000E+00  0.00000E+00  9.000E+00
      21    -1     0     0   511   502  0.000000000E+00  0.000000000E+00 -3.283891193E+02  3.283891193E+02  0.000000000E+00  0.00000E+00  9.000E+00
      25     1     1     2     0     0  1.051656547E+02  5.213881033E+01  1.800654843E+02  2.486500535E+02  1.250000000E+02  0.00000E+00  9.000E+00
      25     1     1     2     0     0 -1.550071320E+02 -3.658349332E+01 -3.098567250E+00  2.024849724E+02  1.250000000E+02  0.00000E+00  9.000E+00
      21     1     1     2   511   501  4.984147724E+01 -1.555531701E+01 -1.877425079E+02  1.948676218E+02  2.697398305E-06  0.00000E+00  9.000E+00
#rwgt            1           1   2.7351027068629383E-002           4       86231           0
</event>
<event>
      5   9999  3.19816E-02  5.14122E+02 -1.00000E+00  9.85096E-02
       2    -1     0     0   502     0  0.000000000E+00  0.000000000E+00  5.168368456E+03  5.168368456E+03  0.000000000E+00  0.00000E+00  9.000E+00
      21    -1     0     0   501   502  0.000000000E+00  0.000000000E+00 -2.128679693E+02  2.128679693E+02  0.000000000E+00  0.00000E+00  9.000E+00
      25     1     1     2     0     0  6.317270374E+02  2.097542210E+02  7.445406822E+02  1.006499732E+03  1.250000000E+02  0.00000E+00  9.000E+00
      25     1     1     2     0     0 -2.301293945E+02 -5.307532319E+02  1.446852959E+03  1.563223278E+03  1.250000000E+02  0.00000E+00  9.000E+00
       2     1     1     2   501     0 -4.015976429E+02  3.209990110E+02  2.764106845E+03  2.811513415E+03  4.315837288E-05  0.00000E+00  9.000E+00
#rwgt            1           1   2.3071443728658349E-002           4       86326           0
</event>
<event>
      5   9999  3.19816E-02  2.10017E+02 -1.00000E+00  1.10881E-01
      21    -1     0     0   502   501  0.000000000E+00  0.000000000E+00  5.861916023E+02  5.861916023E+02  0.000000000E+00  0.00000E+00  9.000E+00
      21    -1     0     0   511   502  0.000000000E+00  0.000000000E+00 -5.991210360E+02  5.991210360E+02  0.000000000E+00  0.00000E+00  9.000E+00
      25     1     1     2     0     0  1.211262263E+02 -1.195431851E+02  4.175004920E+02  4.678608731E+02  1.250000000E+02  0.00000E+00  9.000E+00
      25     1     1     2     0     0 -3.292954815E+02  9.174804442E+01 -2.729531973E+02  4.549523774E+02  1.250000000E+02  0.00000E+00  9.000E+00
      21     1     1     2   511   501  2.081692551E+02  2.779514065E+01 -1.574767283E+02  2.624993878E+02  6.031565972E-06  0.00000E+00  9.000E+00
#rwgt            1           1   2.8851891163296811E-002           4       86381           0
</event>
<event>
      5   9999  3.19816E-02  2.03756E+02 -1.00000E+00  1.11355E-01
      21    -1     0     0   502   512  0.000000000E+00  0.000000000E+00  6.200515863E+01  6.200515863E+01  0.000000000E+00  0.00000E+00  9.000E+00
      21    -1     0     0   501   502  0.000000000E+00  0.000000000E+00 -2.117726192E+03  2.117726192E+03  0.000000000E+00  0.00000E+00  9.000E+00
      25     1     1     2     0     0  1.371235080E+02 -6.986248910E+01 -5.729405775E+02  6.062751267E+02  1.250000000E+02  0.00000E+00  9.000E+00
      25     1     1     2     0     0  8.899797537E+00  2.119671054E+02 -1.199468724E+03  1.224483352E+03  1.250000000E+02  0.00000E+00  9.000E+00
      21     1     1     2   501   512 -1.460233055E+02 -1.421046163E+02 -2.833117316E+02  3.489728715E+02  7.629394531E-06  0.00000E+00  9.000E+00
#rwgt            1           1   2.2647232178195090E-002           4       86431           0
</event>
<event>
      5   9999  3.19816E-02  5.66699E+01 -1.00000E+00  1.36042E-01
      21    -1     0     0   502   511  0.000000000E+00  0.000000000E+00  5.146161912E+02  5.146161912E+02  0.000000000E+00  0.00000E+00  9.000E+00
      21    -1     0     0   501   502  0.000000000E+00  0.000000000E+00 -8.272237088E+01  8.272237088E+01  0.000000000E+00  0.00000E+00  9.000E+00
      25     1     1     2     0     0  1.667125881E+01  1.086514288E+02  2.139716991E+02  2.710939908E+02  1.250000000E+02  0.00000E+00  9.000E+00
      25     1     1     2     0     0  5.339701737E+00 -5.643083535E+01  4.526151166E+01  1.445218185E+02  1.250000000E+02  0.00000E+00  9.000E+00
      21     1     1     2   501   511 -2.201096055E+01 -5.222059345E+01  1.726606096E+02  1.817227527E+02  0.000000000E+00  0.00000E+00  9.000E+00
#rwgt            1           1   1.9945689400107575E-002           4       86467           0
</event>
<event>
      5   9999  3.19816E-02  6.92352E+01 -1.00000E+00  1.31463E-01
      21    -1     0     0   502   501  0.000000000E+00  0.000000000E+00  9.681605319E+02  9.681605319E+02  0.000000000E+00  0.00000E+00  9.000E+00
      21    -1     0     0   501   512  0.000000000E+00  0.000000000E+00 -2.169981196E+02  2.169981196E+02  0.000000000E+00  0.00000E+00  9.000E+00
      25     1     1     2     0     0 -2.694717929E+02 -3.071108849E+02  4.939436318E+02  6.530983495E+02  1.250000000E+02  0.00000E+00  9.000E+00
      25     1     1     2     0     0  2.774979575E+02  2.383425031E+02  2.543944439E+02  4.627675424E+02  1.250000000E+02  0.00000E+00  9.000E+00
      21     1     1     2   502   512 -8.026164691E+00  6.876838179E+01  2.824336500E+00  6.929275958E+01  1.860199754E-06  0.00000E+00  9.000E+00
#rwgt            1           1   2.9142757090744747E-002           4       86554           0
</event>
<event>
      5   9999  3.19816E-02  1.11226E+02 -1.00000E+00  1.21785E-01
      21    -1     0     0   502   501  0.000000000E+00  0.000000000E+00  5.841179382E+02  5.841179382E+02  0.000000000E+00  0.00000E+00  9.000E+00
      21    -1     0     0   501   511  0.000000000E+00  0.000000000E+00 -4.387367067E+02  4.387367067E+02  0.000000000E+00  0.00000E+00  9.000E+00
      25     1     1     2     0     0 -5.443486259E+01  4.889796594E+01  4.044426167E+02  4.295963169E+02  1.250000000E+02  0.00000E+00  9.000E+00
      25     1     1     2     0     0  1.339101756E+01 -1.522746334E+02  9.716247631E+01  2.200736925E+02  1.250000000E+02  0.00000E+00  9.000E+00
      21     1     1     2   502   511  4.104384503E+01  1.033766675E+02 -3.562238615E+02  3.731846354E+02  6.607249480E-06  0.00000E+00  9.000E+00
#rwgt            1           1   2.6819232485848662E-002           4       86644           0
</event>
<event>
      5   9999  3.19816E-02  7.18766E+01 -1.00000E+00  1.30641E-01
      21    -1     0     0   512   501  0.000000000E+00  0.000000000E+00  1.390600014E+02  1.390600014E+02  0.000000000E+00  0.00000E+00  9.000E+00
      21    -1     0     0   501   502  0.000000000E+00  0.000000000E+00 -1.475379217E+03  1.475379217E+03  0.000000000E+00  0.00000E+00  9.000E+00
      25     1     1     2     0     0 -1.723870235E+02 -2.731091167E+02 -8.790149572E+02  9.447741373E+02  1.250000000E+02  0.00000E+00  9.000E+00
      25     1     1     2     0     0  1.503677708E+02  2.046884004E+02 -5.081116502E+02  5.816444419E+02  1.250000000E+02  0.00000E+00  9.000E+00
      21     1     1     2   512   502  2.201925276E+01  6.842071627E+01  5.080739168E+01  8.802063938E+01  3.438521648E-06  0.00000E+00  9.000E+00
#rwgt            1           1   3.0189842824539678E-002           4       86740           0
</event>
<event>
      5   9999  3.70017E-02  7.54298E+01 -1.00000E+00  1.29598E-01
      21    -1     0     0   502   501  0.000000000E+00  0.000000000E+00  2.113019165E+03  2.113019165E+03  0.000000000E+00  0.00000E+00  9.000E+00
      21    -1     0     0   511   502  0.000000000E+00  0.000000000E+00 -8.941210174E+01  8.941210174E+01  0.000000000E+00  0.00000E+00  9.000E+00
      25     1     1     2     0     0  1.976215297E+02 -1.912791325E+02  6.902436954E+02  7.534609045E+02  1.250000000E+02  0.00000E+00  9.000E+00
      25     1     1     2     0     0 -1.240730202E+02  2.080204172E+02  1.345271905E+03  1.372606319E+03  1.250000000E+02  0.00000E+00  9.000E+00
      21     1     1     2   511   501 -7.354850949E+01 -1.674128462E+01 -1.190853717E+01  7.636404335E+01  2.008950656E-06  0.00000E+00  9.000E+00
#rwgt            1           1  0.10478501231291613                4       86806           0
</event>
<event>
      5   9999  3.19816E-02  2.29583E+01 -1.00000E+00  1.61573E-01
      21    -1     0     0   512   501  0.000000000E+00  0.000000000E+00  1.500618750E+02  1.500618750E+02  0.000000000E+00  0.00000E+00  9.000E+00
      21    -1     0     0   501   502  0.000000000E+00  0.000000000E+00 -1.986781332E+03  1.986781332E+03  0.000000000E+00  0.00000E+00  9.000E+00
      25     1     1     2     0     0 -1.697569632E+02 -4.914559419E+02 -8.319978428E+02  9.890357829E+02  1.250000000E+02  0.00000E+00  9.000E+00
      25     1     1     2     0     0  1.892678853E+02  4.793561338E+02 -9.784222102E+02  1.112896966E+03  1.250000000E+02  0.00000E+00  9.000E+00
      21     1     1     2   512   502 -1.951092212E+01  1.209980815E+01 -2.629940396E+01  3.491045815E+01  0.000000000E+00  0.00000E+00  9.000E+00
#rwgt            1           1   2.7358207238609576E-002           4       86940           0
</event>
<event>
      5   9999  3.19816E-02  6.57951E+01 -1.00000E+00  1.32598E-01
      21    -1     0     0   502   501  0.000000000E+00  0.000000000E+00  1.184597689E+02  1.184597689E+02  0.000000000E+00  0.00000E+00  9.000E+00
      -3    -1     0     0     0   502  0.000000000E+00  0.000000000E+00 -3.508175704E+02  3.508175704E+02  0.000000000E+00  0.00000E+00  9.000E+00
      25     1     1     2     0     0 -6.774394041E+01  1.339486346E+01 -6.007695634E+01  1.549287078E+02  1.250000000E+02  0.00000E+00  9.000E+00
      25     1     1     2     0     0  1.335255457E+02 -1.472691540E+01 -7.801589146E+01  1.993926596E+02  1.250000000E+02  0.00000E+00  9.000E+00
      -3     1     1     2     0   501 -6.578160529E+01  1.332051942E+00 -9.426495369E+01  1.149559718E+02  0.000000000E+00  0.00000E+00  9.000E+00
#rwgt            1           1   2.0491787244323750E-002           4       87095           0
</event>
<event>
      5   9999  3.19816E-02  8.96023E+01 -1.00000E+00  1.26011E-01
      21    -1     0     0   502   501  0.000000000E+00  0.000000000E+00  1.105337620E+02  1.105337620E+02  0.000000000E+00  0.00000E+00  9.000E+00
       2    -1     0     0   501     0  0.000000000E+00  0.000000000E+00 -1.609309173E+03  1.609309173E+03  0.000000000E+00  0.00000E+00  9.000E+00
      25     1     1     2     0     0 -1.893918688E+01 -7.701326073E+01 -7.257269625E+01  1.648682243E+02  1.250000000E+02  0.00000E+00  9.000E+00
      25     1     1     2     0     0 -3.611564727E+01  1.477065032E+02 -9.115487421E+01  2.169234016E+02  1.250000000E+02  0.00000E+00  9.000E+00
       2     1     1     2   502     0  5.505483415E+01 -7.069324252E+01 -1.335047841E+03  1.338051309E+03  1.525878906E-05  0.00000E+00  9.000E+00
#rwgt            1           1   3.1543510341383016E-002           4       87149           0
</event>
<event>
      5   9999  3.19816E-02  1.38035E+02 -1.00000E+00  1.17843E-01
      21    -1     0     0   502   501  0.000000000E+00  0.000000000E+00  7.085720207E+02  7.085720207E+02  0.000000000E+00  0.00000E+00  9.000E+00
      21    -1     0     0   501   511  0.000000000E+00  0.000000000E+00 -4.092572929E+02  4.092572929E+02  0.000000000E+00  0.00000E+00  9.000E+00
      25     1     1     2     0     0 -1.390585267E+01  1.748807391E+02  8.409528137E+01  2.312437286E+02  1.250000000E+02  0.00000E+00  9.000E+00
      25     1     1     2     0     0 -4.297870005E+01 -3.006499831E+02  4.837221918E+02  5.846791768E+02  1.250000000E+02  0.00000E+00  9.000E+00
      21     1     1     2   502   511  5.688455272E+01  1.257692440E+02 -2.685027454E+02  3.019064083E+02  3.814697266E-06  0.00000E+00  9.000E+00
#rwgt            1           1   2.4092713796048375E-002           4       87196           0
</event>
<event>
      5   9999  3.19816E-02  4.46604E+01 -1.00000E+00  1.41933E-01
      21    -1     0     0   502   501  0.000000000E+00  0.000000000E+00  4.880337267E+02  4.880337267E+02  0.000000000E+00  0.00000E+00  9.000E+00
      21    -1     0     0   501   512  0.000000000E+00  0.000000000E+00 -1.891409564E+02  1.891409564E+02  0.000000000E+00  0.00000E+00  9.000E+00
      25     1     1     2     0     0  2.306932563E+02 -4.967520947E+01  2.980479703E+02  4.001807061E+02  1.250000000E+02  0.00000E+00  9.000E+00
      25     1     1     2     0     0 -1.860359171E+02  4.915309840E+01 -1.412606861E+01  2.298911380E+02  1.250000000E+02  0.00000E+00  9.000E+00
      21     1     1     2   502   512 -4.465733917E+01  5.221110730E-01  1.497086863E+01  4.710283908E+01  4.768371582E-07  0.00000E+00  9.000E+00
#rwgt            1           1   2.7205871864510255E-002           4       87289           0
</event>
<event>
      5   9999  3.19816E-02  1.92459E+02 -1.00000E+00  1.12259E-01
      21    -1     0     0   502   501  0.000000000E+00  0.000000000E+00  1.369293173E+03  1.369293173E+03  0.000000000E+00  0.00000E+00  9.000E+00
      21    -1     0     0   511   502  0.000000000E+00  0.000000000E+00 -6.236951384E+02  6.236951384E+02  0.000000000E+00  0.00000E+00  9.000E+00
      25     1     1     2     0     0  5.145767822E+02 -2.145229260E+02  2.100140641E+02  6.087201801E+02  1.250000000E+02  0.00000E+00  9.000E+00
      25     1     1     2     0     0 -4.177136884E+02  3.808302758E+02  8.423644146E+02  1.022115077E+03  1.250000000E+02  0.00000E+00  9.000E+00
      21     1     1     2   511   501 -9.686309384E+01 -1.663073498E+02 -3.067804441E+02  3.621530538E+02  5.394796609E-06  0.00000E+00  9.000E+00
#rwgt            2          11   4.0791609023404186E-003           4       87403           0
</event>
<event>
      5   9999  3.19816E-02  3.07071E+01 -1.00000E+00  1.52340E-01
      21    -1     0     0   502   512  0.000000000E+00  0.000000000E+00  7.741873196E+02  7.741873196E+02  0.000000000E+00  0.00000E+00  9.000E+00
      21    -1     0     0   501   502  0.000000000E+00  0.000000000E+00 -7.991561607E+01  7.991561607E+01  0.000000000E+00  0.00000E+00  9.000E+00
      25     1     1     2     0     0  2.065237691E+01  1.768669069E+02  3.019135026E+02  3.721359785E+02  1.250000000E+02  0.00000E+00  9.000E+00
      25     1     1     2     0     0 -2.648712855E+01 -2.070146150E+02  3.099166986E+02  3.939923589E+02  1.250000000E+02  0.00000E+00  9.000E+00
      21     1     1     2   501   512  5.834751640E+00  3.014770819E+01  8.244150237E+01  8.797459832E+01  9.536743164E-07  0.00000E+00  9.000E+00
#rwgt            1           1   2.6989025506754812E-002           4       87423           0
</event>
<event>
      5   9999  3.19816E-02  3.91554E+01 -1.00000E+00  1.45417E-01
      21    -1     0     0   502   501  0.000000000E+00  0.000000000E+00  8.388649355E+01  8.388649355E+01  0.000000000E+00  0.00000E+00  9.000E+00
       2    -1     0     0   501     0  0.000000000E+00  0.000000000E+00 -1.339826261E+03  1.339826261E+03  0.000000000E+00  0.00000E+00  9.000E+00
      25     1     1     2     0     0 -2.813477007E+02  1.956943017E+01 -7.594391099E+02  8.197025393E+02  1.250000000E+02  0.00000E+00  9.000E+00
      25     1     1     2     0     0  2.482326661E+02 -4.046298882E+01 -3.317570976E+02  4.346774457E+02  1.250000000E+02  0.00000E+00  9.000E+00
       2     1     1     2   502     0  3.311503464E+01  2.089355865E+01 -1.647435602E+02  1.693327699E+02  0.000000000E+00  0.00000E+00  9.000E+00
#rwgt            1           1   2.7521554696499310E-002           4       87574           0
</event>
<event>
      5   9999  3.19816E-02  3.29568E+01 -1.00000E+00  1.50257E-01
      21    -1     0     0   511   501  0.000000000E+00  0.000000000E+00  5.893855833E+02  5.893855833E+02  0.000000000E+00  0.00000E+00  9.000E+00
      21    -1     0     0   501   502  0.000000000E+00  0.000000000E+00 -7.089582589E+02  7.089582589E+02  0.000000000E+00  0.00000E+00  9.000E+00
      25     1     1     2     0     0 -1.712284907E+02 -4.128328002E+02  3.544617517E+02  5.839676792E+02  1.250000000E+02  0.00000E+00  9.000E+00
      25     1     1     2     0     0  1.557540034E+02  4.419307577E+02 -4.782998082E+02  6.811444859E+02  1.250000000E+02  0.00000E+00  9.000E+00
      21     1     1     2   511   502  1.547448730E+01 -2.909795751E+01  4.265380870E+00  3.323167710E+01  4.655271575E-07  0.00000E+00  9.000E+00
#rwgt            1           1   3.0565967099011705E-002           4       87687           0
</event>
<event>
      5   9999  3.19816E-02  1.26029E+02 -1.00000E+00  1.19472E-01
      21    -1     0     0   502   501  0.000000000E+00  0.000000000E+00  2.390855220E+02  2.390855220E+02  0.000000000E+00  0.00000E+00  9.000E+00
       2    -1     0     0   501     0  0.000000000E+00  0.000000000E+00 -8.128851662E+02  8.128851662E+02  0.000000000E+00  0.00000E+00  9.000E+00
      25     1     1     2     0     0  1.562910807E+02 -9.585739711E+01  9.064004939E+01  2.397001482E+02  1.250000000E+02  0.00000E+00  9.000E+00
      25     1     1     2     0     0 -6.841781551E+01  5.516458436E+00 -6.710823841E+02  6.860670485E+02  1.250000000E+02  0.00000E+00  9.000E+00
       2     1     1     2   502     0 -8.787326515E+01  9.034093867E+01  6.642690583E+00  1.262034915E+02  2.196493837E-06  0.00000E+00  9.000E+00
#rwgt            1           1   2.8156831392731552E-002           4       87857           0
</event>
<event>
      5   9999  3.19816E-02  1.94718E+01 -1.00000E+00  1.67334E-01
      21    -1     0     0   502   511  0.000000000E+00  0.000000000E+00  2.327467114E+02  2.327467114E+02  0.000000000E+00  0.00000E+00  9.000E+00
      21    -1     0     0   501   502  0.000000000E+00  0.000000000E+00 -7.775576554E+02  7.775576554E+02  0.000000000E+00  0.00000E+00  9.000E+00
      25     1     1     2     0     0  1.358695000E+02 -3.057280819E+02 -3.387699001E+01  3.587517687E+02  1.250000000E+02  0.00000E+00  9.000E+00
      25     1     1     2     0     0 -1.346876443E+02  3.251639689E+02 -5.098959015E+02  6.320531612E+02  1.250000000E+02  0.00000E+00  9.000E+00
      21     1     1     2   501   511 -1.181855681E+00 -1.943588700E+01 -1.038052567E+00  1.949943690E+01  2.086162567E-07  0.00000E+00  9.000E+00
#rwgt            1           1   2.9043494378484136E-002           4       87925           0
</event>
<event>
      5   9999  3.19816E-02  9.74898E+01 -1.00000E+00  1.24327E-01
      21    -1     0     0   502   501  0.000000000E+00  0.000000000E+00  6.625748091E+02  6.625748091E+02  0.000000000E+00  0.00000E+00  9.000E+00
      21    -1     0     0   501   512  0.000000000E+00  0.000000000E+00 -1.885275895E+03  1.885275895E+03  0.000000000E+00  0.00000E+00  9.000E+00
      25     1     1     2     0     0  8.786869080E+02 -4.907245867E+02 -4.270004705E+02  1.100388888E+03  1.250000000E+02  0.00000E+00  9.000E+00
      25     1     1     2     0     0 -9.622148034E+02  5.409973065E+02 -7.175190388E+02  1.322495363E+03  1.250000000E+02  0.00000E+00  9.000E+00
      21     1     1     2   502   512  8.352789544E+01 -5.027271979E+01 -7.818157681E+01  1.249664540E+02  1.907348633E-06  0.00000E+00  9.000E+00
#rwgt            1           1   3.2754690603823779E-002           4       88124           0
</event>
<event>
      5   9999  3.19816E-02  1.16251E+02 -1.00000E+00  1.20956E-01
      21    -1     0     0   502   511  0.000000000E+00  0.000000000E+00  1.410334870E+03  1.410334870E+03  0.000000000E+00  0.00000E+00  9.000E+00
      21    -1     0     0   501   502  0.000000000E+00  0.000000000E+00 -5.024460930E+02  5.024460930E+02  0.000000000E+00  0.00000E+00  9.000E+00
      25     1     1     2     0     0  1.071957488E+02 -5.988766968E+02  1.922463885E+02  6.501752844E+02  1.250000000E+02  0.00000E+00  9.000E+00
      25     1     1     2     0     0 -1.271334133E+02  4.843479940E+02 -2.129038970E+01  5.165599334E+02  1.250000000E+02  0.00000E+00  9.000E+00
      21     1     1     2   501   511  1.993766444E+01  1.145287028E+02  7.369327781E+02  7.460457450E+02  1.078959322E-05  0.00000E+00  9.000E+00
#rwgt            1           1   3.1436324332232125E-002           4       88240           0
</event>
<event>
      5   9999  3.19816E-02  2.63899E+01 -1.00000E+00  1.57011E-01
      21    -1     0     0   502   501  0.000000000E+00  0.000000000E+00  1.860888496E+02  1.860888496E+02  0.000000000E+00  0.00000E+00  9.000E+00
      21    -1     0     0   501   512  0.000000000E+00  0.000000000E+00 -1.328597946E+03  1.328597946E+03  0.000000000E+00  0.00000E+00  9.000E+00
      25     1     1     2     0     0 -2.908920480E+02 -3.244056433E+02 -4.165788403E+02  6.156461120E+02  1.250000000E+02  0.00000E+00  9.000E+00
      25     1     1     2     0     0  3.020776930E+02  3.005035652E+02 -4.885440071E+02  6.601920722E+02  1.250000000E+02  0.00000E+00  9.000E+00
      21     1     1     2   502   512 -1.118564504E+01  2.390207808E+01 -2.373862488E+02  2.388486113E+02  0.000000000E+00  0.00000E+00  9.000E+00
#rwgt            1           1   3.0472700298241194E-002           4       88328           0
</event>
<event>
      5   9999  3.19816E-02  8.07585E+01 -1.00000E+00  1.28151E-01
      21    -1     0     0   502   511  0.000000000E+00  0.000000000E+00  8.791430061E+01  8.791430061E+01  0.000000000E+00  0.00000E+00  9.000E+00
      21    -1     0     0   501   502  0.000000000E+00  0.000000000E+00 -1.292995567E+03  1.292995567E+03  0.000000000E+00  0.00000E+00  9.000E+00
      25     1     1     2     0     0 -2.421377105E+02  2.861022875E+01 -2.367273231E+02  3.620967295E+02  1.250000000E+02  0.00000E+00  9.000E+00
      25     1     1     2     0     0  1.637085929E+02 -4.786649818E+01 -8.473306419E+02  8.733189119E+02  1.250000000E+02  0.00000E+00  9.000E+00
      21     1     1     2   501   511  7.842911766E+01  1.925626943E+01 -1.210233017E+02  1.454942266E+02  1.907348633E-06  0.00000E+00  9.000E+00
#rwgt            1           1   3.1378015565731762E-002           4       88500           0
</event>
<event>
      5   9999  3.19816E-02  4.19814E+01 -1.00000E+00  1.43550E-01
      21    -1     0     0   502   512  0.000000000E+00  0.000000000E+00  3.166148000E+02  3.166148000E+02  0.000000000E+00  0.00000E+00  9.000E+00
      21    -1     0     0   501   502  0.000000000E+00  0.000000000E+00 -1.971933867E+02  1.971933867E+02  0.000000000E+00  0.00000E+00  9.000E+00
      25     1     1     2     0     0  2.198864864E+01 -1.626163894E+02 -6.081774975E+01  2.150613621E+02  1.250000000E+02  0.00000E+00  9.000E+00
      25     1     1     2     0     0  1.565378888E+01  1.440292600E+02  1.219230194E+02  2.268913650E+02  1.250000000E+02  0.00000E+00  9.000E+00
      21     1     1     2   501   512 -3.764243752E+01  1.858712942E+01  5.831614364E+01  7.185545972E+01  6.743495762E-07  0.00000E+00  9.000E+00
#rwgt            1           1   2.5182590647286195E-002           4       88554           0
</event>
<event>
      5   9999  3.19816E-02  1.81007E+02 -1.00000E+00  1.13249E-01
      21    -1     0     0   502   501  0.000000000E+00  0.000000000E+00  6.823423884E+02  6.823423884E+02  0.000000000E+00  0.00000E+00  9.000E+00
       2    -1     0     0   501     0  0.000000000E+00  0.000000000E+00 -2.061540449E+02  2.061540449E+02  0.000000000E+00  0.00000E+00  9.000E+00
      25     1     1     2     0     0 -8.038267118E+01  1.204370066E+01  3.543313630E+02  3.844244260E+02  1.250000000E+02  0.00000E+00  9.000E+00
      25     1     1     2     0     0  1.095459686E+02  1.665987579E+02 -6.477387075E+01  2.440821987E+02  1.250000000E+02  0.00000E+00  9.000E+00
       2     1     1     2   502     0 -2.916329742E+01 -1.786424586E+02  1.866308513E+02  2.599898086E+02  3.814697266E-06  0.00000E+00  9.000E+00
#rwgt            1           1   2.8882132937678714E-002           4       88669           0
</event>
<event>
      5   9999  3.19816E-02  6.62459E+01 -1.00000E+00  1.32445E-01
      21    -1     0     0   511   501  0.000000000E+00  0.000000000E+00  5.673693980E+02  5.673693980E+02  0.000000000E+00  0.00000E+00  9.000E+00
      21    -1     0     0   501   502  0.000000000E+00  0.000000000E+00 -7.609272486E+02  7.609272486E+02  0.000000000E+00  0.00000E+00  9.000E+00
      25     1     1     2     0     0 -2.399859690E+00  7.861208802E+01 -7.190281434E+02  7.340382080E+02  1.250000000E+02  0.00000E+00  9.000E+00
      25     1     1     2     0     0  4.656584342E+01 -2.923716419E+01  5.075949444E+02  5.256432413E+02  1.250000000E+02  0.00000E+00  9.000E+00
      21     1     1     2   511   502 -4.416598373E+01 -4.937492383E+01  1.787534848E+01  6.861519733E+01  9.830249847E-07  0.00000E+00  9.000E+00
#rwgt            1           1   3.0590241517719087E-002           4       88722           0
</event>
<event>
      5   9999  3.19816E-02  9.47211E+00 -1.00000E+00  1.98520E-01
      21    -1     0     0   502   512  0.000000000E+00  0.000000000E+00  1.161617027E+03  1.161617027E+03  0.000000000E+00  0.00000E+00  9.000E+00
      21    -1     0     0   501   502  0.000000000E+00  0.000000000E+00 -1.045666353E+02  1.045666353E+02  0.000000000E+00  0.00000E+00  9.000E+00
      25     1     1     2     0     0 -2.111350056E+02 -1.744542562E+02  2.167706627E+02  3.709808597E+02  1.250000000E+02  0.00000E+00  9.000E+00
      25     1     1     2     0     0  2.153467616E+02  1.659700408E+02  8.163208958E+02  8.694395246E+02  1.250000000E+02  0.00000E+00  9.000E+00
      21     1     1     2   501   512 -4.211756012E+00  8.484215362E+00  2.395883354E+01  2.576327820E+01  0.000000000E+00  0.00000E+00  9.000E+00
#rwgt            1           1   2.8603732403677321E-002           4       88891           0
</event>
<event>
      5   9999  3.19816E-02  1.83193E+02 -1.00000E+00  1.13054E-01
      21    -1     0     0   502   501  0.000000000E+00  0.000000000E+00  1.337177413E+03  1.337177413E+03  0.000000000E+00  0.00000E+00  9.000E+00
      21    -1     0     0   501   511  0.000000000E+00  0.000000000E+00 -4.311308670E+02  4.311308670E+02  0.000000000E+00  0.00000E+00  9.000E+00
      25     1     1     2     0     0 -4.343443556E+02 -4.370823783E+02  8.326473373E+02  1.043370794E+03  1.250000000E+02  0.00000E+00  9.000E+00
      25     1     1     2     0     0  2.522950502E+02  4.575189433E+02  6.959218865E+01  5.417051306E+02  1.250000000E+02  0.00000E+00  9.000E+00
      21     1     1     2   502   511  1.820493054E+02 -2.043656493E+01  3.807020111E+00  1.832323558E+02  2.352685256E-06  0.00000E+00  9.000E+00
#rwgt            1           1   3.2394377103722588E-002           4       89187           0
</event>
<event>
      5   9999  3.19816E-02  2.01120E+02 -1.00000E+00  1.11560E-01
      21    -1     0     0   512   501  0.000000000E+00  0.000000000E+00  1.558988969E+03  1.558988969E+03  0.000000000E+00  0.00000E+00  9.000E+00
      21    -1     0     0   501   502  0.000000000E+00  0.000000000E+00 -1.049133815E+02  1.049133815E+02  0.000000000E+00  0.00000E+00  9.000E+00
      25     1     1     2     0     0 -2.662038055E+01 -1.710461829E+02  5.332375435E+02  5.743977013E+02  1.250000000E+02  0.00000E+00  9.000E+00
      25     1     1     2     0     0  1.891399620E+02  2.895231367E+02  4.775376616E+02  6.027145179E+02  1.250000000E+02  0.00000E+00  9.000E+00
      21     1     1     2   512   502 -1.625195814E+02 -1.184769537E+02  4.433003823E+02  4.867901313E+02  5.394796609E-06  0.00000E+00  9.000E+00
#rwgt            2          11   2.8720974280568475E-003           4       89315           0
</event>
<event>
      5   9999  3.19816E-02  4.11364E+01 -1.00000E+00  1.44090E-01
      21    -1     0     0   502   501  0.000000000E+00  0.000000000E+00  1.753294814E+02  1.753294814E+02  0.000000000E+00  0.00000E+00  9.000E+00
      21    -1     0     0   511   502  0.000000000E+00  0.000000000E+00 -7.189038454E+02  7.189038454E+02  0.000000000E+00  0.00000E+00  9.000E+00
      25     1     1     2     0     0 -8.900364589E+01 -1.269880714E+02  8.492016024E+01  2.165272567E+02  1.250000000E+02  0.00000E+00  9.000E+00
      25     1     1     2     0     0  1.011214485E+02  8.767699499E+01 -3.390004700E+02  3.853039339E+02  1.250000000E+02  0.00000E+00  9.000E+00
      21     1     1     2   511   501 -1.211780260E+01  3.931107641E+01 -2.894940541E+02  2.924021362E+02  3.814697266E-06  0.00000E+00  9.000E+00
#rwgt            1           1   2.7106150704998503E-002           4       89335           0
</event>
<event>
      5   9999  3.19816E-02  1.19010E+02 -1.00000E+00  1.20521E-01
      21    -1     0     0   502   512  0.000000000E+00  0.000000000E+00  1.382894364E+03  1.382894364E+03  0.000000000E+00  0.00000E+00  9.000E+00
      21    -1     0     0   501   502  0.000000000E+00  0.000000000E+00 -6.820038588E+02  6.820038588E+02  0.000000000E+00  0.00000E+00  9.000E+00
      25     1     1     2     0     0  4.223973081E+02  5.405388949E+02 -1.306105153E+02  7.094264511E+02  1.250000000E+02  0.00000E+00  9.000E+00
      25     1     1     2     0     0 -3.298172833E+02 -4.657575157E+02  7.426353161E+01  5.889393652E+02  1.250000000E+02  0.00000E+00  9.000E+00
      21     1     1     2   501   512 -9.258002484E+01 -7.478137929E+01  7.572374890E+02  7.665324066E+02  0.000000000E+00  0.00000E+00  9.000E+00
#rwgt            1           1   3.1167951159038577E-002           4       89440           0
</event>
<event>
      5   9999  3.19816E-02  1.43806E+02 -1.00000E+00  1.17124E-01
      -1    -1     0     0     0   501  0.000000000E+00  0.000000000E+00  1.925890692E+03  1.925890692E+03  0.000000000E+00  0.00000E+00  9.000E+00
      21    -1     0     0   501   502  0.000000000E+00  0.000000000E+00 -6.808068772E+01  6.808068772E+01  0.000000000E+00  0.00000E+00  9.000E+00
      25     1     1     2     0     0 -2.286493442E+02  8.747228432E+01  3.252534960E+02  4.258482826E+02  1.250000000E+02  0.00000E+00  9.000E+00
      25     1     1     2     0     0  1.272077275E+02  1.445790682E+01  6.613415163E+02  6.851192876E+02  1.250000000E+02  0.00000E+00  9.000E+00
      -1     1     1     2     0   502  1.014416167E+02 -1.019301911E+02  8.712149923E+02  8.830038099E+02  1.078959322E-05  0.00000E+00  9.000E+00
#rwgt            1           1   3.0548430087010626E-002           4       89542           0
</event>
<event>
      5   9999  3.19816E-02  2.71148E+02 -1.00000E+00  1.07039E-01
      21    -1     0     0   502   501  0.000000000E+00  0.000000000E+00  3.594591560E+03  3.594591560E+03  0.000000000E+00  0.00000E+00  9.000E+00
      21    -1     0     0   511   502  0.000000000E+00  0.000000000E+00 -2.126210268E+03  2.126210268E+03  0.000000000E+00  0.00000E+00  9.000E+00
      25     1     1     2     0     0 -7.036397976E+02 -2.407879018E+01  1.341006198E+03  1.519740562E+03  1.250000000E+02  0.00000E+00  9.000E+00
      25     1     1     2     0     0  4.383775988E+02 -3.211090490E+01  2.130860257E+03  2.179311007E+03  1.250000000E+02  0.00000E+00  9.000E+00
      21     1     1     2   511   501  2.652621988E+02  5.618969509E+01 -2.003485163E+03  2.021750260E+03  3.737624730E-05  0.00000E+00  9.000E+00
#rwgt            1           1   2.3342369572061882E-002           4       89653           0
</event>
<event>
      5   9999  3.19816E-02  2.38316E+02 -1.00000E+00  1.08945E-01
      21    -1     0     0   512   501  0.000000000E+00  0.000000000E+00  3.132908524E+03  3.132908524E+03  0.000000000E+00  0.00000E+00  9.000E+00
      21    -1     0     0   501   502  0.000000000E+00  0.000000000E+00 -4.355276940E+02  4.355276940E+02  0.000000000E+00  0.00000E+00  9.000E+00
      25     1     1     2     0     0  7.463895137E+02 -5.672365035E+02  1.478897720E+03  1.755453794E+03  1.250000000E+02  0.00000E+00  9.000E+00
      25     1     1     2     0     0 -8.775998116E+02  3.682930602E+02  5.568604232E+02  1.109747601E+03  1.250000000E+02  0.00000E+00  9.000E+00
      21     1     1     2   512   502  1.312102979E+02  1.989434433E+02  6.616226867E+02  7.032348224E+02  1.078959322E-05  0.00000E+00  9.000E+00
#rwgt            2          11   2.1558528228269491E-003           4       89752           0
</event>
<event>
      5   9999  3.19816E-02  6.49251E+01 -1.00000E+00  1.32898E-01
      21    -1     0     0   502   501  0.000000000E+00  0.000000000E+00  1.109866513E+03  1.109866513E+03  0.000000000E+00  0.00000E+00  9.000E+00
      21    -1     0     0   511   502  0.000000000E+00  0.000000000E+00 -1.123856631E+03  1.123856631E+03  0.000000000E+00  0.00000E+00  9.000E+00
      25     1     1     2     0     0  6.463884006E+02 -5.096941388E+02  6.812549484E+02  1.075797093E+03  1.250000000E+02  0.00000E+00  9.000E+00
      25     1     1     2     0     0 -7.014688220E+02  4.753224818E+02 -6.730334904E+02  1.089306683E+03  1.250000000E+02  0.00000E+00  9.000E+00
      21     1     1     2   511   501  5.508042137E+01  3.437165696E+01 -2.221157566E+01  6.861936836E+01  7.152557373E-07  0.00000E+00  9.000E+00
#rwgt            1           1   2.1434307081328739E-002           4       89772           0
</event>
<event>
      5   9999  3.19816E-02  4.56120E+01 -1.00000E+00  1.41390E-01
      21    -1     0     0   502   512  0.000000000E+00  0.000000000E+00  3.107677564E+02  3.107677564E+02  0.000000000E+00  0.00000E+00  9.000E+00
      21    -1     0     0   501   502  0.000000000E+00  0.000000000E+00 -1.070471089E+03  1.070471089E+03  0.000000000E+00  0.00000E+00  9.000E+00
      25     1     1     2     0     0  1.003493255E+02 -3.641949891E+02  8.544278422E+01  4.069808922E+02  1.250000000E+02  0.00000E+00  9.000E+00
      25     1     1     2     0     0 -1.243953995E+02  3.254362581E+02 -8.512468118E+02  9.282397902E+02  1.250000000E+02  0.00000E+00  9.000E+00
      21     1     1     2   501   512  2.404607394E+01  3.875873100E+01  6.100694508E+00  4.601816352E+01  4.616955931E-07  0.00000E+00  9.000E+00
#rwgt            1           1   3.4747797369069640E-002           4       89913           0
</event>
<event>
      5   9999  3.19816E-02  5.34129E+01 -1.00000E+00  1.37459E-01
      21    -1     0     0   502   501  0.000000000E+00  0.000000000E+00  1.008137245E+03  1.008137245E+03  0.000000000E+00  0.00000E+00  9.000E+00
      21    -1     0     0   511   502  0.000000000E+00  0.000000000E+00 -2.921269871E+02  2.921269871E+02  0.000000000E+00  0.00000E+00  9.000E+00
      25     1     1     2     0     0 -3.096783224E+02  1.844480543E+02  7.293288975E+02  8.230840716E+02  1.250000000E+02  0.00000E+00  9.000E+00
      25     1     1     2     0     0  3.056285894E+02 -2.377071786E+02  3.062306055E+01  4.080150846E+02  1.250000000E+02  0.00000E+00  9.000E+00
      21     1     1     2   511   501  4.049732934E+00  5.325912434E+01 -4.394170040E+01  6.916507569E+01  0.000000000E+00  0.00000E+00  9.000E+00
#rwgt            1           1   2.8712928229804160E-002           4       90051           0
</event>
<event>
      5   9999  3.19816E-02  4.93086E+01 -1.00000E+00  1.39421E-01
      21    -1     0     0   502   501  0.000000000E+00  0.000000000E+00  9.549678843E+02  9.549678843E+02  0.000000000E+00  0.00000E+00  9.000E+00
       1    -1     0     0   501     0  0.000000000E+00  0.000000000E+00 -8.276195512E+02  8.276195512E+02  0.000000000E+00  0.00000E+00  9.000E+00
      25     1     1     2     0     0  6.310411743E+01 -4.111632115E+02 -5.138067465E+02  6.727998877E+02  1.250000000E+02  0.00000E+00  9.000E+00
      25     1     1     2     0     0 -1.104916549E+02  3.975336907E+02  8.188333241E+02  9.253942153E+02  1.250000000E+02  0.00000E+00  9.000E+00
       1     1     1     2   502     0  4.738753744E+01  1.362952084E+01 -1.776782445E+02  1.843933326E+02  3.303624740E-06  0.00000E+00  9.000E+00
#rwgt            1           1   3.2036474139910592E-002           4       90136           0
</event>
<event>
      5   9999  3.19816E-02  1.61728E+01 -1.00000E+00  1.74358E-01
      21    -1     0     0   502   501  0.000000000E+00  0.000000000E+00  2.172522366E+02  2.172522366E+02  0.000000000E+00  0.00000E+00  9.000E+00
      21    -1     0     0   501   511  0.000000000E+00  0.000000000E+00 -1.086198137E+02  1.086198137E+02  0.000000000E+00  0.00000E+00  9.000E+00
      25     1     1     2     0     0 -6.270471333E+01  3.945362812E+01  4.841034612E+01  1.531568851E+02  1.250000000E+02  0.00000E+00  9.000E+00
      25     1     1     2     0     0  5.135500543E+01 -5.097503659E+01  6.036983506E+01  1.565417130E+02  1.250000000E+02  0.00000E+00  9.000E+00
      21     1     1     2   502   511  1.134970790E+01  1.152140847E+01 -1.477583509E-01  1.617345217E+01  1.662143378E-07  0.00000E+00  9.000E+00
#rwgt            1           1   3.4562431575266846E-002           4       90279           0
</event>
<event>
      5   9999  3.19816E-02  1.04043E+02 -1.00000E+00  1.23059E-01
      21    -1     0     0   502   501  0.000000000E+00  0.000000000E+00  2.610235069E+02  2.610235069E+02  0.000000000E+00  0.00000E+00  9.000E+00
      21    -1     0     0   512   502  0.000000000E+00  0.000000000E+00 -1.515447359E+03  1.515447359E+03  0.000000000E+00  0.00000E+00  9.000E+00
      25     1     1     2     0     0 -4.500145142E+02  9.569731276E+01 -6.230163532E+02  7.845032919E+02  1.250000000E+02  0.00000E+00  9.000E+00
      25     1     1     2     0     0  5.512359243E+02 -7.162980776E+01 -2.985601877E+02  6.432379492E+02  1.250000000E+02  0.00000E+00  9.000E+00
      21     1     1     2   512   501 -1.012214101E+02 -2.406750500E+01 -3.328473111E+02  3.487296247E+02  5.394796609E-06  0.00000E+00  9.000E+00
#rwgt            1           1   2.8680968124832604E-002           4       90381           0
</event>
<event>
      5   9999  3.19816E-02  1.36637E+02 -1.00000E+00  1.18023E-01
      21    -1     0     0   502   511  0.000000000E+00  0.000000000E+00  5.875133281E+01  5.875133281E+01  0.000000000E+00  0.00000E+00  9.000E+00
      21    -1     0     0   501   502  0.000000000E+00  0.000000000E+00 -4.086152423E+03  4.086152423E+03  0.000000000E+00  0.00000E+00  9.000E+00
      25     1     1     2     0     0 -3.349525183E+02 -6.057506774E+01 -1.582267261E+03  1.623285931E+03  1.250000000E+02  0.00000E+00  9.000E+00
      25     1     1     2     0     0  3.904075868E+02  1.854521436E+02 -2.147391101E+03  2.194020082E+03  1.250000000E+02  0.00000E+00  9.000E+00
      21     1     1     2   501   511 -5.545506848E+01 -1.248770758E+02 -2.977427282E+02  3.275977425E+02  8.529922400E-06  0.00000E+00  9.000E+00
#rwgt            1           1   1.5484265579566553E-002           4       90463           0
</event>
<event>
      5   9999  3.19816E-02  1.94004E+01 -1.00000E+00  1.67467E-01
      21    -1     0     0   502   512  0.000000000E+00  0.000000000E+00  2.667203919E+02  2.667203919E+02  0.000000000E+00  0.00000E+00  9.000E+00
      21    -1     0     0   501   502  0.000000000E+00  0.000000000E+00 -1.108405979E+02  1.108405979E+02  0.000000000E+00  0.00000E+00  9.000E+00
      25     1     1     2     0     0  7.453556619E+01  5.317393896E+01  1.247087603E+02  1.988976956E+02  1.250000000E+02  0.00000E+00  9.000E+00
      25     1     1     2     0     0 -5.873836588E+01 -6.443557147E+01  1.451566945E+01  1.530942297E+02  1.250000000E+02  0.00000E+00  9.000E+00
      21     1     1     2   501   512 -1.579720032E+01  1.126163250E+01  1.665536426E+01  2.556906457E+01  2.384185791E-07  0.00000E+00  9.000E+00
#rwgt            1           1   2.1828398941647221E-002           4       90513           0
</event>
<event>
      5   9999  3.19816E-02  1.41235E+02 -1.00000E+00  1.17439E-01
       2    -1     0     0   502     0  0.000000000E+00  0.000000000E+00  2.250800122E+02  2.250800122E+02  0.000000000E+00  0.00000E+00  9.000E+00
      21    -1     0     0   501   502  0.000000000E+00  0.000000000E+00 -1.618222236E+03  1.618222236E+03  0.000000000E+00  0.00000E+00  9.000E+00
      25     1     1     2     0     0  1.928281778E+01 -2.844874186E+01 -8.420826342E+02  8.520031225E+02  1.250000000E+02  0.00000E+00  9.000E+00
      25     1     1     2     0     0 -1.330376700E+02  1.121580393E+02 -7.314577438E+02  7.621901851E+02  1.250000000E+02  0.00000E+00  9.000E+00
       2     1     1     2   501     0  1.137548522E+02 -8.370929743E+01  1.803981539E+02  2.291089409E+02  7.629394531E-06  0.00000E+00  9.000E+00
#rwgt            1           1   1.4467411178852970E-002           4       90701           0
</event>
<event>
      5   9999  3.19816E-02  9.19047E+01 -1.00000E+00  1.25500E-01
      21    -1     0     0   502   501  0.000000000E+00  0.000000000E+00  1.228152841E+02  1.228152841E+02  0.000000000E+00  0.00000E+00  9.000E+00
      21    -1     0     0   501   511  0.000000000E+00  0.000000000E+00 -6.867301613E+02  6.867301613E+02  0.000000000E+00  0.00000E+00  9.000E+00
      25     1     1     2     0     0 -4.041788163E+01  1.183492444E+02 -1.583413685E+02  2.373544560E+02  1.250000000E+02  0.00000E+00  9.000E+00
      25     1     1     2     0     0  1.253451751E+02 -1.534750127E+02 -1.029314724E+02  2.559020915E+02  1.250000000E+02  0.00000E+00  9.000E+00
      21     1     1     2   502   511 -8.492729345E+01  3.512576828E+01 -3.026420364E+02  3.162888979E+02  5.394796609E-06  0.00000E+00  9.000E+00
#rwgt            1           1   3.3033112632570936E-002           4       90732           0
</event>
<event>
      5   9999  3.19816E-02  2.71811E+01 -1.00000E+00  1.56077E-01
      21    -1     0     0   502   512  0.000000000E+00  0.000000000E+00  1.086742786E+03  1.086742786E+03  0.000000000E+00  0.00000E+00  9.000E+00
      21    -1     0     0   501   502  0.000000000E+00  0.000000000E+00 -2.048540750E+02  2.048540750E+02  0.000000000E+00  0.00000E+00  9.000E+00
      25     1     1     2     0     0  6.437903746E+01  4.066800635E+02  5.289326017E+02  6.818563131E+02  1.250000000E+02  0.00000E+00  9.000E+00
      25     1     1     2     0     0 -3.737178784E+01 -4.097493945E+02  2.377405326E+02  4.913621655E+02  1.250000000E+02  0.00000E+00  9.000E+00
      21     1     1     2   501   512 -2.700724962E+01  3.069330999E+00  1.152155762E+02  1.183783820E+02  1.348699152E-06  0.00000E+00  9.000E+00
#rwgt            1           1   2.8394321853671012E-002           4       90805           0
</event>
<event>
      5   9999  3.19816E-02  1.41577E+02 -1.00000E+00  1.17397E-01
      21    -1     0     0   502   501  0.000000000E+00  0.000000000E+00  1.658120758E+03  1.658120758E+03  0.000000000E+00  0.00000E+00  9.000E+00
      21    -1     0     0   501   511  0.000000000E+00  0.000000000E+00 -7.194401016E+02  7.194401016E+02  0.000000000E+00  0.00000E+00  9.000E+00
      25     1     1     2     0     0 -6.188328608E+02  3.171856478E+02  2.274462599E+01  7.068968544E+02  1.250000000E+02  0.00000E+00  9.000E+00
      25     1     1     2     0     0  7.586586927E+02 -2.949882490E+02  1.139561787E+03  1.405989739E+03  1.250000000E+02  0.00000E+00  9.000E+00
      21     1     1     2   502   511 -1.398258319E+02 -2.219739878E+01 -2.236257572E+02  2.646742660E+02  3.814697266E-06  0.00000E+00  9.000E+00
#rwgt            1           1   3.0503617533750745E-002           4       91023           0
</event>
<event>
      5   9999  3.19816E-02  1.73055E+02 -1.00000E+00  1.13985E-01
      21    -1     0     0   502   512  0.000000000E+00  0.000000000E+00  3.780010261E+03  3.780010261E+03  0.000000000E+00  0.00000E+00  9.000E+00
      21    -1     0     0   501   502  0.000000000E+00  0.000000000E+00 -8.077746257E+01  8.077746257E+01  0.000000000E+00  0.00000E+00  9.000E+00
      25     1     1     2     0     0  3.820781010E+02 -1.880623377E+02  8.537005486E+02  9.621750074E+02  1.250000000E+02  0.00000E+00  9.000E+00
      25     1     1     2     0     0 -3.346266936E+02  2.163950258E+01  2.255918867E+03  2.284127454E+03  1.250000000E+02  0.00000E+00  9.000E+00
      21     1     1     2   501   512 -4.745140743E+01  1.664228351E+02  5.896133832E+02  6.144852624E+02  0.000000000E+00  0.00000E+00  9.000E+00
#rwgt            1           1   3.3426452133528337E-002           4       91142           0
</event>
<event>
      5   9999  3.19816E-02  1.69042E+01 -1.00000E+00  1.72629E-01
      21    -1     0     0   511   501  0.000000000E+00  0.000000000E+00  7.904627682E+01  7.904627682E+01  0.000000000E+00  0.00000E+00  9.000E+00
      21    -1     0     0   501   502  0.000000000E+00  0.000000000E+00 -1.565939303E+03  1.565939303E+03  0.000000000E+00  0.00000E+00  9.000E+00
      25     1     1     2     0     0  2.162007967E+02 -6.013982871E+00 -4.369987571E+02  5.033605728E+02  1.250000000E+02  0.00000E+00  9.000E+00
      25     1     1     2     0     0 -2.016957366E+02 -2.666823353E+00 -1.080720872E+03  1.106467751E+03  1.250000000E+02  0.00000E+00  9.000E+00
      21     1     1     2   511   502 -1.450506015E+01  8.680806224E+00  3.082660291E+01  3.515725549E+01  1.168007728E-06  0.00000E+00  9.000E+00
#rwgt            1           1   3.2116790688794562E-002           4       91195           0
</event>
<event>
      5   9999  3.19816E-02  4.35845E+01 -1.00000E+00  1.42566E-01
      21    -1     0     0   502   512  0.000000000E+00  0.000000000E+00  1.272802037E+02  1.272802037E+02  0.000000000E+00  0.00000E+00  9.000E+00
      21    -1     0     0   501   502  0.000000000E+00  0.000000000E+00 -5.572257158E+02  5.572257158E+02  0.000000000E+00  0.00000E+00  9.000E+00
      25     1     1     2     0     0  2.054790799E+01  7.535961530E+01 -4.752856763E+02  4.976170840E+02  1.250000000E+02  0.00000E+00  9.000E+00
      25     1     1     2     0     0 -4.335600285E+01 -3.821937315E+01  3.379375156E+01  1.418008502E+02  1.250000000E+02  0.00000E+00  9.000E+00
      21     1     1     2   501   512  2.280809486E+01 -3.714024215E+01  1.154641270E+01  4.508798537E+01  5.331201500E-07  0.00000E+00  9.000E+00
#rwgt            1           1   2.8340844458825735E-002           4       91405           0
</event>
<event>
      5   9999  3.19816E-02  4.54806E+01 -1.00000E+00  1.41464E-01
      21    -1     0     0   502   501  0.000000000E+00  0.000000000E+00  1.198496234E+02  1.198496234E+02  0.000000000E+00  0.00000E+00  9.000E+00
      21    -1     0     0   501   511  0.000000000E+00  0.000000000E+00 -2.180863226E+03  2.180863226E+03  0.000000000E+00  0.00000E+00  9.000E+00
      25     1     1     2     0     0 -3.578720487E+01 -3.570790544E+02 -9.072448027E+02  9.836179681E+02  1.250000000E+02  0.00000E+00  9.000E+00
      25     1     1     2     0     0  4.358844563E+01  3.122725054E+02 -2.736507110E+02  4.358024574E+02  1.250000000E+02  0.00000E+00  9.000E+00
      21     1     1     2   502   511 -7.801240757E+00  4.480654902E+01 -8.801180885E+02  8.812924236E+02  1.525878906E-05  0.00000E+00  9.000E+00
#rwgt            1           1   3.4370337892025128E-002           4       91489           0
</event>
<event>
      5   9999  3.19816E-02  6.73527E+01 -1.00000E+00  1.32074E-01
      21    -1     0     0   512   501  0.000000000E+00  0.000000000E+00  9.462089882E+02  9.462089882E+02  0.000000000E+00  0.00000E+00  9.000E+00
      21    -1     0     0   501   502  0.000000000E+00  0.000000000E+00 -1.580161201E+03  1.580161201E+03  0.000000000E+00  0.00000E+00  9.000E+00
      25     1     1     2     0     0 -8.423029989E+02  5.096277260E+02 -8.705955653E+02  1.320134993E+03  1.250000000E+02  0.00000E+00  9.000E+00
      25     1     1     2     0     0  9.007004032E+02 -5.431855033E+02  1.127260639E+02  1.065196636E+03  1.250000000E+02  0.00000E+00  9.000E+00
      21     1     1     2   512   502 -5.839740432E+01  3.355777730E+01  1.239172885E+02  1.410385608E+02  1.907348633E-06  0.00000E+00  9.000E+00
#rwgt            1           1   2.8472846151553873E-002           4       91598           0
</event>
<event>
      5   9999  3.19816E-02  5.90491E+01 -1.00000E+00  1.35075E-01
      21    -1     0     0   502   501  0.000000000E+00  0.000000000E+00  4.120426674E+02  4.120426674E+02  0.000000000E+00  0.00000E+00  9.000E+00
      21    -1     0     0   511   502  0.000000000E+00  0.000000000E+00 -7.155957116E+02  7.155957116E+02  0.000000000E+00  0.00000E+00  9.000E+00
      25     1     1     2     0     0 -2.321531473E+02 -2.142684750E+02  2.565324039E+02  4.257228411E+02  1.250000000E+02  0.00000E+00  9.000E+00
      25     1     1     2     0     0  2.102748642E+02  2.691149464E+02 -4.717277648E+02  5.956428938E+02  1.250000000E+02  0.00000E+00  9.000E+00
      21     1     1     2   511   501  2.187828305E+01 -5.484647137E+01 -8.835768332E+01  1.062726441E+02  9.536743164E-07  0.00000E+00  9.000E+00
#rwgt            1           1   2.7934093641340651E-002           4       91765           0
</event>
<event>
      5   9999  3.19816E-02  4.19298E+01 -1.00000E+00  1.43582E-01
      21    -1     0     0   502   501  0.000000000E+00  0.000000000E+00  7.757657192E+02  7.757657192E+02  0.000000000E+00  0.00000E+00  9.000E+00
      21    -1     0     0   501   512  0.000000000E+00  0.000000000E+00 -1.558769466E+02  1.558769466E+02  0.000000000E+00  0.00000E+00  9.000E+00
      25     1     1     2     0     0 -8.327003423E+01  7.665116039E+01  6.314050982E+02  6.535340060E+02  1.250000000E+02  0.00000E+00  9.000E+00
      25     1     1     2     0     0  1.225031486E+02 -6.185684516E+01  6.010388123E+01  1.951173167E+02  1.250000000E+02  0.00000E+00  9.000E+00
      21     1     1     2   502   512 -3.923311441E+01 -1.479431523E+01 -7.162020676E+01  8.299134319E+01  2.697398305E-06  0.00000E+00  9.000E+00
#rwgt            1           1   2.7392680062409129E-002           4       92003           0
</event>
<event>
      5   9999  3.19816E-02  7.87711E+01 -1.00000E+00  1.28676E-01
      21    -1     0     0   502   511  0.000000000E+00  0.000000000E+00  5.734206127E+02  5.734206127E+02  0.000000000E+00  0.00000E+00  9.000E+00
      21    -1     0     0   501   502  0.000000000E+00  0.000000000E+00 -6.464392986E+02  6.464392986E+02  0.000000000E+00  0.00000E+00  9.000E+00
      25     1     1     2     0     0  7.135416077E+01 -1.460621060E+02  4.163683628E+02  4.641262421E+02  1.250000000E+02  0.00000E+00  9.000E+00
      25     1     1     2     0     0 -1.366609320E+02  1.020177211E+02 -5.906986550E+02  6.274023644E+02  1.250000000E+02  0.00000E+00  9.000E+00
      21     1     1     2   501   511  6.530677123E+01  4.404438492E+01  1.013116064E+02  1.283313049E+02  1.348699152E-06  0.00000E+00  9.000E+00
#rwgt            1           1   3.1518278943520620E-002           4       92094           0
</event>
<event>
      5   9999  3.19816E-02  7.64109E+01 -1.00000E+00  1.29322E-01
      21    -1     0     0   502   501  0.000000000E+00  0.000000000E+00  1.612043179E+02  1.612043179E+02  0.000000000E+00  0.00000E+00  9.000E+00
      21    -1     0     0   512   502  0.000000000E+00  0.000000000E+00 -6.369140963E+02  6.369140963E+02  0.000000000E+00  0.00000E+00  9.000E+00
      25     1     1     2     0     0 -1.217447352E+02  2.004886246E+02 -3.161193311E+02  4.130059329E+02  1.250000000E+02  0.00000E+00  9.000E+00
      25     1     1     2     0     0  5.671586698E+01 -1.603653451E+02 -3.268352210E+00  2.111146978E+02  1.250000000E+02  0.00000E+00  9.000E+00
      21     1     1     2   512   501  6.502886817E+01 -4.012327944E+01 -1.563220951E+02  1.739977835E+02  1.907348633E-06  0.00000E+00  9.000E+00
#rwgt            1           1   2.7943237342908555E-002           4       92186           0
</event>
<event>
      5   9999  3.19816E-02  1.47841E+02 -1.00000E+00  1.16644E-01
      21    -1     0     0   511   501  0.000000000E+00  0.000000000E+00  1.142098994E+03  1.142098994E+03  0.000000000E+00  0.00000E+00  9.000E+00
      21    -1     0     0   501   502  0.000000000E+00  0.000000000E+00 -5.454613753E+02  5.454613753E+02  0.000000000E+00  0.00000E+00  9.000E+00
      25     1     1     2     0     0  5.300273844E+02  1.320117821E+02  2.053899978E+02  5.967966069E+02  1.250000000E+02  0.00000E+00  9.000E+00
      25     1     1     2     0     0 -6.024544817E+02 -3.127315538E+00 -5.780264229E+01  6.180026926E+02  1.250000000E+02  0.00000E+00  9.000E+00
      21     1     1     2   511   502  7.242709727E+01 -1.288844666E+02  4.490502631E+02  4.727610696E+02  9.344061824E-06  0.00000E+00  9.000E+00
#rwgt            1           1   3.0957813050460602E-002           4       92284           0
</event>
<event>
      5   9999  3.19816E-02  6.85511E+01 -1.00000E+00  1.31682E-01
      21    -1     0     0   502   501  0.000000000E+00  0.000000000E+00  6.803427611E+02  6.803427611E+02  0.000000000E+00  0.00000E+00  9.000E+00
      21    -1     0     0   512   502  0.000000000E+00  0.000000000E+00 -2.058239404E+02  2.058239404E+02  0.000000000E+00  0.00000E+00  9.000E+00
      25     1     1     2     0     0 -4.815069644E+01  2.693197997E+02  3.415207578E+01  3.027259624E+02  1.250000000E+02  0.00000E+00  9.000E+00
      25     1     1     2     0     0  5.262400799E+00 -2.158422580E+02  4.496901717E+02  5.142585184E+02  1.250000000E+02  0.00000E+00  9.000E+00
      21     1     1     2   512   501  4.288829564E+01 -5.347754165E+01 -9.323426769E+00  6.918222062E+01  3.769728732E-07  0.00000E+00  9.000E+00
#rwgt            1           1   2.7421859181768319E-002           4       92374           0
</event>
<event>
      5   9999  3.19816E-02  5.47072E+01 -1.00000E+00  1.36882E-01
      21    -1     0     0   502   501  0.000000000E+00  0.000000000E+00  2.197745879E+02  2.197745879E+02  0.000000000E+00  0.00000E+00  9.000E+00
       1    -1     0     0   501     0  0.000000000E+00  0.000000000E+00 -6.828809571E+02  6.828809571E+02  0.000000000E+00  0.00000E+00  9.000E+00
      25     1     1     2     0     0  6.493326197E+01 -1.217207643E+02 -1.418967347E+02  2.340768171E+02  1.250000000E+02  0.00000E+00  9.000E+00
      25     1     1     2     0     0 -9.002764521E+01  7.310856901E+01  1.297793514E+02  2.142837367E+02  1.250000000E+02  0.00000E+00  9.000E+00
       1     1     1     2   502     0  2.509438324E+01  4.861219527E+01 -4.509889859E+02  4.542949912E+02  0.000000000E+00  0.00000E+00  9.000E+00
#rwgt            1           1   2.5624390872081182E-002           4       92466           0
</event>
<event>
      5   9999  3.19816E-02  8.11665E+01 -1.00000E+00  1.28046E-01
      21    -1     0     0   511   501  0.000000000E+00  0.000000000E+00  5.660424862E+02  5.660424862E+02  0.000000000E+00  0.00000E+00  9.000E+00
      21    -1     0     0   501   502  0.000000000E+00  0.000000000E+00 -3.170789808E+02  3.170789808E+02  0.000000000E+00  0.00000E+00  9.000E+00
      25     1     1     2     0     0 -2.152541962E+02  9.554086923E+01  1.790725853E+02  3.211766141E+02  1.250000000E+02  0.00000E+00  9.000E+00
      25     1     1     2     0     0  1.784866558E+02 -2.317968718E+01 -1.897763957E+02  2.898876758E+02  1.250000000E+02  0.00000E+00  9.000E+00
      21     1     1     2   511   502  3.676754035E+01 -7.236118204E+01  2.596673158E+02  2.720571771E+02  3.814697266E-06  0.00000E+00  9.000E+00
#rwgt            1           1   3.2242609468585148E-002           4       92555           0
</event>
<event>
      5   9999  3.19816E-02  1.42160E+02 -1.00000E+00  1.17325E-01
       2    -1     0     0   502     0  0.000000000E+00  0.000000000E+00  3.522032659E+03  3.522032659E+03  0.000000000E+00  0.00000E+00  9.000E+00
      21    -1     0     0   501   502  0.000000000E+00  0.000000000E+00 -5.054611229E+01  5.054611229E+01  0.000000000E+00  0.00000E+00  9.000E+00
      25     1     1     2     0     0 -2.271734985E+02  1.144955518E+02  1.152189692E+03  1.186542505E+03  1.250000000E+02  0.00000E+00  9.000E+00
      25     1     1     2     0     0  9.355015709E+01 -6.597405937E+01  2.007931099E+02  2.627681133E+02  1.250000000E+02  0.00000E+00  9.000E+00
       2     1     1     2   501     0  1.336233414E+02 -4.852149246E+01  2.118503745E+03  2.123268153E+03  4.315837288E-05  0.00000E+00  9.000E+00
#rwgt            2          18   1.3370018997402192E-003           4       92720           0
</event>
<event>
      5   9999  3.19816E-02  4.96425E+01 -1.00000E+00  1.39254E-01
      21    -1     0     0   511   501  0.000000000E+00  0.000000000E+00  2.533366373E+02  2.533366373E+02  0.000000000E+00  0.00000E+00  9.000E+00
      21    -1     0     0   501   502  0.000000000E+00  0.000000000E+00 -4.545730703E+02  4.545730703E+02  0.000000000E+00  0.00000E+00  9.000E+00
      25     1     1     2     0     0 -1.530098802E+02 -4.604250728E+00 -3.544459675E+02  4.058203623E+02  1.250000000E+02  0.00000E+00  9.000E+00
      25     1     1     2     0     0  1.484190763E+02  5.403407214E+01  1.521539208E+02  2.524355736E+02  1.250000000E+02  0.00000E+00  9.000E+00
      21     1     1     2   511   502  4.590803848E+00 -4.942982142E+01  1.055613609E+00  4.965377171E+01  7.989857565E-07  0.00000E+00  9.000E+00
#rwgt            1           1   3.2949652166528051E-002           4       92754           0
</event>
<event>
      5   9999  3.19816E-02  1.09455E+01 -1.00000E+00  1.91328E-01
      21    -1     0     0   502   512  0.000000000E+00  0.000000000E+00  4.484416742E+02  4.484416742E+02  0.000000000E+00  0.00000E+00  9.000E+00
      21    -1     0     0   501   502  0.000000000E+00  0.000000000E+00 -1.402447523E+02  1.402447523E+02  0.000000000E+00  0.00000E+00  9.000E+00
      25     1     1     2     0     0  3.626050196E+00  3.299138772E+01  2.627177150E+02  2.928261902E+02  1.250000000E+02  0.00000E+00  9.000E+00
      25     1     1     2     0     0 -5.793510907E+00 -4.372012583E+01 -8.982090705E+01  1.601181111E+02  1.250000000E+02  0.00000E+00  9.000E+00
      21     1     1     2   501   512  2.167460711E+00  1.072873811E+01  1.353001140E+02  1.357421252E+02  1.907348633E-06  0.00000E+00  9.000E+00
#rwgt            1           1   3.2750589161973050E-002           4       92870           0
</event>
<event>
      5   9999  3.19816E-02  1.65777E+01 -1.00000E+00  1.73387E-01
      21    -1     0     0   511   501  0.000000000E+00  0.000000000E+00  2.487430138E+01  2.487430138E+01  0.000000000E+00  0.00000E+00  9.000E+00
      21    -1     0     0   501   502  0.000000000E+00  0.000000000E+00 -9.530843967E+02  9.530843967E+02  0.000000000E+00  0.00000E+00  9.000E+00
      25     1     1     2     0     0  3.497779461E+01  6.075946088E+01 -5.415763884E+02  5.602188346E+02  1.250000000E+02  0.00000E+00  9.000E+00
      25     1     1     2     0     0 -2.681812339E+01 -4.632892568E+01 -3.702560706E+02  3.944364828E+02  1.250000000E+02  0.00000E+00  9.000E+00
      21     1     1     2   511   502 -8.159671219E+00 -1.443053521E+01 -1.637763629E+01  2.330338068E+01  6.307962682E-07  0.00000E+00  9.000E+00
#rwgt            1           1   2.5207576806613272E-002           4       93050           0
</event>
<event>
      5   9999  3.19816E-02  2.21702E+01 -1.00000E+00  1.62760E-01
      21    -1     0     0   502   501  0.000000000E+00  0.000000000E+00  1.148336623E+02  1.148336623E+02  0.000000000E+00  0.00000E+00  9.000E+00
       1    -1     0     0   501     0  0.000000000E+00  0.000000000E+00 -8.650343148E+02  8.650343148E+02  0.000000000E+00  0.00000E+00  9.000E+00
      25     1     1     2     0     0  1.665625203E+02  7.667129378E+00 -5.821490529E+01  2.163696680E+02  1.250000000E+02  0.00000E+00  9.000E+00
      25     1     1     2     0     0 -1.808580356E+02  9.278557305E+00 -3.061488410E+02  3.770249773E+02  1.250000000E+02  0.00000E+00  9.000E+00
       1     1     1     2   502     0  1.429551535E+01 -1.694568668E+01 -3.858369061E+02  3.864733318E+02  5.394796609E-06  0.00000E+00  9.000E+00
#rwgt            1           1   2.6264891077940427E-002           4       93160           0
</event>
<event>
      5   9999  3.19816E-02  7.88489E+01 -1.00000E+00  1.28655E-01
      21    -1     0     0   511   501  0.000000000E+00  0.000000000E+00  1.090102303E+03  1.090102303E+03  0.000000000E+00  0.00000E+00  9.000E+00
      21    -1     0     0   501   502  0.000000000E+00  0.000000000E+00 -5.882869403E+02  5.882869403E+02  0.000000000E+00  0.00000E+00  9.000E+00
      25     1     1     2     0     0 -4.626716269E+02  3.918858185E+02 -1.789619898E+02  6.444314726E+02  1.250000000E+02  0.00000E+00  9.000E+00
      25     1     1     2     0     0  5.112659911E+02 -4.539804277E+02  5.753055220E+02  9.022707941E+02  1.250000000E+02  0.00000E+00  9.000E+00
      21     1     1     2   511   502 -4.859436420E+01  6.209460920E+01  1.054718303E+02  1.316869762E+02  1.907348633E-06  0.00000E+00  9.000E+00
#rwgt            1           1   2.4715724088785574E-002           4       93261           0
</event>
<event>
      5   9999  3.19816E-02  7.62520E+02 -1.00000E+00  9.39098E-02
      21    -1     0     0   502   501  0.000000000E+00  0.000000000E+00  6.777736063E+02  6.777736063E+02  0.000000000E+00  0.00000E+00  9.000E+00
       1    -1     0     0   501     0  0.000000000E+00  0.000000000E+00 -1.189405548E+03  1.189405548E+03  0.000000000E+00  0.00000E+00  9.000E+00
      25     1     1     2     0     0  7.917804463E+02  2.237511107E+01 -6.125029504E+01  8.042347414E+02  1.250000000E+02  0.00000E+00  9.000E+00
      25     1     1     2     0     0 -4.869891540E+01  1.486993839E+02 -9.661672290E+01  2.223575550E+02  1.250000000E+02  0.00000E+00  9.000E+00
       1     1     1     2   502     0 -7.430815309E+02 -1.710744950E+02 -3.537649239E+02  8.405868579E+02  1.829464540E-05  0.00000E+00  9.000E+00
#rwgt            2          12   3.8076589791084272E-004           4       93571           0
</event>
<event>
      5   9999  3.19816E-02  3.02482E+01 -1.00000E+00  1.52792E-01
      21    -1     0     0   511   501  0.000000000E+00  0.000000000E+00  3.617601004E+02  3.617601004E+02  0.000000000E+00  0.00000E+00  9.000E+00
      21    -1     0     0   501   502  0.000000000E+00  0.000000000E+00 -4.344161891E+02  4.344161891E+02  0.000000000E+00  0.00000E+00  9.000E+00
      25     1     1     2     0     0 -1.547296299E+02  3.168226442E+02 -1.004553788E+02  3.873423930E+02  1.250000000E+02  0.00000E+00  9.000E+00
      25     1     1     2     0     0  1.252119130E+02 -3.234301343E+02  1.364508313E+00  3.686623615E+02  1.250000000E+02  0.00000E+00  9.000E+00
      21     1     1     2   511   502  2.951771691E+01  6.607490066E+00  2.643478180E+01  4.017153501E+01  4.768371582E-07  0.00000E+00  9.000E+00
#rwgt            1           1   3.0425850031475736E-002           4       93590           0
</event>
<event>
      5   9999  3.19816E-02  1.54890E+01 -1.00000E+00  1.76081E-01
      21    -1     0     0   502   501  0.000000000E+00  0.000000000E+00  7.423992080E+02  7.423992080E+02  0.000000000E+00  0.00000E+00  9.000E+00
      21    -1     0     0   512   502  0.000000000E+00  0.000000000E+00 -2.801462732E+02  2.801462732E+02  0.000000000E+00  0.00000E+00  9.000E+00
      25     1     1     2     0     0 -2.673521600E+02 -1.543868402E+02 -8.951800920E+01  3.448926614E+02  1.250000000E+02  0.00000E+00  9.000E+00
      25     1     1     2     0     0  2.581656561E+02  1.419161607E+02  5.700237546E+02  6.537138391E+02  1.250000000E+02  0.00000E+00  9.000E+00
      21     1     1     2   512   501  9.186503902E+00  1.247067955E+01 -1.825281056E+01  2.393898067E+01  4.129530925E-07  0.00000E+00  9.000E+00
#rwgt            1           1   3.0276313933793656E-002           4       93675           0
</event>
<event>
      5   9999  3.19816E-02  2.41768E+02 -1.00000E+00  1.08729E-01
      21    -1     0     0   502   501  0.000000000E+00  0.000000000E+00  1.401198894E+02  1.401198894E+02  0.000000000E+00  0.00000E+00  9.000E+00
      21    -1     0     0   501   511  0.000000000E+00  0.000000000E+00 -1.464117427E+03  1.464117427E+03  0.000000000E+00  0.00000E+00  9.000E+00
      25     1     1     2     0     0  2.031023476E+01  3.533486770E+02 -5.884754934E+02  6.979944122E+02  1.250000000E+02  0.00000E+00  9.000E+00
      25     1     1     2     0     0 -1.759259744E+02 -1.683199245E+02 -2.861729786E+02  3.959817156E+02  1.250000000E+02  0.00000E+00  9.000E+00
      21     1     1     2   502   511  1.556157396E+02 -1.850287525E+02 -4.493490654E+02  5.102611883E+02  5.394796609E-06  0.00000E+00  9.000E+00
#rwgt            1           1   2.8043069560005848E-002           4       93862           0
</event>
<event>
      5   9999  3.19816E-02  6.24600E+01 -1.00000E+00  1.33777E-01
      21    -1     0     0   502   512  0.000000000E+00  0.000000000E+00  4.925531567E+02  4.925531567E+02  0.000000000E+00  0.00000E+00  9.000E+00
      21    -1     0     0   501   502  0.000000000E+00  0.000000000E+00 -9.521555668E+02  9.521555668E+02  0.000000000E+00  0.00000E+00  9.000E+00
      25     1     1     2     0     0  5.895911038E+02  2.418811479E+02 -3.868974428E+02  7.559357054E+02  1.250000000E+02  0.00000E+00  9.000E+00
      25     1     1     2     0     0 -5.458461287E+02 -1.972983223E+02 -1.256798151E+02  6.068731665E+02  1.250000000E+02  0.00000E+00  9.000E+00
      21     1     1     2   501   512 -4.374497509E+01 -4.458282557E+01  5.297484795E+01  8.189985163E+01  6.743495762E-07  0.00000E+00  9.000E+00
#rwgt            1           1   2.3614300406307874E-002           4       93896           0
</event>
<event>
      5   9999  3.19816E-02  3.84603E+01 -1.00000E+00  1.45905E-01
      21    -1     0     0   511   501  0.000000000E+00  0.000000000E+00  3.079850335E+02  3.079850335E+02  0.000000000E+00  0.00000E+00  9.000E+00
      21    -1     0     0   501   502  0.000000000E+00  0.000000000E+00 -1.025757043E+02  1.025757043E+02  0.000000000E+00  0.00000E+00  9.000E+00
      25     1     1     2     0     0 -2.963788059E+01 -4.859641621E+01  5.557375704E+01  1.481669940E+02  1.250000000E+02  0.00000E+00  9.000E+00
      25     1     1     2     0     0  9.851441939E+00  8.157658189E+01  5.384429696E+01  1.589842695E+02  1.250000000E+02  0.00000E+00  9.000E+00
      21     1     1     2   511   502  1.978643866E+01 -3.298016568E+01  9.599127518E+01  1.034094744E+02  1.348699152E-06  0.00000E+00  9.000E+00
#rwgt            1           1   1.9330355407464212E-002           4       93978           0
</event>
<event>
      5   9999  3.19816E-02  2.85513E+01 -1.00000E+00  1.54548E-01
      21    -1     0     0   502   501  0.000000000E+00  0.000000000E+00  9.041434253E+02  9.041434253E+02  0.000000000E+00  0.00000E+00  9.000E+00
       2    -1     0     0   501     0  0.000000000E+00  0.000000000E+00 -2.728410853E+03  2.728410853E+03  0.000000000E+00  0.00000E+00  9.000E+00
      25     1     1     2     0     0  9.005485510E+02 -4.600028150E+02 -4.256042927E+02  1.104243767E+03  1.250000000E+02  0.00000E+00  9.000E+00
      25     1     1     2     0     0 -8.721549267E+02  4.570065431E+02  1.285510733E+02  1.000829444E+03  1.250000000E+02  0.00000E+00  9.000E+00
       2     1     1     2   502     0 -2.839362428E+01  2.996271860E+00 -1.527214208E+03  1.527481068E+03  2.157918644E-05  0.00000E+00  9.000E+00
#rwgt            1           1   3.3254882662424386E-002           4       94041           0
</event>
<event>
      5   9999  3.19816E-02  2.03115E+00 -1.00000E+00  3.59969E-01
      21    -1     0     0   511   501  0.000000000E+00  0.000000000E+00  2.214045045E+02  2.214045045E+02  0.000000000E+00  0.00000E+00  9.000E+00
      21    -1     0     0   501   502  0.000000000E+00  0.000000000E+00 -1.601896517E+03  1.601896517E+03  0.000000000E+00  0.00000E+00  9.000E+00
      25     1     1     2     0     0 -3.255323797E+02 -3.600698694E+02 -4.909450192E+02  7.016221583E+02  1.250000000E+02  0.00000E+00  9.000E+00
      25     1     1     2     0     0  3.266030382E+02  3.583438174E+02 -9.432661703E+02  1.067921300E+03  1.250000000E+02  0.00000E+00  9.000E+00
      21     1     1     2   511   502 -1.070658489E+00  1.726051994E+00  5.371917700E+01  5.375756266E+01  9.536743164E-07  0.00000E+00  9.000E+00
#rwgt            1           1   2.7651737152089885E-002           4       94269           0
</event>
<event>
      5   9999  3.19816E-02  1.17877E+01 -1.00000E+00  1.87847E-01
      21    -1     0     0   502   512  0.000000000E+00  0.000000000E+00  7.134613807E+02  7.134613807E+02  0.000000000E+00  0.00000E+00  9.000E+00
      21    -1     0     0   501   502  0.000000000E+00  0.000000000E+00 -3.208443674E+02  3.208443674E+02  0.000000000E+00  0.00000E+00  9.000E+00
      25     1     1     2     0     0 -1.046484239E+02 -8.193325541E+01  6.301957525E+02  6.560762436E+02  1.250000000E+02  0.00000E+00  9.000E+00
      25     1     1     2     0     0  9.375179961E+01  7.743737021E+01 -2.823886982E+02  3.318950483E+02  1.250000000E+02  0.00000E+00  9.000E+00
      21     1     1     2   501   512  1.089662426E+01  4.495885201E+00  4.480995901E+01  4.633445619E+01  4.768371582E-07  0.00000E+00  9.000E+00
#rwgt            1           1   2.5752628766189108E-002           4       94969           0
</event>
<event>
      5   9999  3.19816E-02  6.69036E+01 -1.00000E+00  1.32224E-01
      21    -1     0     0   502   501  0.000000000E+00  0.000000000E+00  4.656022730E+02  4.656022730E+02  0.000000000E+00  0.00000E+00  9.000E+00
      21    -1     0     0   501   511  0.000000000E+00  0.000000000E+00 -2.177152884E+02  2.177152884E+02  0.000000000E+00  0.00000E+00  9.000E+00
      25     1     1     2     0     0 -2.004268068E+02  9.626503741E+00  2.952434755E+02  3.782291426E+02  1.250000000E+02  0.00000E+00  9.000E+00
      25     1     1     2     0     0  1.383058049E+02 -3.446738330E+01  4.129185634E+01  1.940270950E+02  1.250000000E+02  0.00000E+00  9.000E+00
      21     1     1     2   502   511  6.212100190E+01  2.484087956E+01 -8.864834728E+01  1.110613238E+02  1.651812370E-06  0.00000E+00  9.000E+00
#rwgt            1           1   2.4286881371765962E-002           4       95175           0
</event>
<event>
      5   9999  3.19816E-02  1.37101E+02 -1.00000E+00  1.17963E-01
      21    -1     0     0   512   501  0.000000000E+00  0.000000000E+00  1.275493828E+03  1.275493828E+03  0.000000000E+00  0.00000E+00  9.000E+00
      21    -1     0     0   501   502  0.000000000E+00  0.000000000E+00 -3.594277812E+02  3.594277812E+02  0.000000000E+00  0.00000E+00  9.000E+00
      25     1     1     2     0     0  2.765597613E+01 -2.246113607E+02 -2.469786368E+02  3.575451907E+02  1.250000000E+02  0.00000E+00  9.000E+00
      25     1     1     2     0     0  5.893757202E+00  9.167876492E+01  6.076736185E+01  1.666055359E+02  1.250000000E+02  0.00000E+00  9.000E+00
      21     1     1     2   512   502 -3.354973333E+01  1.329325958E+02  1.102277322E+03  1.110770883E+03  1.525878906E-05  0.00000E+00  9.000E+00
#rwgt            1           1   2.8496088245855734E-002           4       95293           0
</event>
<event>
      5   9999  3.19816E-02  6.29296E+01 -1.00000E+00  1.33606E-01
      21    -1     0     0   502   501  0.000000000E+00  0.000000000E+00  9.684926248E+02  9.684926248E+02  0.000000000E+00  0.00000E+00  9.000E+00
      21    -1     0     0   501   511  0.000000000E+00  0.000000000E+00 -2.563607860E+02  2.563607860E+02  0.000000000E+00  0.00000E+00  9.000E+00
      25     1     1     2     0     0  2.029419510E+02 -6.265232482E+01 -1.156673678E+02  2.722401316E+02  1.250000000E+02  0.00000E+00  9.000E+00
      25     1     1     2     0     0 -2.513428037E+02  2.243428961E+01  8.422205958E+02  8.880523827E+02  1.250000000E+02  0.00000E+00  9.000E+00
      21     1     1     2   502   511  4.840085267E+01  4.021803520E+01 -1.442138921E+01  6.456089654E+01  1.420542632E-06  0.00000E+00  9.000E+00
#rwgt            1           1   2.9194635302894362E-002           4       95362           0
</event>
<event>
      5   9999  3.19816E-02  1.88508E+02 -1.00000E+00  1.12592E-01
      21    -1     0     0   512   501  0.000000000E+00  0.000000000E+00  3.349249696E+02  3.349249696E+02  0.000000000E+00  0.00000E+00  9.000E+00
      21    -1     0     0   501   502  0.000000000E+00  0.000000000E+00 -6.531898995E+02  6.531898995E+02  0.000000000E+00  0.00000E+00  9.000E+00
      25     1     1     2     0     0 -5.275937855E+01 -7.044816938E+00 -4.740760537E+02  4.931594936E+02  1.250000000E+02  0.00000E+00  9.000E+00
      25     1     1     2     0     0  2.335499914E+02  6.042951000E+01  4.248155559E+01  2.750036486E+02  1.250000000E+02  0.00000E+00  9.000E+00
      21     1     1     2   512   502 -1.807906129E+02 -5.338469307E+01  1.133295682E+02  2.199517269E+02  2.697398305E-06  0.00000E+00  9.000E+00
#rwgt            2          11   3.6759609505518077E-003           4       95493           0
</event>
<event>
      5   9999  3.19816E-02  1.40245E+02 -1.00000E+00  1.17563E-01
      21    -1     0     0   502   501  0.000000000E+00  0.000000000E+00  2.010088639E+03  2.010088639E+03  0.000000000E+00  0.00000E+00  9.000E+00
       2    -1     0     0   501     0  0.000000000E+00  0.000000000E+00 -1.467765479E+03  1.467765479E+03  0.000000000E+00  0.00000E+00  9.000E+00
      25     1     1     2     0     0 -1.526012581E+02  7.820581209E+01  1.044609248E+03  1.065944076E+03  1.250000000E+02  0.00000E+00  9.000E+00
      25     1     1     2     0     0  6.274250356E+01 -1.858819430E+02  9.371846409E+02  9.656235134E+02  1.250000000E+02  0.00000E+00  9.000E+00
       2     1     1     2   502     0  8.985875457E+01  1.076761309E+02 -1.439470729E+03  1.446286529E+03  2.157918644E-05  0.00000E+00  9.000E+00
#rwgt            1           1   9.0798182102990219E-002           4       95513           0
</event>
<event>
      5   9999  3.19816E-02  1.63687E+02 -1.00000E+00  1.14910E-01
       4    -1     0     0   502     0  0.000000000E+00  0.000000000E+00  4.433847427E+02  4.433847427E+02  0.000000000E+00  0.00000E+00  9.000E+00
      21    -1     0     0   501   502  0.000000000E+00  0.000000000E+00 -5.648128531E+02  5.648128531E+02  0.000000000E+00  0.00000E+00  9.000E+00
      25     1     1     2     0     0 -8.043986358E+01 -6.814058122E+00  7.000364251E+01  1.644460793E+02  1.250000000E+02  0.00000E+00  9.000E+00
      25     1     1     2     0     0  1.896359178E+02 -1.151265931E+02 -4.619975901E+02  5.275250581E+02  1.250000000E+02  0.00000E+00  9.000E+00
       4     1     1     2   501     0 -1.091960542E+02  1.219406512E+02  2.705658372E+02  3.162264583E+02  3.814697266E-06  0.00000E+00  9.000E+00
#rwgt            2          20   6.2381274885704515E-005           4       95602           0
</event>
<event>
      5   9999  3.19816E-02  1.34258E+02 -1.00000E+00  1.18334E-01
       2    -1     0     0   502     0  0.000000000E+00  0.000000000E+00  2.709787990E+03  2.709787990E+03  0.000000000E+00  0.00000E+00  9.000E+00
      21    -1     0     0   501   502  0.000000000E+00  0.000000000E+00 -9.056452758E+01  9.056452758E+01  0.000000000E+00  0.00000E+00  9.000E+00
      25     1     1     2     0     0  1.823841523E+02 -1.093029218E+02  1.712788758E+03  1.730457002E+03  1.250000000E+02  0.00000E+00  9.000E+00
      25     1     1     2     0     0 -5.347790366E+01  1.468324104E+02  5.443609593E+01  2.073835371E+02  1.250000000E+02  0.00000E+00  9.000E+00
       2     1     1     2   501     0 -1.289062486E+02 -3.752948853E+01  8.519986086E+02  8.625119782E+02  1.078959322E-05  0.00000E+00  9.000E+00
#rwgt            1           1   4.3429047840089455E-002           4       95621           0
</event>
<event>
      5   9999  3.19816E-02  2.15618E+02 -1.00000E+00  1.10472E-01
       4    -1     0     0   502     0  0.000000000E+00  0.000000000E+00  4.322054220E+02  4.322054220E+02  0.000000000E+00  0.00000E+00  9.000E+00
      21    -1     0     0   501   502  0.000000000E+00  0.000000000E+00 -2.886801658E+02  2.886801658E+02  0.000000000E+00  0.00000E+00  9.000E+00
      25     1     1     2     0     0  1.012603707E+02 -1.241723149E+01  2.010480819E+02  2.577851461E+02  1.250000000E+02  0.00000E+00  9.000E+00
      25     1     1     2     0     0 -1.058336002E+01  2.080417020E+02 -1.554407857E+01  2.434337192E+02  1.250000000E+02  0.00000E+00  9.000E+00
       4     1     1     2   501     0 -9.067701067E+01 -1.956244705E+02 -4.197874707E+01  2.196667224E+02  3.053247565E-06  0.00000E+00  9.000E+00
#rwgt            1           1   3.2524716906065274E-002           4       95675           0
</event>
<event>
      5   9999  3.19816E-02  7.91330E+01 -1.00000E+00  1.28579E-01
      21    -1     0     0   511   501  0.000000000E+00  0.000000000E+00  1.414335477E+02  1.414335477E+02  0.000000000E+00  0.00000E+00  9.000E+00
      21    -1     0     0   501   502  0.000000000E+00  0.000000000E+00 -3.001917365E+03  3.001917365E+03  0.000000000E+00  0.00000E+00  9.000E+00
      25     1     1     2     0     0  3.315165756E+02 -2.463275261E+02 -1.087639729E+03  1.170113529E+03  1.250000000E+02  0.00000E+00  9.000E+00
      25     1     1     2     0     0 -3.518199203E+02  1.698434850E+02 -1.830137837E+03  1.875540874E+03  1.250000000E+02  0.00000E+00  9.000E+00
      21     1     1     2   511   502  2.030334470E+01  7.648404108E+01  5.729374928E+01  9.769650994E+01  0.000000000E+00  0.00000E+00  9.000E+00
#rwgt            1           1   4.1172457830944323E-002           4       95724           0
</event>
<event>
      5   9999  3.19816E-02  1.25253E+02 -1.00000E+00  1.19584E-01
      21    -1     0     0   502   501  0.000000000E+00  0.000000000E+00  5.739816516E+02  5.739816516E+02  0.000000000E+00  0.00000E+00  9.000E+00
       2    -1     0     0   501     0  0.000000000E+00  0.000000000E+00 -8.570523607E+02  8.570523607E+02  0.000000000E+00  0.00000E+00  9.000E+00
      25     1     1     2     0     0 -9.222307324E+00 -4.374813737E+01  5.325157937E+02  5.488141954E+02  1.250000000E+02  0.00000E+00  9.000E+00
      25     1     1     2     0     0  4.194972865E+01  1.646501289E+02 -4.985384502E+02  5.413271017E+02  1.250000000E+02  0.00000E+00  9.000E+00
       2     1     1     2   502     0 -3.272742132E+01 -1.209019915E+02 -3.170480526E+02  3.408927152E+02  0.000000000E+00  0.00000E+00  9.000E+00
#rwgt            1           1   3.2715433909273832E-002           4       95798           0
</event>
<event>
      5   9999  3.19816E-02  4.01659E+02 -1.00000E+00  1.01631E-01
      21    -1     0     0   502   501  0.000000000E+00  0.000000000E+00  1.278616338E+03  1.278616338E+03  0.000000000E+00  0.00000E+00  9.000E+00
       2    -1     0     0   501     0  0.000000000E+00  0.000000000E+00 -4.374529468E+02  4.374529468E+02  0.000000000E+00  0.00000E+00  9.000E+00
      25     1     1     2     0     0  3.621429461E+02  1.603954855E+02  6.472789206E+02  7.690703650E+02  1.250000000E+02  0.00000E+00  9.000E+00
      25     1     1     2     0     0  3.844721485E+01 -1.896729750E+02  4.251194837E+02  4.835344881E+02  1.250000000E+02  0.00000E+00  9.000E+00
       2     1     1     2   502     0 -4.005901610E+02  2.927748952E+01 -2.312350129E+02  4.634644319E+02  3.814697266E-06  0.00000E+00  9.000E+00
#rwgt            1           1   2.8026820194087657E-002           4       95878           0
</event>
<event>
      5   9999  3.19816E-02  8.31107E+01 -1.00000E+00  1.27553E-01
      21    -1     0     0   502   511  0.000000000E+00  0.000000000E+00  6.359470858E+02  6.359470858E+02  0.000000000E+00  0.00000E+00  9.000E+00
      21    -1     0     0   501   502  0.000000000E+00  0.000000000E+00 -1.218926304E+03  1.218926304E+03  0.000000000E+00  0.00000E+00  9.000E+00
      25     1     1     2     0     0  2.912405880E+02  9.946220584E+01  4.908274786E+02  5.926638375E+02  1.250000000E+02  0.00000E+00  9.000E+00
      25     1     1     2     0     0 -3.578968250E+02 -1.491042405E+02 -1.101652949E+03  1.174557973E+03  1.250000000E+02  0.00000E+00  9.000E+00
      21     1     1     2   501   511  6.665623701E+01  4.964203462E+01  2.784625242E+01  8.765157904E+01  1.011524364E-06  0.00000E+00  9.000E+00
#rwgt            1           1   3.2222456039904507E-002           4       95922           0
</event>
<event>
      5   9999  3.19816E-02  1.24822E+02 -1.00000E+00  1.19646E-01
      21    -1     0     0   502   501  0.000000000E+00  0.000000000E+00  7.686150422E+01  7.686150422E+01  0.000000000E+00  0.00000E+00  9.000E+00
       1    -1     0     0   501     0  0.000000000E+00  0.000000000E+00 -1.113963384E+03  1.113963384E+03  0.000000000E+00  0.00000E+00  9.000E+00
      25     1     1     2     0     0 -7.875325409E+01  1.446303965E+02 -2.344583239E+02  3.125951571E+02  1.250000000E+02  0.00000E+00  9.000E+00
      25     1     1     2     0     0 -1.910416042E+01 -6.714142415E+01 -1.277183810E+02  1.918591270E+02  1.250000000E+02  0.00000E+00  9.000E+00
       1     1     1     2   502     0  9.785741450E+01 -7.748897232E+01 -6.749251747E+02  6.863706038E+02  0.000000000E+00  0.00000E+00  9.000E+00
#rwgt            1           1   2.7534844937330605E-002           4       96020           0
</event>
<event>
      5   9999  3.19816E-02  1.15520E+02 -1.00000E+00  1.21074E-01
      21    -1     0     0   502   501  0.000000000E+00  0.000000000E+00  8.594285802E+02  8.594285802E+02  0.000000000E+00  0.00000E+00  9.000E+00
       2    -1     0     0   501     0  0.000000000E+00  0.000000000E+00 -6.753182444E+02  6.753182444E+02  0.000000000E+00  0.00000E+00  9.000E+00
      25     1     1     2     0     0 -4.653889225E+02 -1.942020913E+02  4.366590687E+02  6.786732967E+02  1.250000000E+02  0.00000E+00  9.000E+00
      25     1     1     2     0     0  5.070068964E+02  8.643942405E+01  5.055382675E+01  5.317033538E+02  1.250000000E+02  0.00000E+00  9.000E+00
       2     1     1     2   502     0 -4.161797392E+01  1.077626672E+02 -3.031025596E+02  3.243701741E+02  3.814697266E-06  0.00000E+00  9.000E+00
#rwgt            1           1   2.2857218653551847E-002           4       96080           0
</event>
<event>
      5   9999  3.19816E-02  1.35628E+02 -1.00000E+00  1.18154E-01
      21    -1     0     0   502   511  0.000000000E+00  0.000000000E+00  3.829489784E+02  3.829489784E+02  0.000000000E+00  0.00000E+00  9.000E+00
      21    -1     0     0   501   502  0.000000000E+00  0.000000000E+00 -1.343943797E+03  1.343943797E+03  0.000000000E+00  0.00000E+00  9.000E+00
      25     1     1     2     0     0  5.588564520E+02  6.401915640E+01 -4.608071603E+02  7.378260129E+02  1.250000000E+02  0.00000E+00  9.000E+00
      25     1     1     2     0     0 -6.770670083E+02  2.472755797E+00 -5.041888889E+02  8.533799177E+02  1.250000000E+02  0.00000E+00  9.000E+00
      21     1     1     2   501   511  1.182105562E+02 -6.649191220E+01  4.001230573E+00  1.356868448E+02  1.435469935E-06  0.00000E+00  9.000E+00
#rwgt            1           1   3.0374659819040192E-002           4       96190           0
</event>
<event>
      5   9999  3.19816E-02  1.11655E+01 -1.00000E+00  1.90381E-01
      21    -1     0     0   502   501  0.000000000E+00  0.000000000E+00  9.994191414E+02  9.994191414E+02  0.000000000E+00  0.00000E+00  9.000E+00
      21    -1     0     0   512   502  0.000000000E+00  0.000000000E+00 -1.069684405E+02  1.069684405E+02  0.000000000E+00  0.00000E+00  9.000E+00
      25     1     1     2     0     0 -9.391776902E+01  8.515084175E+01  5.940453225E+02  6.201500289E+02  1.250000000E+02  0.00000E+00  9.000E+00
      25     1     1     2     0     0  8.875758705E+01 -9.505239023E+01  3.711387239E+02  4.126521762E+02  1.250000000E+02  0.00000E+00  9.000E+00
      21     1     1     2   512   501  5.160181969E+00  9.901548482E+00 -7.273334541E+01  7.358537677E+01  1.348699152E-06  0.00000E+00  9.000E+00
#rwgt            1           1   2.9946530632432113E-002           4       96251           0
</event>
<event>
      5   9999  3.19816E-02  1.90290E+02 -1.00000E+00  1.12441E-01
      21    -1     0     0   502   501  0.000000000E+00  0.000000000E+00  2.075659716E+02  2.075659716E+02  0.000000000E+00  0.00000E+00  9.000E+00
      21    -1     0     0   511   502  0.000000000E+00  0.000000000E+00 -4.523785677E+02  4.523785677E+02  0.000000000E+00  0.00000E+00  9.000E+00
      25     1     1     2     0     0 -2.314968492E+02  1.398838574E+01 -2.222834543E+01  2.643966064E+02  1.250000000E+02  0.00000E+00  9.000E+00
      25     1     1     2     0     0  4.637789243E+01  3.007212605E+01 -9.470391869E+01  1.662801067E+02  1.250000000E+02  0.00000E+00  9.000E+00
      21     1     1     2   511   501  1.851189568E+02 -4.406051179E+01 -1.278803319E+02  2.292678262E+02  3.568322551E-06  0.00000E+00  9.000E+00
#rwgt            1           1   2.9793895465837356E-002           4       96422           0
</event>
<event>
      5   9999  3.19816E-02  1.81603E+02 -1.00000E+00  1.13195E-01
      21    -1     0     0   512   501  0.000000000E+00  0.000000000E+00  5.512268294E+02  5.512268294E+02  0.000000000E+00  0.00000E+00  9.000E+00
      21    -1     0     0   501   502  0.000000000E+00  0.000000000E+00 -1.594091386E+03  1.594091386E+03  0.000000000E+00  0.00000E+00  9.000E+00
      25     1     1     2     0     0 -4.336105891E+02  2.473590030E+02  2.100412095E+02  5.558299461E+02  1.250000000E+02  0.00000E+00  9.000E+00
      25     1     1     2     0     0  6.021859527E+02 -3.149008307E+02 -1.224058995E+03  1.405608722E+03  1.250000000E+02  0.00000E+00  9.000E+00
      21     1     1     2   512   502 -1.685753636E+02  6.754182767E+01 -2.884677046E+01  1.838795471E+02  2.261837239E-06  0.00000E+00  9.000E+00
#rwgt            1           1   2.6341220380019435E-002           4       96456           0
</event>
<event>
      5   9999  3.19816E-02  1.77732E+02 -1.00000E+00  1.13547E-01
      21    -1     0     0   511   501  0.000000000E+00  0.000000000E+00  4.396225989E+02  4.396225989E+02  0.000000000E+00  0.00000E+00  9.000E+00
      21    -1     0     0   501   502  0.000000000E+00  0.000000000E+00 -1.747226137E+03  1.747226137E+03  0.000000000E+00  0.00000E+00  9.000E+00
      25     1     1     2     0     0  7.099668091E+01  2.334648764E+02  2.977577150E+02  4.047604651E+02  1.250000000E+02  0.00000E+00  9.000E+00
      25     1     1     2     0     0 -9.287516303E+01 -4.098453183E+02 -1.525471932E+03  1.587226700E+03  1.250000000E+02  0.00000E+00  9.000E+00
      21     1     1     2   511   502  2.187848212E+01  1.763804419E+02 -7.988932103E+01  1.948615710E+02  1.348699152E-06  0.00000E+00  9.000E+00
#rwgt            1           1   2.8766530919290035E-002           4       96557           0
</event>
<event>
      5   9999  3.19816E-02  3.76209E+01 -1.00000E+00  1.46511E-01
      21    -1     0     0   502   501  0.000000000E+00  0.000000000E+00  1.250421818E+02  1.250421818E+02  0.000000000E+00  0.00000E+00  9.000E+00
      21    -1     0     0   512   502  0.000000000E+00  0.000000000E+00 -5.856012430E+02  5.856012430E+02  0.000000000E+00  0.00000E+00  9.000E+00
      25     1     1     2     0     0 -7.463995725E+01  7.657436905E+01  3.659635720E+01  1.685201785E+02  1.250000000E+02  0.00000E+00  9.000E+00
      25     1     1     2     0     0  6.106774571E+01 -1.116617652E+02 -4.021352918E+02  4.399265987E+02  1.250000000E+02  0.00000E+00  9.000E+00
      21     1     1     2   512   501  1.357221154E+01  3.508739614E+01 -9.502012664E+01  1.021966475E+02  1.348699152E-06  0.00000E+00  9.000E+00
#rwgt            1           1   2.6566789257005959E-002           4       96617           0
</event>
<event>
      5   9999  3.19816E-02  1.38762E+02 -1.00000E+00  1.17750E-01
      21    -1     0     0   502   511  0.000000000E+00  0.000000000E+00  9.187692812E+02  9.187692812E+02  0.000000000E+00  0.00000E+00  9.000E+00
      21    -1     0     0   501   502  0.000000000E+00  0.000000000E+00 -6.887444873E+02  6.887444873E+02  0.000000000E+00  0.00000E+00  9.000E+00
      25     1     1     2     0     0  2.907675444E+02  2.319599722E+01 -5.950210876E+02  6.743581495E+02  1.250000000E+02  0.00000E+00  9.000E+00
      25     1     1     2     0     0 -2.268960015E+02  9.999261747E+01  6.689897739E+02  7.243290942E+02  1.250000000E+02  0.00000E+00  9.000E+00
      21     1     1     2   501   511 -6.387154294E+01 -1.231886147E+02  1.560561075E+02  2.088265248E+02  0.000000000E+00  0.00000E+00  9.000E+00
#rwgt            1           1   2.6879709174234309E-002           4       96765           0
</event>
<event>
      5   9999  3.19816E-02  1.33855E+02 -1.00000E+00  1.18388E-01
      21    -1     0     0   502   501  0.000000000E+00  0.000000000E+00  1.822377401E+03  1.822377401E+03  0.000000000E+00  0.00000E+00  9.000E+00
      21    -1     0     0   512   502  0.000000000E+00  0.000000000E+00 -5.428279558E+02  5.428279558E+02  0.000000000E+00  0.00000E+00  9.000E+00
      25     1     1     2     0     0  1.212050095E+02  2.008411443E+02 -4.418186464E+02  5.156127770E+02  1.250000000E+02  0.00000E+00  9.000E+00
      25     1     1     2     0     0 -1.748977602E+02 -7.822702409E+01  1.698453428E+03  1.713790460E+03  1.250000000E+02  0.00000E+00  9.000E+00
      21     1     1     2   512   501  5.369275066E+01 -1.226141202E+02  2.291466372E+01  1.358021199E+02  3.600041597E-06  0.00000E+00  9.000E+00
#rwgt            1           1   3.3786178158875899E-002           4       96844           0
</event>
<event>
      5   9999  3.19816E-02  5.08467E+01 -1.00000E+00  1.38661E-01
      21    -1     0     0   502   501  0.000000000E+00  0.000000000E+00  3.714018163E+02  3.714018163E+02  0.000000000E+00  0.00000E+00  9.000E+00
      21    -1     0     0   511   502  0.000000000E+00  0.000000000E+00 -7.801081861E+02  7.801081861E+02  0.000000000E+00  0.00000E+00  9.000E+00
      25     1     1     2     0     0 -1.820687685E+02 -3.990012870E+02  9.015942648E+01  4.648707193E+02  1.250000000E+02  0.00000E+00  9.000E+00
      25     1     1     2     0     0  1.623108794E+02  3.521503007E+02 -3.790034893E+02  5.564380475E+02  1.250000000E+02  0.00000E+00  9.000E+00
      21     1     1     2   511   501  1.975788917E+01  4.685098630E+01 -1.198623070E+02  1.302012355E+02  1.348699152E-06  0.00000E+00  9.000E+00
#rwgt            2          11   2.5132421675330696E-003           4       97070           0
</event>
<event>
      5   9999  3.19816E-02  1.21383E+02 -1.00000E+00  1.20157E-01
      21    -1     0     0   502   501  0.000000000E+00  0.000000000E+00  5.488874893E+02  5.488874893E+02  0.000000000E+00  0.00000E+00  9.000E+00
      21    -1     0     0   501   512  0.000000000E+00  0.000000000E+00 -3.637238582E+02  3.637238582E+02  0.000000000E+00  0.00000E+00  9.000E+00
      25     1     1     2     0     0  3.013182170E+02 -1.985453258E+00  8.851823993E+01  3.380193615E+02  1.250000000E+02  0.00000E+00  9.000E+00
      25     1     1     2     0     0 -3.722995581E+02  1.004516781E+02  1.622287175E+02  4.366241604E+02  1.250000000E+02  0.00000E+00  9.000E+00
      21     1     1     2   502   512  7.098134113E+01 -9.846622480E+01 -6.558332638E+01  1.379678256E+02  3.015782986E-06  0.00000E+00  9.000E+00
#rwgt            2          11   3.3797275900983676E-003           4       97210           0
</event>
<event>
      5   9999  3.19816E-02  2.78439E+01 -1.00000E+00  1.55324E-01
      21    -1     0     0   502   501  0.000000000E+00  0.000000000E+00  5.924988279E+01  5.924988279E+01  0.000000000E+00  0.00000E+00  9.000E+00
      21    -1     0     0   501   511  0.000000000E+00  0.000000000E+00 -1.634520937E+03  1.634520937E+03  0.000000000E+00  0.00000E+00  9.000E+00
      25     1     1     2     0     0 -3.251112069E+01 -4.202274051E+01 -3.157389706E+01  1.394445935E+02  1.250000000E+02  0.00000E+00  9.000E+00
      25     1     1     2     0     0  1.387609993E+01  2.133409975E+01 -1.470327366E+03  1.475850688E+03  1.250000000E+02  0.00000E+00  9.000E+00
      21     1     1     2   502   511  1.863502076E+01  2.068864075E+01 -7.336979086E+01  7.847553800E+01  0.000000000E+00  0.00000E+00  9.000E+00
#rwgt            1           1   2.6248020529560597E-002           4       97230           0
</event>
<event>
      5   9999  3.19816E-02  3.14680E+02 -1.00000E+00  1.04922E-01
      21    -1     0     0   502   501  0.000000000E+00  0.000000000E+00  3.327576747E+02  3.327576747E+02  0.000000000E+00  0.00000E+00  9.000E+00
      21    -1     0     0   501   512  0.000000000E+00  0.000000000E+00 -1.624836191E+03  1.624836191E+03  0.000000000E+00  0.00000E+00  9.000E+00
      25     1     1     2     0     0  1.800084397E+01  3.769878366E+01  1.709361695E+02  2.158457846E+02  1.250000000E+02  0.00000E+00  9.000E+00
      25     1     1     2     0     0 -2.936865749E+02  1.140277862E+02 -1.156524729E+02  3.581265625E+02  1.250000000E+02  0.00000E+00  9.000E+00
      21     1     1     2   502   512  2.756857309E+02 -1.517265699E+02 -1.347362213E+03  1.383621519E+03  0.000000000E+00  0.00000E+00  9.000E+00
#rwgt            1           1   2.9355975748608504E-002           4       97357           0
</event>
<event>
      5   9999  3.19816E-02  3.77790E+01 -1.00000E+00  1.46396E-01
      21    -1     0     0   511   501  0.000000000E+00  0.000000000E+00  1.041178739E+03  1.041178739E+03  0.000000000E+00  0.00000E+00  9.000E+00
      21    -1     0     0   501   502  0.000000000E+00  0.000000000E+00 -9.052520390E+02  9.052520390E+02  0.000000000E+00  0.00000E+00  9.000E+00
      25     1     1     2     0     0  1.760145614E+01 -3.183633360E+01  1.214883870E+02  1.780668177E+02  1.250000000E+02  0.00000E+00  9.000E+00
      25     1     1     2     0     0 -5.240078077E+01  1.713051362E+01 -8.712369701E+02  8.818832998E+02  1.250000000E+02  0.00000E+00  9.000E+00
      21     1     1     2   511   502  3.479932463E+01  1.470581998E+01  8.856752830E+02  8.864806603E+02  1.078959322E-05  0.00000E+00  9.000E+00
#rwgt            1           1   3.2451567855740514E-002           4       97387           0
</event>
<event>
      5   9999  3.19816E-02  2.48851E+01 -1.00000E+00  1.58901E-01
      21    -1     0     0   502   501  0.000000000E+00  0.000000000E+00  2.343976776E+02  2.343976776E+02  0.000000000E+00  0.00000E+00  9.000E+00
      21    -1     0     0   512   502  0.000000000E+00  0.000000000E+00 -7.631319412E+02  7.631319412E+02  0.000000000E+00  0.00000E+00  9.000E+00
      25     1     1     2     0     0  4.184458938E-01 -1.483374518E+01  2.087913254E+02  2.438012154E+02  1.250000000E+02  0.00000E+00  9.000E+00
      25     1     1     2     0     0 -2.730425841E+00 -9.943723001E+00 -5.261461528E+02  5.408891818E+02  1.250000000E+02  0.00000E+00  9.000E+00
      21     1     1     2   512   501  2.311979948E+00  2.477746818E+01 -2.113794362E+02  2.128392216E+02  2.697398305E-06  0.00000E+00  9.000E+00
#rwgt            1           1   2.4824321567899248E-002           4       97470           0
</event>
<event>
      5   9999  3.19816E-02  7.14867E+01 -1.00000E+00  1.30760E-01
      21    -1     0     0   502   501  0.000000000E+00  0.000000000E+00  5.029616238E+02  5.029616238E+02  0.000000000E+00  0.00000E+00  9.000E+00
      21    -1     0     0   511   502  0.000000000E+00  0.000000000E+00 -7.069615262E+02  7.069615262E+02  0.000000000E+00  0.00000E+00  9.000E+00
      25     1     1     2     0     0  1.974061737E+02 -1.263635785E+02  3.048962775E+02  4.043806269E+02  1.250000000E+02  0.00000E+00  9.000E+00
      25     1     1     2     0     0 -1.538030934E+02  1.830127159E+02  2.124625097E+01  2.706020120E+02  1.250000000E+02  0.00000E+00  9.000E+00
      21     1     1     2   511   501 -4.360308027E+01 -5.664913749E+01 -5.301424309E+02  5.349405111E+02  0.000000000E+00  0.00000E+00  9.000E+00
#rwgt            1           1   2.9325872852536742E-002           4       97650           0
</event>
<event>
      5   9999  3.19816E-02  3.33816E+01 -1.00000E+00  1.49886E-01
      21    -1     0     0   512   501  0.000000000E+00  0.000000000E+00  4.009219859E+02  4.009219859E+02  0.000000000E+00  0.00000E+00  9.000E+00
      21    -1     0     0   501   502  0.000000000E+00  0.000000000E+00 -2.177638531E+02  2.177638531E+02  0.000000000E+00  0.00000E+00  9.000E+00
      25     1     1     2     0     0 -5.288486661E+01  1.323651625E+02  1.888229297E+02  2.675751187E+02  1.250000000E+02  0.00000E+00  9.000E+00
      25     1     1     2     0     0  8.418923835E+01 -1.439568210E+02 -1.141351926E+02  2.376199410E+02  1.250000000E+02  0.00000E+00  9.000E+00
      21     1     1     2   512   502 -3.130437174E+01  1.159165845E+01  1.084703958E+02  1.134907793E+02  0.000000000E+00  0.00000E+00  9.000E+00
#rwgt            1           1   2.6496212614592164E-002           4       97726           0
</event>
<event>
      5   9999  3.19816E-02  5.05995E+01 -1.00000E+00  1.38781E-01
      21    -1     0     0   502   501  0.000000000E+00  0.000000000E+00  2.969050289E+02  2.969050289E+02  0.000000000E+00  0.00000E+00  9.000E+00
      21    -1     0     0   511   502  0.000000000E+00  0.000000000E+00 -4.360043279E+02  4.360043279E+02  0.000000000E+00  0.00000E+00  9.000E+00
      25     1     1     2     0     0  2.169261886E+02  2.618418197E+01  3.290812592E+01  2.538710843E+02  1.250000000E+02  0.00000E+00  9.000E+00
      25     1     1     2     0     0 -2.537526323E+02  8.516223591E+00  1.687010496E+01  2.835004848E+02  1.250000000E+02  0.00000E+00  9.000E+00
      21     1     1     2   511   501  3.682644363E+01 -3.470040556E+01 -1.888775299E+02  1.955377877E+02  3.814697266E-06  0.00000E+00  9.000E+00
#rwgt            1           1   2.7569119282156999E-002           4       97859           0
</event>
<event>
      5   9999  3.19816E-02  8.55580E+00 -1.00000E+00  2.03928E-01
      21    -1     0     0   502   512  0.000000000E+00  0.000000000E+00  5.989412795E+02  5.989412795E+02  0.000000000E+00  0.00000E+00  9.000E+00
      21    -1     0     0   501   502  0.000000000E+00  0.000000000E+00 -3.303381846E+02  3.303381846E+02  0.000000000E+00  0.00000E+00  9.000E+00
      25     1     1     2     0     0  1.573203761E+02 -2.546282508E+01 -2.778042223E+02  3.437997122E+02  1.250000000E+02  0.00000E+00  9.000E+00
      25     1     1     2     0     0 -1.569197271E+02  1.691640679E+01  5.304578287E+02  5.673803606E+02  1.250000000E+02  0.00000E+00  9.000E+00
      21     1     1     2   501   512 -4.006489733E-01  8.546418285E+00  1.594948843E+01  1.809939132E+01  0.000000000E+00  0.00000E+00  9.000E+00
#rwgt            1           1   2.7515520100540741E-002           4       97949           0
</event>
<event>
      5   9999  3.19816E-02  4.35140E+01 -1.00000E+00  1.42608E-01
      21    -1     0     0   511   501  0.000000000E+00  0.000000000E+00  9.246196082E+02  9.246196082E+02  0.000000000E+00  0.00000E+00  9.000E+00
      21    -1     0     0   501   502  0.000000000E+00  0.000000000E+00 -1.341024875E+02  1.341024875E+02  0.000000000E+00  0.00000E+00  9.000E+00
      25     1     1     2     0     0  2.472226687E+02 -6.572631934E+01  5.564391475E+02  6.250508154E+02  1.250000000E+02  0.00000E+00  9.000E+00
      25     1     1     2     0     0 -2.558641401E+02  1.083735946E+02  1.513797396E+02  3.402236320E+02  1.250000000E+02  0.00000E+00  9.000E+00
      21     1     1     2   511   502  8.641471450E+00 -4.264727530E+01  8.269823364E+01  9.344764827E+01  1.348699152E-06  0.00000E+00  9.000E+00
#rwgt            1           1   2.8528234717050169E-002           4       98207           0
</event>
<event>
      5   9999  3.19816E-02  1.77419E+01 -1.00000E+00  1.70780E-01
      21    -1     0     0   502   501  0.000000000E+00  0.000000000E+00  7.171330530E+02  7.171330530E+02  0.000000000E+00  0.00000E+00  9.000E+00
      21    -1     0     0   512   502  0.000000000E+00  0.000000000E+00 -2.993347212E+02  2.993347212E+02  0.000000000E+00  0.00000E+00  9.000E+00
      25     1     1     2     0     0 -1.575754713E+01  3.355555448E+02  4.637869992E+02  5.861477669E+02  1.250000000E+02  0.00000E+00  9.000E+00
      25     1     1     2     0     0 -1.983844316E+00 -3.356856030E+02  2.313534013E+01  3.589554341E+02  1.250000000E+02  0.00000E+00  9.000E+00
      21     1     1     2   512   501  1.774139144E+01  1.300581324E-01 -6.912400762E+01  7.136457325E+01  1.348699152E-06  0.00000E+00  9.000E+00
#rwgt            1           1   2.0433759337842836E-002           4       98318           0
</event>
<event>
      5   9999  3.19816E-02  2.60886E+01 -1.00000E+00  1.57377E-01
      21    -1     0     0   502   511  0.000000000E+00  0.000000000E+00  1.758707253E+03  1.758707253E+03  0.000000000E+00  0.00000E+00  9.000E+00
      21    -1     0     0   501   502  0.000000000E+00  0.000000000E+00 -3.862092184E+03  3.862092184E+03  0.000000000E+00  0.00000E+00  9.000E+00
      25     1     1     2     0     0  2.213571091E+03 -7.308408280E+02  1.384164908E+02  2.338548571E+03  1.250000000E+02  0.00000E+00  9.000E+00
      25     1     1     2     0     0 -2.213687866E+03  7.047525202E+02 -2.265256824E+03  3.247168545E+03  1.250000000E+02  0.00000E+00  9.000E+00
      21     1     1     2   501   511  1.167741346E-01  2.608830775E+01  2.345540174E+01  3.508232188E+01  0.000000000E+00  0.00000E+00  9.000E+00
#rwgt            1           1   2.6103054362411789E-003           4       98466           0
</event>
<event>
      5   9999  3.19816E-02  8.14854E+01 -1.00000E+00  1.27964E-01
      21    -1     0     0   502   501  0.000000000E+00  0.000000000E+00  4.363299283E+02  4.363299283E+02  0.000000000E+00  0.00000E+00  9.000E+00
      21    -1     0     0   512   502  0.000000000E+00  0.000000000E+00 -4.428359220E+02  4.428359220E+02  0.000000000E+00  0.00000E+00  9.000E+00
      25     1     1     2     0     0  2.583670659E+02 -2.137403845E+02  2.225778900E+02  4.214313821E+02  1.250000000E+02  0.00000E+00  9.000E+00
      25     1     1     2     0     0 -1.779915296E+02  2.271434369E+02 -1.892167638E+02  3.670192219E+02  1.250000000E+02  0.00000E+00  9.000E+00
      21     1     1     2   512   501 -8.037553629E+01 -1.340305243E+01 -3.986711990E+01  9.071524622E+01  1.651812370E-06  0.00000E+00  9.000E+00
#rwgt            1           1   2.6508950037510179E-002           4       98814           0
</event>
<event>
      5   9999  3.19816E-02  1.34169E+02 -1.00000E+00  1.18346E-01
       2    -1     0     0   502     0  0.000000000E+00  0.000000000E+00  1.791053977E+03  1.791053977E+03  0.000000000E+00  0.00000E+00  9.000E+00
      21    -1     0     0   501   502  0.000000000E+00  0.000000000E+00 -1.644602395E+02  1.644602395E+02  0.000000000E+00  0.00000E+00  9.000E+00
      25     1     1     2     0     0 -3.711617874E+02  9.666970347E+01  5.435751802E+02  6.769084728E+02  1.250000000E+02  0.00000E+00  9.000E+00
      25     1     1     2     0     0  2.562259464E+02 -1.658877606E+02  2.006131549E+02  3.860584446E+02  1.250000000E+02  0.00000E+00  9.000E+00
       2     1     1     2   501     0  1.149358411E+02  6.921805712E+01  8.824054028E+02  8.925472995E+02  1.078959322E-05  0.00000E+00  9.000E+00
#rwgt            1           1   2.9308950530817137E-002           4       98884           0
</event>
<event>
      5   9999  3.19816E-02  1.57318E+02 -1.00000E+00  1.15580E-01
      21    -1     0     0   502   501  0.000000000E+00  0.000000000E+00  5.925269718E+02  5.925269718E+02  0.000000000E+00  0.00000E+00  9.000E+00
       1    -1     0     0   501     0  0.000000000E+00  0.000000000E+00 -7.378476434E+02  7.378476434E+02  0.000000000E+00  0.00000E+00  9.000E+00
      25     1     1     2     0     0 -1.929809551E+02 -1.383462144E+02 -2.191903962E+02  3.464834107E+02  1.250000000E+02  0.00000E+00  9.000E+00
      25     1     1     2     0     0  4.645435054E+01  8.108322776E+01  5.030936571E+02  5.267454075E+02  1.250000000E+02  0.00000E+00  9.000E+00
       1     1     1     2   502     0  1.465266045E+02  5.726298668E+01 -4.292239325E+02  4.571457970E+02  7.629394531E-06  0.00000E+00  9.000E+00
#rwgt            1           1   2.8494547210947987E-002           4       98949           0
</event>
<event>
      5   9999  3.19816E-02  3.96319E+01 -1.00000E+00  1.45090E-01
      21    -1     0     0   502   511  0.000000000E+00  0.000000000E+00  4.064673181E+02  4.064673181E+02  0.000000000E+00  0.00000E+00  9.000E+00
      21    -1     0     0   501   502  0.000000000E+00  0.000000000E+00 -1.978594290E+02  1.978594290E+02  0.000000000E+00  0.00000E+00  9.000E+00
      25     1     1     2     0     0 -1.596834728E+02  4.130235276E+01  2.351908073E+02  3.132800850E+02  1.250000000E+02  0.00000E+00  9.000E+00
      25     1     1     2     0     0  1.222637928E+02 -5.435828753E+01 -9.924917998E+01  2.082754382E+02  1.250000000E+02  0.00000E+00  9.000E+00
      21     1     1     2   501   511  3.741968005E+01  1.305593477E+01  7.266626182E+01  8.277122383E+01  0.000000000E+00  0.00000E+00  9.000E+00
#rwgt            1           1   2.7048999016413368E-002           4       99021           0
</event>
<event>
      5   9999  3.19816E-02  6.52352E+00 -1.00000E+00  2.19974E-01
      21    -1     0     0   502   512  0.000000000E+00  0.000000000E+00  6.684878893E+02  6.684878893E+02  0.000000000E+00  0.00000E+00  9.000E+00
      21    -1     0     0   501   502  0.000000000E+00  0.000000000E+00 -4.823901768E+02  4.823901768E+02  0.000000000E+00  0.00000E+00  9.000E+00
      25     1     1     2     0     0  4.938701715E+02 -7.201541129E+01  3.208250531E+02  6.063395752E+02  1.250000000E+02  0.00000E+00  9.000E+00
      25     1     1     2     0     0 -4.915974560E+02  6.590058587E+01 -1.456320883E+02  5.318314123E+02  1.250000000E+02  0.00000E+00  9.000E+00
      21     1     1     2   501   512 -2.272715474E+00  6.114825415E+00  1.090474765E+01  1.270707861E+01  1.192092896E-07  0.00000E+00  9.000E+00
#rwgt            1           1   2.9420534172430787E-002           4       99115           0
</event>
<event>
      5   9999  3.19816E-02  6.84727E+01 -1.00000E+00  1.31708E-01
      21    -1     0     0   502   501  0.000000000E+00  0.000000000E+00  8.728402533E+02  8.728402533E+02  0.000000000E+00  0.00000E+00  9.000E+00
      21    -1     0     0   501   511  0.000000000E+00  0.000000000E+00 -4.798812477E+02  4.798812477E+02  0.000000000E+00  0.00000E+00  9.000E+00
      25     1     1     2     0     0 -1.949442007E+02  1.552752782E+02 -2.883653752E+02  4.011149998E+02  1.250000000E+02  0.00000E+00  9.000E+00
      25     1     1     2     0     0  2.181233407E+02 -2.197054004E+02  7.701765999E+02  8.394315039E+02  1.250000000E+02  0.00000E+00  9.000E+00
      21     1     1     2   502   511 -2.317913999E+01  6.443012222E+01 -8.885221913E+01  1.121749973E+02  2.132480600E-06  0.00000E+00  9.000E+00
#rwgt            1           1   2.6793581963684664E-002           4       99493           0
</event>
<event>
      5   9999  3.19816E-02  8.86638E+01 -1.00000E+00  1.26225E-01
      21    -1     0     0   502   501  0.000000000E+00  0.000000000E+00  1.092011803E+02  1.092011803E+02  0.000000000E+00  0.00000E+00  9.000E+00
      21    -1     0     0   501   512  0.000000000E+00  0.000000000E+00 -1.894797666E+03  1.894797666E+03  0.000000000E+00  0.00000E+00  9.000E+00
      25     1     1     2     0     0 -5.011322636E+01 -3.527243170E+02 -4.090141224E+02  5.566357261E+02  1.250000000E+02  0.00000E+00  9.000E+00
      25     1     1     2     0     0 -3.523207930E+01  3.286941887E+02 -1.178270562E+03  1.230133199E+03  1.250000000E+02  0.00000E+00  9.000E+00
      21     1     1     2   502   512  8.534530567E+01  2.403012836E+01 -1.983118005E+02  2.172299208E+02  0.000000000E+00  0.00000E+00  9.000E+00
#rwgt            1           1   3.1319296428532345E-002           4       99609           0
</event>
<event>
      5   9999  3.19816E-02  1.60140E+02 -1.00000E+00  1.15279E-01
      21    -1     0     0   502   501  0.000000000E+00  0.000000000E+00  6.671668124E+02  6.671668124E+02  0.000000000E+00  0.00000E+00  9.000E+00
      21    -1     0     0   501   511  0.000000000E+00  0.000000000E+00 -1.014928967E+03  1.014928967E+03  0.000000000E+00  0.00000E+00  9.000E+00
      25     1     1     2     0     0  3.571826204E+01  5.203815270E+02  3.214808114E+02  6.253380206E+02  1.250000000E+02  0.00000E+00  9.000E+00
      25     1     1     2     0     0 -1.726908158E+02 -6.033469874E+02 -4.378795119E+02  7.753793729E+02  1.250000000E+02  0.00000E+00  9.000E+00
      21     1     1     2   502   511  1.369725538E+02  8.296546036E+01 -2.313634542E+02  2.813783859E+02  4.672030912E-06  0.00000E+00  9.000E+00
#rwgt            1           1   3.1824802198610752E-002           4       99655           0
</event>
<event>
      5   9999  3.19816E-02  9.25657E+01 -1.00000E+00  1.25356E-01
      21    -1     0     0   502   512  0.000000000E+00  0.000000000E+00  1.833336580E+02  1.833336580E+02  0.000000000E+00  0.00000E+00  9.000E+00
      21    -1     0     0   501   502  0.000000000E+00  0.000000000E+00 -1.381270633E+03  1.381270633E+03  0.000000000E+00  0.00000E+00  9.000E+00
      25     1     1     2     0     0 -1.015854317E+01 -2.870270807E+02 -1.092719193E+03  1.136726869E+03  1.250000000E+02  0.00000E+00  9.000E+00
      25     1     1     2     0     0 -8.216252680E+01  2.803019633E+02 -1.071256371E+02  3.352920720E+02  1.250000000E+02  0.00000E+00  9.000E+00
      21     1     1     2   501   512  9.232106997E+01  6.725117424E+00  1.907854248E+00  9.258535021E+01  1.186304643E-06  0.00000E+00  9.000E+00
#rwgt            1           1   2.9937936116699398E-002           4       99713           0
</event>
<event>
      5   9999  3.19816E-02  1.54428E+01 -1.00000E+00  1.76201E-01
      21    -1     0     0   502   511  0.000000000E+00  0.000000000E+00  1.766441797E+03  1.766441797E+03  0.000000000E+00  0.00000E+00  9.000E+00
      21    -1     0     0   501   502  0.000000000E+00  0.000000000E+00 -6.883717387E+01  6.883717387E+01  0.000000000E+00  0.00000E+00  9.000E+00
      25     1     1     2     0     0 -6.167349898E+01  3.138359081E+02  9.252694258E+02  9.869372361E+02  1.250000000E+02  0.00000E+00  9.000E+00
      25     1     1     2     0     0  6.973153103E+01 -3.006621259E+02  7.113609444E+02  7.854422917E+02  1.250000000E+02  0.00000E+00  9.000E+00
      21     1     1     2   501   511 -8.058032052E+00 -1.317378224E+01  6.097425334E+01  6.289944347E+01  1.168007728E-06  0.00000E+00  9.000E+00
#rwgt            1           1   3.8045651150457181E-002           4       99807           0
</event>
<event>
      5   9999  3.19816E-02  7.94272E+01 -1.00000E+00  1.28501E-01
      21    -1     0     0   502   501  0.000000000E+00  0.000000000E+00  8.742241453E+02  8.742241453E+02  0.000000000E+00  0.00000E+00  9.000E+00
       1    -1     0     0   501     0  0.000000000E+00  0.000000000E+00 -8.763917304E+02  8.763917304E+02  0.000000000E+00  0.00000E+00  9.000E+00
      25     1     1     2     0     0  3.272355282E+02 -1.152477095E+02  1.824181960E+02  4.114201304E+02  1.250000000E+02  0.00000E+00  9.000E+00
      25     1     1     2     0     0 -4.044747887E+02  9.673338393E+01  4.929908959E+02  6.569796235E+02  1.250000000E+02  0.00000E+00  9.000E+00
       1     1     1     2   502     0  7.723926045E+01  1.851432561E+01 -6.775766770E+02  6.822161218E+02  0.000000000E+00  0.00000E+00  9.000E+00
#rwgt            1           1   2.5003839940017012E-002           4      100016           0
</event>
<event>
      5   9999  3.19816E-02  4.52628E+02 -1.00000E+00  1.00096E-01
      -2    -1     0     0     0   501  0.000000000E+00  0.000000000E+00  2.845403688E+03  2.845403688E+03  0.000000000E+00  0.00000E+00  9.000E+00
      21    -1     0     0   501   502  0.000000000E+00  0.000000000E+00 -2.324808216E+02  2.324808216E+02  0.000000000E+00  0.00000E+00  9.000E+00
      25     1     1     2     0     0  1.295784168E+02  7.284058398E+01  5.658465743E+01  2.022946866E+02  1.250000000E+02  0.00000E+00  9.000E+00
      25     1     1     2     0     0 -5.733581257E+02  1.621864957E+01  2.259004726E+03  2.334037261E+03  1.250000000E+02  0.00000E+00  9.000E+00
      -2     1     1     2     0   502  4.437797089E+02 -8.905923354E+01  2.973334831E+02  5.415525619E+02  3.814697266E-06  0.00000E+00  9.000E+00
#rwgt            2           4   5.4389650237659842E-005           4      100158           0
</event>
<event>
      5   9999  3.19816E-02  5.34442E+01 -1.00000E+00  1.37445E-01
      21    -1     0     0   502   511  0.000000000E+00  0.000000000E+00  6.243079309E+02  6.243079309E+02  0.000000000E+00  0.00000E+00  9.000E+00
      21    -1     0     0   501   502  0.000000000E+00  0.000000000E+00 -2.008084193E+02  2.008084193E+02  0.000000000E+00  0.00000E+00  9.000E+00
      25     1     1     2     0     0 -3.806200525E+01  2.555296601E+02  1.334491204E+02  3.165087537E+02  1.250000000E+02  0.00000E+00  9.000E+00
      25     1     1     2     0     0  2.793934386E+01 -3.080064676E+02  1.640342772E+02  3.717268287E+02  1.250000000E+02  0.00000E+00  9.000E+00
      21     1     1     2   501   511  1.012266139E+01  5.247680757E+01  1.260161140E+02  1.368807678E+02  0.000000000E+00  0.00000E+00  9.000E+00
#rwgt            1           1   2.7241646810137802E-002           4      100177           0
</event>
<event>
      5   9999  3.19816E-02  3.78635E+02 -1.00000E+00  1.02408E-01
      21    -1     0     0   502   501  0.000000000E+00  0.000000000E+00  7.427299366E+02  7.427299366E+02  0.000000000E+00  0.00000E+00  9.000E+00
      21    -1     0     0   501   512  0.000000000E+00  0.000000000E+00 -7.619772755E+02  7.619772755E+02  0.000000000E+00  0.00000E+00  9.000E+00
      25     1     1     2     0     0  3.187140827E+02 -1.883294027E+02  1.297697353E+02  4.117181252E+02  1.250000000E+02  0.00000E+00  9.000E+00
      25     1     1     2     0     0 -6.109382038E+01 -8.915203986E+01  3.961507724E+02  4.292330085E+02  1.250000000E+02  0.00000E+00  9.000E+00
      21     1     1     2   502   512 -2.576202623E+02  2.774814426E+02 -5.451678466E+02  6.637560784E+02  1.321449896E-05  0.00000E+00  9.000E+00
#rwgt            1           1   3.3089295088874170E-002           4      100304           0
</event>
<event>
      5   9999  3.19816E-02  4.34443E+01 -1.00000E+00  1.42650E-01
       1    -1     0     0   502     0  0.000000000E+00  0.000000000E+00  1.644810944E+03  1.644810944E+03  0.000000000E+00  0.00000E+00  9.000E+00
      21    -1     0     0   501   502  0.000000000E+00  0.000000000E+00 -9.838072209E+02  9.838072209E+02  0.000000000E+00  0.00000E+00  9.000E+00
      25     1     1     2     0     0 -5.798040850E+02  1.506510982E+02  3.579846589E+02  7.089757022E+02  1.250000000E+02  0.00000E+00  9.000E+00
      25     1     1     2     0     0  5.399418076E+02 -1.679255497E+02 -7.040605347E+02  9.116262296E+02  1.250000000E+02  0.00000E+00  9.000E+00
       1     1     1     2   501     0  3.986227734E+01  1.727445146E+01  1.007079599E+03  1.008016233E+03  1.078959322E-05  0.00000E+00  9.000E+00
#rwgt            1           1   3.2615440395055192E-002           4      100332           0
</event>
<event>
      5   9999  3.19816E-02  1.30765E+02 -1.00000E+00  1.18806E-01
      21    -1     0     0   502   501  0.000000000E+00  0.000000000E+00  7.140645872E+02  7.140645872E+02  0.000000000E+00  0.00000E+00  9.000E+00
      21    -1     0     0   511   502  0.000000000E+00  0.000000000E+00 -3.832317408E+02  3.832317408E+02  0.000000000E+00  0.00000E+00  9.000E+00
      25     1     1     2     0     0 -9.467305108E+01  2.557793287E+02 -2.451210684E+02  3.874214627E+02  1.250000000E+02  0.00000E+00  9.000E+00
      25     1     1     2     0     0  2.767897861E+01 -1.434791542E+02  5.415245436E+02  5.746531344E+02  1.250000000E+02  0.00000E+00  9.000E+00
      21     1     1     2   511   501  6.699407247E+01 -1.123001745E+02  3.442937116E+01  1.352217310E+02  2.384185791E-06  0.00000E+00  9.000E+00
#rwgt            1           1   2.5683055172471676E-002           4      100500           0
</event>
<event>
      5   9999  3.19816E-02  4.63615E+01 -1.00000E+00  1.40974E-01
      21    -1     0     0   502   512  0.000000000E+00  0.000000000E+00  4.015901768E+02  4.015901768E+02  0.000000000E+00  0.00000E+00  9.000E+00
      21    -1     0     0   501   502  0.000000000E+00  0.000000000E+00 -1.642487457E+02  1.642487457E+02  0.000000000E+00  0.00000E+00  9.000E+00
      25     1     1     2     0     0  1.308268765E+02  5.587201358E+01 -2.005461780E+01  1.904325109E+02  1.250000000E+02  0.00000E+00  9.000E+00
      25     1     1     2     0     0 -1.766617182E+02 -6.284023466E+01  1.973868555E+02  2.995744123E+02  1.250000000E+02  0.00000E+00  9.000E+00
      21     1     1     2   501   512  4.583484178E+01  6.968221079E+00  6.000919335E+01  7.583199927E+01  1.348699152E-06  0.00000E+00  9.000E+00
#rwgt            1           1   2.5060466815448074E-002           4      100567           0
</event>
<event>
      5   9999  3.19816E-02  6.99399E+01 -1.00000E+00  1.31240E-01
      21    -1     0     0   502   501  0.000000000E+00  0.000000000E+00  5.006726177E+02  5.006726177E+02  0.000000000E+00  0.00000E+00  9.000E+00
      21    -1     0     0   511   502  0.000000000E+00  0.000000000E+00 -9.949430590E+01  9.949430590E+01  0.000000000E+00  0.00000E+00  9.000E+00
      25     1     1     2     0     0  1.100460961E+01  1.036533002E+02  3.217370242E+02  3.605618128E+02  1.250000000E+02  0.00000E+00  9.000E+00
      25     1     1     2     0     0 -6.378174812E+01 -5.776040060E+01  7.564371910E+01  1.695622231E+02  1.250000000E+02  0.00000E+00  9.000E+00
      21     1     1     2   511   501  5.277713851E+01 -4.589289965E+01  3.797568461E+00  7.004288767E+01  3.551356580E-07  0.00000E+00  9.000E+00
#rwgt            1           1   2.5600393799757346E-002           4      100639           0
</event>
<event>
      5   9999  3.19816E-02  8.54309E+01 -1.00000E+00  1.26984E-01
       2    -1     0     0   502     0  0.000000000E+00  0.000000000E+00  1.628297831E+03  1.628297831E+03  0.000000000E+00  0.00000E+00  9.000E+00
      21    -1     0     0   501   502  0.000000000E+00  0.000000000E+00 -4.898418204E+02  4.898418204E+02  0.000000000E+00  0.00000E+00  9.000E+00
      25     1     1     2     0     0  2.467624772E+02 -6.441125243E+02  1.384468820E+02  7.145384547E+02  1.250000000E+02  0.00000E+00  9.000E+00
      25     1     1     2     0     0 -1.613486180E+02  6.458193709E+02  3.777860172E+02  7.755406573E+02  1.250000000E+02  0.00000E+00  9.000E+00
       2     1     1     2   501     0 -8.541385919E+01 -1.706846581E+00  6.222231113E+02  6.280605392E+02  0.000000000E+00  0.00000E+00  9.000E+00
#rwgt            1           1   2.9171118835248613E-002           4      100704           0
</event>
<event>
      5   9999  3.19816E-02  4.38917E+01 -1.00000E+00  1.42383E-01
      21    -1     0     0   502   501  0.000000000E+00  0.000000000E+00  1.800216550E+02  1.800216550E+02  0.000000000E+00  0.00000E+00  9.000E+00
      21    -1     0     0   501   511  0.000000000E+00  0.000000000E+00 -9.206589601E+02  9.206589601E+02  0.000000000E+00  0.00000E+00  9.000E+00
      25     1     1     2     0     0  2.768175579E+02 -1.351783827E+02 -1.057136721E+02  3.488574723E+02  1.250000000E+02  0.00000E+00  9.000E+00
      25     1     1     2     0     0 -2.766342493E+02  9.128711162E+01 -3.879947633E+02  5.010237330E+02  1.250000000E+02  0.00000E+00  9.000E+00
      21     1     1     2   502   511 -1.833085365E-01  4.389127105E+01 -2.469288697E+02  2.507994098E+02  3.814697266E-06  0.00000E+00  9.000E+00
#rwgt            1           1   2.0120992090305181E-002           4      100789           0
</event>
<event>
      5   9999  3.19816E-02  1.76862E+02 -1.00000E+00  1.13627E-01
      21    -1     0     0   502   501  0.000000000E+00  0.000000000E+00  2.005136965E+03  2.005136965E+03  0.000000000E+00  0.00000E+00  9.000E+00
       2    -1     0     0   501     0  0.000000000E+00  0.000000000E+00 -3.673249619E+03  3.673249619E+03  0.000000000E+00  0.00000E+00  9.000E+00
      25     1     1     2     0     0 -1.049992727E+03  7.794050980E+02  1.143888023E+03  1.741855862E+03  1.250000000E+02  0.00000E+00  9.000E+00
      25     1     1     2     0     0  9.273850385E+02 -9.068704786E+02 -1.997804910E+02  1.318330125E+03  1.250000000E+02  0.00000E+00  9.000E+00
       2     1     1     2   502     0  1.226076884E+02  1.274653806E+02 -2.612220186E+03  2.618200597E+03  3.051757812E-05  0.00000E+00  9.000E+00
#rwgt            1           1   4.9320125157261328E-002           4      100891           0
</event>
<event>
      5   9999  3.19816E-02  5.15314E+01 -1.00000E+00  1.38332E-01
      21    -1     0     0   502   501  0.000000000E+00  0.000000000E+00  2.779332891E+02  2.779332891E+02  0.000000000E+00  0.00000E+00  9.000E+00
      21    -1     0     0   511   502  0.000000000E+00  0.000000000E+00 -3.312779072E+02  3.312779072E+02  0.000000000E+00  0.00000E+00  9.000E+00
      25     1     1     2     0     0  4.573427992E+01  3.283999318E+01  2.233673967E+02  2.620841152E+02  1.250000000E+02  0.00000E+00  9.000E+00
      25     1     1     2     0     0 -6.574315207E+01  1.464818156E+01 -2.536104022E+02  2.906543778E+02  1.250000000E+02  0.00000E+00  9.000E+00
      21     1     1     2   511   501  2.000887215E+01 -4.748817474E+01 -2.310161271E+01  5.647270327E+01  5.840038640E-07  0.00000E+00  9.000E+00
#rwgt            1           1   2.7268167515578919E-002           4      100969           0
</event>
<event>
      5   9999  3.19816E-02  3.05748E+01 -1.00000E+00  1.52470E-01
      21    -1     0     0   502   501  0.000000000E+00  0.000000000E+00  7.873022104E+02  7.873022104E+02  0.000000000E+00  0.00000E+00  9.000E+00
      21    -1     0     0   501   512  0.000000000E+00  0.000000000E+00 -1.182739862E+02  1.182739862E+02  0.000000000E+00  0.00000E+00  9.000E+00
      25     1     1     2     0     0  1.568850188E+01 -1.329749146E+02  1.714146413E+01  1.839763213E+02  1.250000000E+02  0.00000E+00  9.000E+00
      25     1     1     2     0     0 -4.145885270E+01  1.494281724E+02  6.604642544E+02  6.898446539E+02  1.250000000E+02  0.00000E+00  9.000E+00
      21     1     1     2   502   512  2.577035083E+01 -1.645325780E+01 -8.577494346E+00  3.175522135E+01  7.633118912E-07  0.00000E+00  9.000E+00
#rwgt            1           1   3.0708289691299726E-002           4      101063           0
</event>
<event>
      5   9999  3.19816E-02  4.59598E+01 -1.00000E+00  1.41196E-01
      -4    -1     0     0     0   501  0.000000000E+00  0.000000000E+00  4.150644790E+02  4.150644790E+02  0.000000000E+00  0.00000E+00  9.000E+00
      21    -1     0     0   501   502  0.000000000E+00  0.000000000E+00 -1.156482467E+02  1.156482467E+02  0.000000000E+00  0.00000E+00  9.000E+00
      25     1     1     2     0     0 -9.819436996E+01 -1.171694881E+02  1.038764141E+02  2.231280633E+02  1.250000000E+02  0.00000E+00  9.000E+00
      25     1     1     2     0     0  6.085091916E+01  9.037833885E+01  8.177528561E+01  1.848871976E+02  1.250000000E+02  0.00000E+00  9.000E+00
      -4     1     1     2     0   502  3.734345080E+01  2.679114921E+01  1.137645326E+02  1.226974648E+02  1.907348633E-06  0.00000E+00  9.000E+00
#rwgt            1           1   2.2752805723642675E-002           4      101156           0
</event>
<event>
      5   9999  3.19816E-02  2.14030E+02 -1.00000E+00  1.10587E-01
      21    -1     0     0   502   501  0.000000000E+00  0.000000000E+00  1.528636012E+03  1.528636012E+03  0.000000000E+00  0.00000E+00  9.000E+00
      21    -1     0     0   511   502  0.000000000E+00  0.000000000E+00 -7.639836593E+02  7.639836593E+02  0.000000000E+00  0.00000E+00  9.000E+00
      25     1     1     2     0     0  1.552709459E+02  7.152887167E+02  4.000832352E+02  8.434682033E+02  1.250000000E+02  0.00000E+00  9.000E+00
      25     1     1     2     0     0 -3.623180081E+02 -7.695154988E+02  6.603694623E+02  1.084039330E+03  1.250000000E+02  0.00000E+00  9.000E+00
      21     1     1     2   511   501  2.070470622E+02  5.422678206E+01 -2.958003445E+02  3.651121385E+02  3.814697266E-06  0.00000E+00  9.000E+00
#rwgt            1           1   2.3706487994423285E-002           4      101217           0
</event>
<event>
      5   9999  3.19816E-02  7.24746E+01 -1.00000E+00  1.30461E-01
      21    -1     0     0   502   501  0.000000000E+00  0.000000000E+00  1.073807152E+03  1.073807152E+03  0.000000000E+00  0.00000E+00  9.000E+00
      21    -1     0     0   512   502  0.000000000E+00  0.000000000E+00 -3.110854748E+02  3.110854748E+02  0.000000000E+00  0.00000E+00  9.000E+00
      25     1     1     2     0     0 -1.615715873E+02 -2.091419006E+02  6.807088716E+02  7.408341787E+02  1.250000000E+02  0.00000E+00  9.000E+00
      25     1     1     2     0     0  1.554374054E+02  2.813564602E+02  2.729505735E+02  4.398286715E+02  1.250000000E+02  0.00000E+00  9.000E+00
      21     1     1     2   512   501  6.134181854E+00 -7.221455961E+01 -1.909377674E+02  2.042297771E+02  3.814697266E-06  0.00000E+00  9.000E+00
#rwgt            1           1   2.8025343875759359E-002           4      101281           0
</event>
<event>
      5   9999  3.19816E-02  1.15454E+02 -1.00000E+00  1.21085E-01
      21    -1     0     0   502   501  0.000000000E+00  0.000000000E+00  1.289616860E+03  1.289616860E+03  0.000000000E+00  0.00000E+00  9.000E+00
       1    -1     0     0   501     0  0.000000000E+00  0.000000000E+00 -5.617616605E+02  5.617616605E+02  0.000000000E+00  0.00000E+00  9.000E+00
      25     1     1     2     0     0  7.115876688E+02  2.791853934E+02  3.884962091E+02  8.665193585E+02  1.250000000E+02  0.00000E+00  9.000E+00
      25     1     1     2     0     0 -6.883688440E+02 -3.922801929E+02  3.352267522E+02  8.693315768E+02  1.250000000E+02  0.00000E+00  9.000E+00
       1     1     1     2   502     0 -2.321882472E+01  1.130947994E+02  4.132238033E+00  1.155275849E+02  4.842304232E-07  0.00000E+00  9.000E+00
#rwgt            2          12   9.3251262765223011E-005           4      101402           0
</event>
<event>
      5   9999  3.19816E-02  4.92678E+01 -1.00000E+00  1.39442E-01
       2    -1     0     0   502     0  0.000000000E+00  0.000000000E+00  2.066443513E+03  2.066443513E+03  0.000000000E+00  0.00000E+00  9.000E+00
      21    -1     0     0   501   502  0.000000000E+00  0.000000000E+00 -1.813950536E+02  1.813950536E+02  0.000000000E+00  0.00000E+00  9.000E+00
      25     1     1     2     0     0 -1.351526848E+02 -1.362927013E+02  7.186635437E+01  2.400660774E+02  1.250000000E+02  0.00000E+00  9.000E+00
      25     1     1     2     0     0  9.938817769E+01  1.024074076E+02 -4.165893449E+00  1.897567961E+02  1.250000000E+02  0.00000E+00  9.000E+00
       2     1     1     2   501     0  3.576450708E+01  3.388529375E+01  1.817347998E+03  1.818015693E+03  0.000000000E+00  0.00000E+00  9.000E+00
#rwgt            1           1   2.5194906127861221E-002           4      101451           0
</event>
<event>
      5   9999  3.19816E-02  6.39861E+01 -1.00000E+00  1.33227E-01
      21    -1     0     0   511   501  0.000000000E+00  0.000000000E+00  1.882395903E+02  1.882395903E+02  0.000000000E+00  0.00000E+00  9.000E+00
      21    -1     0     0   501   502  0.000000000E+00  0.000000000E+00 -1.308288204E+03  1.308288204E+03  0.000000000E+00  0.00000E+00  9.000E+00
      25     1     1     2     0     0 -4.177402943E+01  1.565355981E+02  9.467597155E+01  2.254706247E+02  1.250000000E+02  0.00000E+00  9.000E+00
      25     1     1     2     0     0  5.006129091E+01 -2.199827222E+02 -1.155274791E+03  1.183715918E+03  1.250000000E+02  0.00000E+00  9.000E+00
      21     1     1     2   511   502 -8.287261476E+00  6.344712413E+01 -5.944979436E+01  8.734125207E+01  1.651812370E-06  0.00000E+00  9.000E+00
#rwgt            1           1   2.8995093485989928E-002           4      101510           0
</event>
<event>
      5   9999  3.19816E-02  2.25976E+01 -1.00000E+00  1.62109E-01
      21    -1     0     0   502   501  0.000000000E+00  0.000000000E+00  6.249057771E+02  6.249057771E+02  0.000000000E+00  0.00000E+00  9.000E+00
      21    -1     0     0   501   512  0.000000000E+00  0.000000000E+00 -1.800652644E+02  1.800652644E+02  0.000000000E+00  0.00000E+00  9.000E+00
      25     1     1     2     0     0 -7.819685775E+01 -2.786216221E+02  1.524380479E+02  3.501529885E+02  1.250000000E+02  0.00000E+00  9.000E+00
      25     1     1     2     0     0  5.602303742E+01  2.829776805E+02  2.961541031E+02  4.319111033E+02  1.250000000E+02  0.00000E+00  9.000E+00
      21     1     1     2   502   512  2.217382032E+01 -4.356058326E+00 -3.751638360E+00  2.290694965E+01  4.214684851E-08  0.00000E+00  9.000E+00
#rwgt            1           1   2.6813667435017237E-002           4      101588           0
</event>
<event>
      5   9999  3.19816E-02  2.41302E+02 -1.00000E+00  1.08758E-01
       1    -1     0     0   502     0  0.000000000E+00  0.000000000E+00  5.677219867E+02  5.677219867E+02  0.000000000E+00  0.00000E+00  9.000E+00
      21    -1     0     0   501   502  0.000000000E+00  0.000000000E+00 -6.740698305E+02  6.740698305E+02  0.000000000E+00  0.00000E+00  9.000E+00
      25     1     1     2     0     0 -1.657588452E+02 -1.362438226E+02 -2.984086053E+02  3.882152363E+02  1.250000000E+02  0.00000E+00  9.000E+00
      25     1     1     2     0     0  1.607990247E+02  3.774944442E+02 -1.326929105E+02  4.489886304E+02  1.250000000E+02  0.00000E+00  9.000E+00
       1     1     1     2   501     0  4.959820491E+00 -2.412506216E+02  3.247536720E+02  4.045879505E+02  0.000000000E+00  0.00000E+00  9.000E+00
#rwgt            1           1   2.9819068018014882E-002           4      101751           0
</event>
<event>
      5   9999  3.19816E-02  2.44343E+02 -1.00000E+00  1.08571E-01
      21    -1     0     0   502   501  0.000000000E+00  0.000000000E+00  1.928403253E+03  1.928403253E+03  0.000000000E+00  0.00000E+00  9.000E+00
      21    -1     0     0   511   502  0.000000000E+00  0.000000000E+00 -7.526224413E+02  7.526224413E+02  0.000000000E+00  0.00000E+00  9.000E+00
      25     1     1     2     0     0 -9.902892132E+02  2.270412760E+01  3.582172131E+02  1.060722761E+03  1.250000000E+02  0.00000E+00  9.000E+00
      25     1     1     2     0     0  1.103637202E+03 -2.391665477E+02  7.669131602E+02  1.370764935E+03  1.250000000E+02  0.00000E+00  9.000E+00
      21     1     1     2   511   501 -1.133479891E+02  2.164624201E+02  5.065043878E+01  2.495379989E+02  4.211311753E-06  0.00000E+00  9.000E+00
#rwgt            2          11   8.8819431265576409E-003           4      101803           0
</event>
<event>
      5   9999  3.19816E-02  7.80946E+01 -1.00000E+00  1.28858E-01
      21    -1     0     0   502   501  0.000000000E+00  0.000000000E+00  8.264232337E+02  8.264232337E+02  0.000000000E+00  0.00000E+00  9.000E+00
      21    -1     0     0   512   502  0.000000000E+00  0.000000000E+00 -9.962861056E+02  9.962861056E+02  0.000000000E+00  0.00000E+00  9.000E+00
      25     1     1     2     0     0  3.819673994E+02 -3.426479300E+02 -5.888820625E+02  7.910207214E+02  1.250000000E+02  0.00000E+00  9.000E+00
      25     1     1     2     0     0 -3.788244000E+02  4.206792178E+02  6.001520791E+02  8.344378038E+02  1.250000000E+02  0.00000E+00  9.000E+00
      21     1     1     2   512   501 -3.142999425E+00 -7.803128777E+01 -1.811328886E+02  1.972508140E+02  3.814697266E-06  0.00000E+00  9.000E+00
#rwgt            1           1   3.3582328053307305E-002           4      101823           0
</event>
<event>
      5   9999  3.19816E-02  2.81397E+01 -1.00000E+00  1.54996E-01
      21    -1     0     0   511   501  0.000000000E+00  0.000000000E+00  1.039793984E+03  1.039793984E+03  0.000000000E+00  0.00000E+00  9.000E+00
      21    -1     0     0   501   502  0.000000000E+00  0.000000000E+00 -1.221504292E+03  1.221504292E+03  0.000000000E+00  0.00000E+00  9.000E+00
      25     1     1     2     0     0 -4.183173869E+02 -1.877446872E+02 -1.215529721E+02  4.905482941E+02  1.250000000E+02  0.00000E+00  9.000E+00
      25     1     1     2     0     0  4.435287015E+02  1.752453469E+02 -8.488093389E+02  9.815961158E+02  1.250000000E+02  0.00000E+00  9.000E+00
      21     1     1     2   511   502 -2.521131461E+01  1.249934035E+01  7.886520029E+02  7.891538668E+02  1.078959322E-05  0.00000E+00  9.000E+00
#rwgt            1           1   2.9408674988007585E-002           4      101919           0
</event>
<event>
      5   9999  3.19816E-02  6.67208E+01 -1.00000E+00  1.32285E-01
       1    -1     0     0   502     0  0.000000000E+00  0.000000000E+00  1.007176975E+03  1.007176975E+03  0.000000000E+00  0.00000E+00  9.000E+00
      21    -1     0     0   501   502  0.000000000E+00  0.000000000E+00 -2.691930655E+02  2.691930655E+02  0.000000000E+00  0.00000E+00  9.000E+00
      25     1     1     2     0     0  1.762814154E+02 -1.805630380E+02  5.010862256E+01  2.860315055E+02  1.250000000E+02  0.00000E+00  9.000E+00
      25     1     1     2     0     0 -1.666074252E+02  2.465787766E+02  2.459549416E+01  3.237113923E+02  1.250000000E+02  0.00000E+00  9.000E+00
       1     1     1     2   501     0 -9.673990166E+00 -6.601573856E+01  6.632797925E+02  6.666271423E+02  1.078959322E-05  0.00000E+00  9.000E+00
#rwgt            1           1   2.6124057463385156E-002           4      102079           0
</event>
<event>
      5   9999  3.19816E-02  3.00607E+01 -1.00000E+00  1.52979E-01
      21    -1     0     0   502   511  0.000000000E+00  0.000000000E+00  2.895911769E+02  2.895911769E+02  0.000000000E+00  0.00000E+00  9.000E+00
      21    -1     0     0   501   502  0.000000000E+00  0.000000000E+00 -3.545592963E+02  3.545592963E+02  0.000000000E+00  0.00000E+00  9.000E+00
      25     1     1     2     0     0 -1.760406066E+02  1.914220793E+02 -1.249069414E+02  3.144192291E+02  1.250000000E+02  0.00000E+00  9.000E+00
      25     1     1     2     0     0  1.470297504E+02 -1.835471777E+02  4.155208478E+00  2.663636231E+02  1.250000000E+02  0.00000E+00  9.000E+00
      21     1     1     2   501   511  2.901085621E+01 -7.874901574E+00  5.578361350E+01  6.336762098E+01  6.743495762E-07  0.00000E+00  9.000E+00
#rwgt            1           1   2.6222671693982260E-002           4      102157           0
</event>
<event>
      5   9999  3.19816E-02  1.81056E+02 -1.00000E+00  1.13244E-01
       2    -1     0     0   502     0  0.000000000E+00  0.000000000E+00  1.865707784E+03  1.865707784E+03  0.000000000E+00  0.00000E+00  9.000E+00
      21    -1     0     0   501   502  0.000000000E+00  0.000000000E+00 -7.522930390E+02  7.522930390E+02  0.000000000E+00  0.00000E+00  9.000E+00
      25     1     1     2     0     0  2.336169396E+02  8.332072742E+02  9.478072281E+02  1.289486246E+03  1.250000000E+02  0.00000E+00  9.000E+00
      25     1     1     2     0     0 -4.141168413E+02 -8.190316851E+02 -1.751339762E+02  9.426571854E+02  1.250000000E+02  0.00000E+00  9.000E+00
       2     1     1     2   501     0  1.804999017E+02 -1.417558904E+01  3.407414928E+02  3.858573917E+02  7.629394531E-06  0.00000E+00  9.000E+00
#rwgt            1           1   3.1808888289585287E-002           4      102303           0
</event>
<event>
      5   9999  3.19816E-02  4.65133E+01 -1.00000E+00  1.40891E-01
      21    -1     0     0   502   501  0.000000000E+00  0.000000000E+00  2.555071397E+02  2.555071397E+02  0.000000000E+00  0.00000E+00  9.000E+00
      21    -1     0     0   511   502  0.000000000E+00  0.000000000E+00 -4.746226371E+02  4.746226371E+02  0.000000000E+00  0.00000E+00  9.000E+00
      25     1     1     2     0     0  1.739171425E+02  1.722383367E+02 -1.783633905E+02  3.276457174E+02  1.250000000E+02  0.00000E+00  9.000E+00
      25     1     1     2     0     0 -1.920727035E+02 -2.150619725E+02  3.224796000E+01  3.159248430E+02  1.250000000E+02  0.00000E+00  9.000E+00
      21     1     1     2   511   501  1.815556106E+01  4.282363586E+01 -7.300006688E+01  8.655921643E+01  0.000000000E+00  0.00000E+00  9.000E+00
#rwgt            1           1   2.8891926460699238E-002           4      102396           0
</event>
<event>
      5   9999  3.19816E-02  4.76955E+01 -1.00000E+00  1.40255E-01
      21    -1     0     0   502   501  0.000000000E+00  0.000000000E+00  3.047748776E+02  3.047748776E+02  0.000000000E+00  0.00000E+00  9.000E+00
      21    -1     0     0   512   502  0.000000000E+00  0.000000000E+00 -5.168807386E+02  5.168807386E+02  0.000000000E+00  0.00000E+00  9.000E+00
      25     1     1     2     0     0 -8.918653432E+01  8.626522274E+01 -3.660589066E+02  4.062265989E+02  1.250000000E+02  0.00000E+00  9.000E+00
      25     1     1     2     0     0  6.677991861E+01 -4.416050257E+01  2.598648497E+02  2.992731990E+02  1.250000000E+02  0.00000E+00  9.000E+00
      21     1     1     2   512   501  2.240661571E+01 -4.210472017E+01 -1.059118041E+02  1.161558184E+02  1.348699152E-06  0.00000E+00  9.000E+00
#rwgt            1           1   2.8549307356062623E-002           4      102584           0
</event>
<event>
      5   9999  3.19816E-02  7.21621E+01 -1.00000E+00  1.30555E-01
      21    -1     0     0   502   501  0.000000000E+00  0.000000000E+00  1.334637247E+02  1.334637247E+02  0.000000000E+00  0.00000E+00  9.000E+00
      21    -1     0     0   511   502  0.000000000E+00  0.000000000E+00 -1.304944748E+03  1.304944748E+03  0.000000000E+00  0.00000E+00  9.000E+00
      25     1     1     2     0     0 -4.942652730E+01  2.079161255E+02 -2.380535207E+01  2.487243286E+02  1.250000000E+02  0.00000E+00  9.000E+00
      25     1     1     2     0     0 -2.063193179E+01 -1.906193442E+02 -7.066131207E+02  7.427573717E+02  1.250000000E+02  0.00000E+00  9.000E+00
      21     1     1     2   511   501  7.005845909E+01 -1.729678125E+01 -4.410625503E+02  4.469267721E+02  5.394796609E-06  0.00000E+00  9.000E+00
#rwgt            1           1   3.0514165953074386E-002           4      102677           0
</event>
<event>
      5   9999  3.19816E-02  4.73213E+01 -1.00000E+00  1.40454E-01
      21    -1     0     0   502   501  0.000000000E+00  0.000000000E+00  1.428637421E+03  1.428637421E+03  0.000000000E+00  0.00000E+00  9.000E+00
      21    -1     0     0   501   512  0.000000000E+00  0.000000000E+00 -3.807455990E+02  3.807455990E+02  0.000000000E+00  0.00000E+00  9.000E+00
      25     1     1     2     0     0  2.424616859E+02 -1.312903102E+02 -2.827191540E+02  4.142220838E+02  1.250000000E+02  0.00000E+00  9.000E+00
      25     1     1     2     0     0 -2.410633109E+02  1.785909079E+02  1.297041981E+03  1.337142151E+03  1.250000000E+02  0.00000E+00  9.000E+00
      21     1     1     2   502   512 -1.398374952E+00 -4.730059765E+01  3.356899558E+01  5.801878537E+01  6.743495762E-07  0.00000E+00  9.000E+00
#rwgt            2          11   2.0652336374512435E-002           4      102837           0
</event>
<event>
      5   9999  3.19816E-02  2.50115E+01 -1.00000E+00  1.58736E-01
      21    -1     0     0   502   501  0.000000000E+00  0.000000000E+00  7.289178067E+02  7.289178067E+02  0.000000000E+00  0.00000E+00  9.000E+00
      21    -1     0     0   501   511  0.000000000E+00  0.000000000E+00 -1.061414893E+03  1.061414893E+03  0.000000000E+00  0.00000E+00  9.000E+00
      25     1     1     2     0     0  7.911914144E+01  4.266168554E+02 -5.496835346E+02  7.113640194E+02  1.250000000E+02  0.00000E+00  9.000E+00
      25     1     1     2     0     0 -7.445944016E+01 -4.511905133E+02  5.608665953E+02  7.343796193E+02  1.250000000E+02  0.00000E+00  9.000E+00
      21     1     1     2   502   511 -4.659701277E+00  2.457365791E+01 -3.436801468E+02  3.445890607E+02  0.000000000E+00  0.00000E+00  9.000E+00
#rwgt            1           1   3.1601138243435231E-002           4      102857           0
</event>
<event>
      5   9999  3.19816E-02  2.63940E+02 -1.00000E+00  1.07431E-01
      21    -1     0     0   502   512  0.000000000E+00  0.000000000E+00  1.043859360E+03  1.043859360E+03  0.000000000E+00  0.00000E+00  9.000E+00
      21    -1     0     0   501   502  0.000000000E+00  0.000000000E+00 -2.951996418E+02  2.951996418E+02  0.000000000E+00  0.00000E+00  9.000E+00
      25     1     1     2     0     0  7.868101386E+01  3.409595113E+02  3.118398912E+01  3.728827315E+02  1.250000000E+02  0.00000E+00  9.000E+00
      25     1     1     2     0     0 -5.757955545E+01 -7.786465155E+01 -4.077853585E+01  1.632978817E+02  1.250000000E+02  0.00000E+00  9.000E+00
      21     1     1     2   501   512 -2.110145841E+01 -2.630948597E+02  7.582542645E+02  8.028783883E+02  1.525878906E-05  0.00000E+00  9.000E+00
#rwgt            2          11   3.3224781736952403E-003           4      103153           0
</event>
<event>
      5   9999  3.19816E-02  5.87259E+01 -1.00000E+00  1.35203E-01
      21    -1     0     0   502   501  0.000000000E+00  0.000000000E+00  1.895615284E+03  1.895615284E+03  0.000000000E+00  0.00000E+00  9.000E+00
      21    -1     0     0   501   511  0.000000000E+00  0.000000000E+00 -5.585225139E+01  5.585225139E+01  0.000000000E+00  0.00000E+00  9.000E+00
      25     1     1     2     0     0  1.881124991E+02  1.546753512E+02  1.385117040E+03  1.411908280E+03  1.250000000E+02  0.00000E+00  9.000E+00
      25     1     1     2     0     0 -1.316489133E+02 -1.385323696E+02  3.247122581E+02  3.969706593E+02  1.250000000E+02  0.00000E+00  9.000E+00
      21     1     1     2   502   511 -5.646358581E+01 -1.614298165E+01  1.299337344E+02  1.425885960E+02  1.907348633E-06  0.00000E+00  9.000E+00
#rwgt            1           1   3.4771153315760917E-002           4      103188           0
</event>
<event>
      5   9999  3.19816E-02  1.57208E+02 -1.00000E+00  1.15591E-01
      21    -1     0     0   502   501  0.000000000E+00  0.000000000E+00  2.126441404E+03  2.126441404E+03  0.000000000E+00  0.00000E+00  9.000E+00
      21    -1     0     0   501   512  0.000000000E+00  0.000000000E+00 -5.843159903E+02  5.843159903E+02  0.000000000E+00  0.00000E+00  9.000E+00
      25     1     1     2     0     0 -6.716614944E+02  5.762448721E+01  1.733292248E+03  1.863968015E+03  1.250000000E+02  0.00000E+00  9.000E+00
      25     1     1     2     0     0  6.417035786E+02  9.670241194E+01 -1.965592006E+02  6.894892012E+02  1.250000000E+02  0.00000E+00  9.000E+00
      21     1     1     2   502   512  2.995791585E+01 -1.543268992E+02  5.392366739E+00  1.573001785E+02  1.677423391E-06  0.00000E+00  9.000E+00
#rwgt            2          11   9.2092793044400573E-003           4      103286           0
</event>
<event>
      5   9999  3.19816E-02  7.41302E+01 -1.00000E+00  1.29972E-01
      21    -1     0     0   502   511  0.000000000E+00  0.000000000E+00  6.631156330E+02  6.631156330E+02  0.000000000E+00  0.00000E+00  9.000E+00
      21    -1     0     0   501   502  0.000000000E+00  0.000000000E+00 -7.108108474E+02  7.108108474E+02  0.000000000E+00  0.00000E+00  9.000E+00
      25     1     1     2     0     0 -6.181938068E+02  4.314202870E+01  3.310853822E+01  6.330450163E+02  1.250000000E+02  0.00000E+00  9.000E+00
      25     1     1     2     0     0  6.472234461E+02  2.506769658E+01 -9.152750124E+01  6.659796259E+02  1.250000000E+02  0.00000E+00  9.000E+00
      21     1     1     2   501   511 -2.902963930E+01 -6.820972528E+01  1.072374866E+01  7.490183820E+01  1.186117455E-06  0.00000E+00  9.000E+00
#rwgt            1           1   3.0550357817826876E-002           4      103321           0
</event>
<event>
      5   9999  3.19816E-02  1.26849E+02 -1.00000E+00  1.19354E-01
       3    -1     0     0   502     0  0.000000000E+00  0.000000000E+00  1.305827513E+02  1.305827513E+02  0.000000000E+00  0.00000E+00  9.000E+00
      21    -1     0     0   501   502  0.000000000E+00  0.000000000E+00 -2.300461141E+03  2.300461141E+03  0.000000000E+00  0.00000E+00  9.000E+00
      25     1     1     2     0     0  4.965528758E+02 -1.614415839E+02 -9.955822896E+02  1.131122115E+03  1.250000000E+02  0.00000E+00  9.000E+00
      25     1     1     2     0     0 -3.708941261E+02  1.787746685E+02 -8.863568650E+02  9.852798217E+02  1.250000000E+02  0.00000E+00  9.000E+00
       3     1     1     2   501     0 -1.256587497E+02 -1.733308469E+01 -2.879392353E+02  3.146419560E+02  3.814697266E-06  0.00000E+00  9.000E+00
#rwgt            1           1   3.8669265622518864E-002           4      103398           0
</event>
<event>
      5   9999  3.19816E-02  1.25408E+02 -1.00000E+00  1.19561E-01
       3    -1     0     0   502     0  0.000000000E+00  0.000000000E+00  3.490471990E+02  3.490471990E+02  0.000000000E+00  0.00000E+00  9.000E+00
      21    -1     0     0   501   502  0.000000000E+00  0.000000000E+00 -1.383502952E+03  1.383502952E+03  0.000000000E+00  0.00000E+00  9.000E+00
      25     1     1     2     0     0  2.747422744E+02  3.989761204E+02 -1.102863563E+03  1.211031916E+03  1.250000000E+02  0.00000E+00  9.000E+00
      25     1     1     2     0     0 -2.068405223E+02 -2.935407050E+02  9.802182347E+01  3.926606997E+02  1.250000000E+02  0.00000E+00  9.000E+00
       3     1     1     2   501     0 -6.790175207E+01 -1.054354153E+02 -2.961401354E+01  1.288575358E+02  1.752011592E-06  0.00000E+00  9.000E+00
#rwgt            1           1   2.8878309532246564E-002           4      103529           0
</event>
<event>
      5   9999  3.19816E-02  7.57288E+01 -1.00000E+00  1.29514E-01
      21    -1     0     0   502   501  0.000000000E+00  0.000000000E+00  4.963796004E+02  4.963796004E+02  0.000000000E+00  0.00000E+00  9.000E+00
      21    -1     0     0   511   502  0.000000000E+00  0.000000000E+00 -5.106720625E+02  5.106720625E+02  0.000000000E+00  0.00000E+00  9.000E+00
      25     1     1     2     0     0  1.741651663E+02  3.152946535E+02  2.887270460E+02  4.782598987E+02  1.250000000E+02  0.00000E+00  9.000E+00
      25     1     1     2     0     0 -9.991279520E+01 -3.004138870E+02 -1.818622565E+02  3.859144341E+02  1.250000000E+02  0.00000E+00  9.000E+00
      21     1     1     2   511   501 -7.425237105E+01 -1.488076653E+01 -1.211572516E+02  1.428773300E+02  1.348699152E-06  0.00000E+00  9.000E+00
#rwgt            1           1   2.8188087964636888E-002           4      103613           0
</event>
<event>
      5   9999  3.19816E-02  6.30673E+01 -1.00000E+00  1.33556E-01
      21    -1     0     0   502   501  0.000000000E+00  0.000000000E+00  2.240544614E+03  2.240544614E+03  0.000000000E+00  0.00000E+00  9.000E+00
      21    -1     0     0   512   502  0.000000000E+00  0.000000000E+00 -4.665098099E+01  4.665098099E+01  0.000000000E+00  0.00000E+00  9.000E+00
      25     1     1     2     0     0  2.030980079E+02 -5.039763296E+01  1.201847468E+03  1.226316052E+03  1.250000000E+02  0.00000E+00  9.000E+00
      25     1     1     2     0     0 -1.690996206E+02  1.035162586E+02  9.635967558E+02  9.916924953E+02  1.250000000E+02  0.00000E+00  9.000E+00
      21     1     1     2   512   501 -3.399838726E+01 -5.311862562E+01  2.844940915E+01  6.918704795E+01  1.215700987E-06  0.00000E+00  9.000E+00
#rwgt            1           1   7.1413531160744004E-002           4      103693           0
</event>
<event>
      5   9999  3.19816E-02  1.02621E+01 -1.00000E+00  1.94467E-01
      21    -1     0     0   511   501  0.000000000E+00  0.000000000E+00  8.215186465E+02  8.215186465E+02  0.000000000E+00  0.00000E+00  9.000E+00
      21    -1     0     0   501   502  0.000000000E+00  0.000000000E+00 -1.089342118E+03  1.089342118E+03  0.000000000E+00  0.00000E+00  9.000E+00
      25     1     1     2     0     0  5.216710776E+02 -7.687800604E+02 -1.604237661E+02  9.510648134E+02  1.250000000E+02  0.00000E+00  9.000E+00
      25     1     1     2     0     0 -5.299558389E+02  7.627242790E+02 -1.185918200E+02  9.446113152E+02  1.250000000E+02  0.00000E+00  9.000E+00
      21     1     1     2   511   502  8.284761311E+00  6.055781457E+00  1.119211427E+01  1.518463634E+01  1.685873940E-07  0.00000E+00  9.000E+00
#rwgt            1           1   3.1348261494449747E-002           4      103733           0
</event>
<event>
      5   9999  3.19816E-02  6.41229E+01 -1.00000E+00  1.33179E-01
      21    -1     0     0   512   501  0.000000000E+00  0.000000000E+00  1.834327137E+02  1.834327137E+02  0.000000000E+00  0.00000E+00  9.000E+00
      21    -1     0     0   501   502  0.000000000E+00  0.000000000E+00 -7.591390663E+02  7.591390663E+02  0.000000000E+00  0.00000E+00  9.000E+00
      25     1     1     2     0     0  1.518832999E+02  1.753348471E+02 -1.688500092E+02  3.129635299E+02  1.250000000E+02  0.00000E+00  9.000E+00
      25     1     1     2     0     0 -1.315298447E+02 -2.361417885E+02 -4.588733276E+02  5.470400123E+02  1.250000000E+02  0.00000E+00  9.000E+00
      21     1     1     2   512   502 -2.035345518E+01  6.080694134E+01  5.201698428E+01  8.256823788E+01  9.536743164E-07  0.00000E+00  9.000E+00
#rwgt            1           1   2.8889595168011425E-002           4      104127           0
</event>
<event>
      5   9999  3.19816E-02  2.94926E+01 -1.00000E+00  1.53556E-01
      21    -1     0     0   502   511  0.000000000E+00  0.000000000E+00  8.287217565E+02  8.287217565E+02  0.000000000E+00  0.00000E+00  9.000E+00
      21    -1     0     0   501   502  0.000000000E+00  0.000000000E+00 -2.716468307E+02  2.716468307E+02  0.000000000E+00  0.00000E+00  9.000E+00
      25     1     1     2     0     0 -1.166570128E+02 -3.594761178E+02  1.122268368E+01  3.982246684E+02  1.250000000E+02  0.00000E+00  9.000E+00
      25     1     1     2     0     0  1.457962150E+02  3.640282614E+02  4.997688996E+02  6.474311272E+02  1.250000000E+02  0.00000E+00  9.000E+00
      21     1     1     2   501   511 -2.913920216E+01 -4.552143606E+00  4.608334252E+01  5.471279166E+01  0.000000000E+00  0.00000E+00  9.000E+00
#rwgt            1           1   2.8583683612870198E-002           4      104177           0
</event>
<event>
      5   9999  3.19816E-02  1.71596E+02 -1.00000E+00  1.14125E-01
      21    -1     0     0   502   512  0.000000000E+00  0.000000000E+00  6.804433126E+02  6.804433126E+02  0.000000000E+00  0.00000E+00  9.000E+00
      21    -1     0     0   501   502  0.000000000E+00  0.000000000E+00 -1.599641333E+03  1.599641333E+03  0.000000000E+00  0.00000E+00  9.000E+00
      25     1     1     2     0     0 -4.764416119E+02  5.196067526E+02  2.546568658E+01  7.164225625E+02  1.250000000E+02  0.00000E+00  9.000E+00
      25     1     1     2     0     0  5.350793072E+02 -6.808728679E+02 -1.046542202E+03  1.364101649E+03  1.250000000E+02  0.00000E+00  9.000E+00
      21     1     1     2   501   512 -5.863769537E+01  1.612661153E+02  1.018784950E+02  1.995604345E+02  3.814697266E-06  0.00000E+00  9.000E+00
#rwgt            1           1   3.1668867263676355E-002           4      104275           0
</event>
<event>
      5   9999  3.19816E-02  3.42531E+02 -1.00000E+00  1.03754E-01
      21    -1     0     0   502   501  0.000000000E+00  0.000000000E+00  5.139102175E+02  5.139102175E+02  0.000000000E+00  0.00000E+00  9.000E+00
      21    -1     0     0   501   511  0.000000000E+00  0.000000000E+00 -2.828292708E+03  2.828292708E+03  0.000000000E+00  0.00000E+00  9.000E+00
      25     1     1     2     0     0  3.209704002E+02 -4.028291706E+02  1.725044643E+02  5.573832870E+02  1.250000000E+02  0.00000E+00  9.000E+00
      25     1     1     2     0     0 -5.450194580E+02  6.619223706E+02 -2.077989926E+03  2.251411683E+03  1.250000000E+02  0.00000E+00  9.000E+00
      21     1     1     2   502   511  2.240490579E+02 -2.590932000E+02 -4.088970284E+02  5.334079550E+02  9.344061824E-06  0.00000E+00  9.000E+00
#rwgt            1           1   1.8190109190790320E-002           4      104341           0
</event>
<event>
      5   9999  3.19816E-02  3.04732E+01 -1.00000E+00  1.52569E-01
      21    -1     0     0   502   512  0.000000000E+00  0.000000000E+00  2.428056324E+02  2.428056324E+02  0.000000000E+00  0.00000E+00  9.000E+00
      21    -1     0     0   501   502  0.000000000E+00  0.000000000E+00 -2.024871728E+02  2.024871728E+02  0.000000000E+00  0.00000E+00  9.000E+00
      25     1     1     2     0     0  3.764160123E+01 -1.954728113E+01 -1.473136843E+02  1.978011829E+02  1.250000000E+02  0.00000E+00  9.000E+00
      25     1     1     2     0     0 -1.079731324E+01  5.125009461E+00  1.217468926E+02  1.749004104E+02  1.250000000E+02  0.00000E+00  9.000E+00
      21     1     1     2   501   512 -2.684428799E+01  1.442227167E+01  6.588525132E+01  7.259121200E+01  9.536743164E-07  0.00000E+00  9.000E+00
#rwgt            1           1   2.5759690682913644E-002           4      104401           0
</event>
<event>
      5   9999  3.19816E-02  7.63512E+01 -1.00000E+00  1.29339E-01
      21    -1     0     0   502   511  0.000000000E+00  0.000000000E+00  1.704114399E+03  1.704114399E+03  0.000000000E+00  0.00000E+00  9.000E+00
      21    -1     0     0   501   502  0.000000000E+00  0.000000000E+00 -4.991393360E+01  4.991393360E+01  0.000000000E+00  0.00000E+00  9.000E+00
      25     1     1     2     0     0  1.454660631E+02  5.227430572E+01  3.075822310E+02  3.662305386E+02  1.250000000E+02  0.00000E+00  9.000E+00
      25     1     1     2     0     0 -2.128781242E+02 -1.642581255E+01  8.475492267E+02  8.829221907E+02  1.250000000E+02  0.00000E+00  9.000E+00
      21     1     1     2   501   511  6.741206105E+01 -3.584849317E+01  4.990690072E+02  5.048756029E+02  7.629394531E-06  0.00000E+00  9.000E+00
#rwgt            1           1   3.0607930467190941E-002           4      104559           0
</event>
<event>
      5   9999  3.19816E-02  1.00288E+02 -1.00000E+00  1.23772E-01
      21    -1     0     0   512   501  0.000000000E+00  0.000000000E+00  7.420720344E+02  7.420720344E+02  0.000000000E+00  0.00000E+00  9.000E+00
      21    -1     0     0   501   502  0.000000000E+00  0.000000000E+00 -3.480721817E+02  3.480721817E+02  0.000000000E+00  0.00000E+00  9.000E+00
      25     1     1     2     0     0  1.433207503E+02 -4.571334858E+02  8.569746707E+01  5.024747926E+02  1.250000000E+02  0.00000E+00  9.000E+00
      25     1     1     2     0     0 -1.237835973E+02  3.587671883E+02  2.561670186E+02  4.746396694E+02  1.250000000E+02  0.00000E+00  9.000E+00
      21     1     1     2   512   502 -1.953715300E+01  9.836629746E+01  5.213536700E+01  1.130297541E+02  6.743495762E-07  0.00000E+00  9.000E+00
#rwgt            1           1   2.6687155572176165E-002           4      104639           0
</event>
<event>
      5   9999  3.19816E-02  1.03344E+03 -1.00000E+00  9.06496E-02
      21    -1     0     0   511   501  0.000000000E+00  0.000000000E+00  1.227810044E+03  1.227810044E+03  0.000000000E+00  0.00000E+00  9.000E+00
      21    -1     0     0   501   502  0.000000000E+00  0.000000000E+00 -1.454408885E+03  1.454408885E+03  0.000000000E+00  0.00000E+00  9.000E+00
      25     1     1     2     0     0  1.981310220E+02 -5.182411904E+02  1.425701638E+02  5.863284787E+02  1.250000000E+02  0.00000E+00  9.000E+00
      25     1     1     2     0     0  8.337332093E+02  4.612132334E+02 -4.463632330E+02  1.059572483E+03  1.250000000E+02  0.00000E+00  9.000E+00
      21     1     1     2   511   502 -1.031864231E+03  5.702795702E+01  7.719422812E+01  1.036317967E+03  3.303624740E-06  0.00000E+00  9.000E+00
#rwgt            2          11   8.9063310354768718E-004           4      104758           0
</event>
<event>
      5   9999  3.19816E-02  1.04323E+02 -1.00000E+00  1.23007E-01
      21    -1     0     0   512   501  0.000000000E+00  0.000000000E+00  1.166248154E+02  1.166248154E+02  0.000000000E+00  0.00000E+00  9.000E+00
      21    -1     0     0   501   502  0.000000000E+00  0.000000000E+00 -8.109499899E+02  8.109499899E+02  0.000000000E+00  0.00000E+00  9.000E+00
      25     1     1     2     0     0 -1.486868277E+02  7.718591594E+01 -2.322553001E+02  3.124627382E+02  1.250000000E+02  0.00000E+00  9.000E+00
      25     1     1     2     0     0  2.513869191E+02 -5.885338608E+01 -4.047118299E+02  4.960602477E+02  1.250000000E+02  0.00000E+00  9.000E+00
      21     1     1     2   512   502 -1.027000914E+02 -1.833252986E+01 -5.735804451E+01  1.190518193E+02  2.132480600E-06  0.00000E+00  9.000E+00
#rwgt            1           1   2.5259123280156531E-002           4      104793           0
</event>
<event>
      5   9999  3.19816E-02  2.34399E+01 -1.00000E+00  1.60876E-01
      21    -1     0     0   511   501  0.000000000E+00  0.000000000E+00  7.676630926E+02  7.676630926E+02  0.000000000E+00  0.00000E+00  9.000E+00
      21    -1     0     0   501   502  0.000000000E+00  0.000000000E+00 -1.522158164E+02  1.522158164E+02  0.000000000E+00  0.00000E+00  9.000E+00
      25     1     1     2     0     0  2.918451508E+02 -1.872397355E+01  2.418322251E+02  3.995397406E+02  1.250000000E+02  0.00000E+00  9.000E+00
      25     1     1     2     0     0 -3.028213649E+02  3.943517648E+01  3.108124116E+02  4.533048284E+02  1.250000000E+02  0.00000E+00  9.000E+00
      21     1     1     2   511   502  1.097621412E+01 -2.071120293E+01  6.280263957E+01  6.703434001E+01  0.000000000E+00  0.00000E+00  9.000E+00
#rwgt            1           1   2.8524291357082215E-002           4      104914           0
</event>
<event>
      5   9999  3.19816E-02  6.07246E+01 -1.00000E+00  1.34425E-01
      21    -1     0     0   502   512  0.000000000E+00  0.000000000E+00  3.368289595E+02  3.368289595E+02  0.000000000E+00  0.00000E+00  9.000E+00
      21    -1     0     0   501   502  0.000000000E+00  0.000000000E+00 -8.755508653E+02  8.755508653E+02  0.000000000E+00  0.00000E+00  9.000E+00
      25     1     1     2     0     0  3.944027065E+00  4.554343175E+02 -4.853138836E+02  6.771931324E+02  1.250000000E+02  0.00000E+00  9.000E+00
      25     1     1     2     0     0 -4.808810496E+01 -4.137356843E+02 -1.138286732E+02  4.495238026E+02  1.250000000E+02  0.00000E+00  9.000E+00
      21     1     1     2   501   512  4.414407789E+01 -4.169863325E+01  6.042065103E+01  8.566288986E+01  1.507891493E-06  0.00000E+00  9.000E+00
#rwgt            2          11   2.9198824843117395E-003           4      105161           0
</event>
<event>
      5   9999  3.19816E-02  5.15939E+01 -1.00000E+00  1.38302E-01
      -1    -1     0     0     0   501  0.000000000E+00  0.000000000E+00  3.306852417E+02  3.306852417E+02  0.000000000E+00  0.00000E+00  9.000E+00
      21    -1     0     0   501   502  0.000000000E+00  0.000000000E+00 -8.073980013E+02  8.073980013E+02  0.000000000E+00  0.00000E+00  9.000E+00
      25     1     1     2     0     0 -1.287503041E+02  2.464284167E+02 -5.406507558E+02  6.206704803E+02  1.250000000E+02  0.00000E+00  9.000E+00
      25     1     1     2     0     0  9.402155221E+01 -2.845839053E+02 -1.045909066E+02  3.411631709E+02  1.250000000E+02  0.00000E+00  9.000E+00
      -1     1     1     2     0   502  3.472875193E+01  3.815548867E+01  1.685289028E+02  1.762495918E+02  2.697398305E-06  0.00000E+00  9.000E+00
#rwgt            1           1   1.0673781409945567E-002           4      105181           0
</event>
<event>
      5   9999  3.19816E-02  6.50465E+01 -1.00000E+00  1.32856E-01
      21    -1     0     0   502   501  0.000000000E+00  0.000000000E+00  2.266673845E+02  2.266673845E+02  0.000000000E+00  0.00000E+00  9.000E+00
       1    -1     0     0   501     0  0.000000000E+00  0.000000000E+00 -2.031647160E+03  2.031647160E+03  0.000000000E+00  0.00000E+00  9.000E+00
      25     1     1     2     0     0 -1.043111861E+02  4.536283145E+02 -6.092695093E+02  7.768486379E+02  1.250000000E+02  0.00000E+00  9.000E+00
      25     1     1     2     0     0  4.582628455E+01 -4.251578071E+02 -2.081093805E+02  4.917252521E+02  1.250000000E+02  0.00000E+00  9.000E+00
       1     1     1     2   502     0  5.848490159E+01 -2.847050736E+01 -9.876008857E+02  9.897406544E+02  1.868812365E-05  0.00000E+00  9.000E+00
#rwgt            1           1   2.9303638090117708E-002           4      105297           0
</event>
<event>
      5   9999  3.19816E-02  1.27710E+02 -1.00000E+00  1.19231E-01
      21    -1     0     0   502   501  0.000000000E+00  0.000000000E+00  3.809414511E+02  3.809414511E+02  0.000000000E+00  0.00000E+00  9.000E+00
      21    -1     0     0   511   502  0.000000000E+00  0.000000000E+00 -8.904282676E+02  8.904282676E+02  0.000000000E+00  0.00000E+00  9.000E+00
      25     1     1     2     0     0 -5.753200154E+01 -1.897522612E+02 -1.866290014E+02  2.996184841E+02  1.250000000E+02  0.00000E+00  9.000E+00
      25     1     1     2     0     0  1.195632322E+02  7.811879519E+01  2.895267705E+02  3.461916572E+02  1.250000000E+02  0.00000E+00  9.000E+00
      21     1     1     2   511   501 -6.203123062E+01  1.116334660E+02 -6.123845856E+02  6.255595775E+02  1.321449896E-05  0.00000E+00  9.000E+00
#rwgt            1           1   2.4589902042150339E-002           4      105393           0
</event>
<event>
      5   9999  3.19816E-02  1.24289E+02 -1.00000E+00  1.19724E-01
      21    -1     0     0   502   512  0.000000000E+00  0.000000000E+00  3.217696276E+02  3.217696276E+02  0.000000000E+00  0.00000E+00  9.000E+00
      21    -1     0     0   501   502  0.000000000E+00  0.000000000E+00 -2.062560942E+02  2.062560942E+02  0.000000000E+00  0.00000E+00  9.000E+00
      25     1     1     2     0     0 -1.149175948E+02 -2.596706496E+01  4.593068965E+01  1.778059906E+02  1.250000000E+02  0.00000E+00  9.000E+00
      25     1     1     2     0     0  3.473464457E+01  1.209328326E+02 -4.302672822E+01  1.825035476E+02  1.250000000E+02  0.00000E+00  9.000E+00
      21     1     1     2   501   512  8.018295020E+01 -9.496576768E+01  1.126095719E+02  1.677161835E+02  2.336015456E-06  0.00000E+00  9.000E+00
#rwgt            1           1   2.7612645687859965E-002           4      105462           0
</event>
<event>
      5   9999  3.19816E-02  7.76277E+01 -1.00000E+00  1.28985E-01
      21    -1     0     0   502   501  0.000000000E+00  0.000000000E+00  4.772989992E+02  4.772989992E+02  0.000000000E+00  0.00000E+00  9.000E+00
      21    -1     0     0   501   511  0.000000000E+00  0.000000000E+00 -2.841189663E+02  2.841189663E+02  0.000000000E+00  0.00000E+00  9.000E+00
      25     1     1     2     0     0 -3.003981612E+02 -8.518938192E+01  1.371027363E+02  3.632057907E+02  1.250000000E+02  0.00000E+00  9.000E+00
      25     1     1     2     0     0  2.619218997E+02  1.776807609E+01  1.018596989E+02  3.080895719E+02  1.250000000E+02  0.00000E+00  9.000E+00
      21     1     1     2   502   511  3.847626154E+01  6.742130583E+01 -4.578240234E+01  9.012260286E+01  1.784161275E-06  0.00000E+00  9.000E+00
#rwgt            1           1   2.7848012239111250E-002           4      105502           0
</event>
<event>
      5   9999  3.19816E-02  8.84918E+01 -1.00000E+00  1.26264E-01
      21    -1     0     0   502   501  0.000000000E+00  0.000000000E+00  2.581540314E+03  2.581540314E+03  0.000000000E+00  0.00000E+00  9.000E+00
      21    -1     0     0   501   512  0.000000000E+00  0.000000000E+00 -1.400722392E+02  1.400722392E+02  0.000000000E+00  0.00000E+00  9.000E+00
      25     1     1     2     0     0 -1.813205866E+02 -4.331495147E+02  1.380249054E+03  1.463286748E+03  1.250000000E+02  0.00000E+00  9.000E+00
      25     1     1     2     0     0  1.421783229E+02  5.125136969E+02  1.027306242E+03  1.163558370E+03  1.250000000E+02  0.00000E+00  9.000E+00
      21     1     1     2   502   512  3.914226373E+01 -7.936418220E+01  3.391277946E+01  9.476743553E+01  2.132480600E-06  0.00000E+00  9.000E+00
#rwgt            1           1   2.3645680137030771E-002           4      105554           0
</event>
<event>
      5   9999  3.19816E-02  3.28600E+01 -1.00000E+00  1.50343E-01
      21    -1     0     0   502   511  0.000000000E+00  0.000000000E+00  2.817683081E+02  2.817683081E+02  0.000000000E+00  0.00000E+00  9.000E+00
      21    -1     0     0   501   502  0.000000000E+00  0.000000000E+00 -3.497891034E+02  3.497891034E+02  0.000000000E+00  0.00000E+00  9.000E+00
      25     1     1     2     0     0  8.444816099E+01 -1.262767937E+02 -2.623333828E+02  3.279041388E+02  1.250000000E+02  0.00000E+00  9.000E+00
      25     1     1     2     0     0 -1.058453950E+02  1.013381430E+02  1.899314231E+02  2.705025182E+02  1.250000000E+02  0.00000E+00  9.000E+00
      21     1     1     2   501   511  2.139723400E+01  2.493865071E+01  4.381164388E+00  3.315075449E+01  2.149076030E-07  0.00000E+00  9.000E+00
#rwgt            1           1   2.5499065753811792E-002           4      105632           0
</event>
<event>
      5   9999  3.19816E-02  2.02990E+01 -1.00000E+00  1.65839E-01
      21    -1     0     0   502   501  0.000000000E+00  0.000000000E+00  2.785980081E+03  2.785980081E+03  0.000000000E+00  0.00000E+00  9.000E+00
      21    -1     0     0   501   512  0.000000000E+00  0.000000000E+00 -5.778338097E+02  5.778338097E+02  0.000000000E+00  0.00000E+00  9.000E+00
      25     1     1     2     0     0  8.033862056E+02 -4.537159933E+02  7.346772628E+00  9.311103978E+02  1.250000000E+02  0.00000E+00  9.000E+00
      25     1     1     2     0     0 -7.946545602E+02  4.720410887E+02  2.217980769E+03  2.406109380E+03  1.250000000E+02  0.00000E+00  9.000E+00
      21     1     1     2   502   512 -8.731645359E+00 -1.832509540E+01 -1.718127041E+01  2.659411222E+01  6.307962682E-07  0.00000E+00  9.000E+00
#rwgt            1           1   6.0619021422131270E-002           4      105766           0
</event>
<event>
      5   9999  3.19816E-02  7.97186E+01 -1.00000E+00  1.28424E-01
       2    -1     0     0   502     0  0.000000000E+00  0.000000000E+00  6.290293691E+02  6.290293691E+02  0.000000000E+00  0.00000E+00  9.000E+00
      21    -1     0     0   501   502  0.000000000E+00  0.000000000E+00 -2.087693416E+02  2.087693416E+02  0.000000000E+00  0.00000E+00  9.000E+00
      25     1     1     2     0     0 -1.222218122E+02  6.686756908E+00  7.033074574E+00  1.750923991E+02  1.250000000E+02  0.00000E+00  9.000E+00
      25     1     1     2     0     0  2.019402682E+02 -6.823386904E+00 -4.303125537E+00  2.376340620E+02  1.250000000E+02  0.00000E+00  9.000E+00
       2     1     1     2   501     0 -7.971845606E+01  1.366299962E-01  4.175300785E+02  4.250722496E+02  5.394796609E-06  0.00000E+00  9.000E+00
#rwgt            1           1   2.5482938732760477E-002           4      106076           0
</event>
<event>
      5   9999  3.19816E-02  2.09582E+01 -1.00000E+00  1.64709E-01
      21    -1     0     0   502   511  0.000000000E+00  0.000000000E+00  1.138399025E+03  1.138399025E+03  0.000000000E+00  0.00000E+00  9.000E+00
      21    -1     0     0   501   502  0.000000000E+00  0.000000000E+00 -2.293225200E+02  2.293225200E+02  0.000000000E+00  0.00000E+00  9.000E+00
      25     1     1     2     0     0 -3.321640252E+02  3.045503568E+02  5.695988637E+02  7.369882801E+02  1.250000000E+02  0.00000E+00  9.000E+00
      25     1     1     2     0     0  3.432320681E+02 -3.223476662E+02  2.675398322E+02  5.558046710E+02  1.250000000E+02  0.00000E+00  9.000E+00
      21     1     1     2   501   511 -1.106804287E+01  1.779730941E+01  7.193780970E+01  7.492859441E+01  9.536743164E-07  0.00000E+00  9.000E+00
#rwgt            1           1   2.7241789961400326E-002           4      106159           0
</event>
<event>
      5   9999  3.19816E-02  8.15390E+01 -1.00000E+00  1.27950E-01
      21    -1     0     0   512   501  0.000000000E+00  0.000000000E+00  4.116343031E+02  4.116343031E+02  0.000000000E+00  0.00000E+00  9.000E+00
      21    -1     0     0   501   502  0.000000000E+00  0.000000000E+00 -2.783951766E+02  2.783951766E+02  0.000000000E+00  0.00000E+00  9.000E+00
      25     1     1     2     0     0 -1.471946328E+00 -4.599591408E+01 -2.157498342E+02  2.535562692E+02  1.250000000E+02  0.00000E+00  9.000E+00
      25     1     1     2     0     0  4.124312517E+01  1.171778342E+02  1.994781832E+02  2.661732251E+02  1.250000000E+02  0.00000E+00  9.000E+00
      21     1     1     2   512   502 -3.977117885E+01 -7.118192010E+01  1.495107774E+02  1.702999853E+02  0.000000000E+00  0.00000E+00  9.000E+00
#rwgt            1           1   2.6811862232944701E-002           4      106294           0
</event>
<event>
      5   9999  3.19816E-02  1.66242E+02 -1.00000E+00  1.14651E-01
      21    -1     0     0   511   501  0.000000000E+00  0.000000000E+00  4.211147550E+02  4.211147550E+02  0.000000000E+00  0.00000E+00  9.000E+00
      21    -1     0     0   501   502  0.000000000E+00  0.000000000E+00 -9.030385327E+02  9.030385327E+02  0.000000000E+00  0.00000E+00  9.000E+00
      25     1     1     2     0     0 -9.865571610E+01  1.846520169E+02 -2.671439709E+02  3.616907780E+02  1.250000000E+02  0.00000E+00  9.000E+00
      25     1     1     2     0     0  1.402296052E+02 -2.369202120E+01 -5.535846937E+02  5.850697968E+02  1.250000000E+02  0.00000E+00  9.000E+00
      21     1     1     2   511   502 -4.157388909E+01 -1.609599957E+02  3.388048868E+02  3.773927130E+02  5.394796609E-06  0.00000E+00  9.000E+00
#rwgt            1           1   3.1806772336414581E-002           4      106358           0
</event>
<event>
      5   9999  3.19816E-02  6.75805E+01 -1.00000E+00  1.31999E-01
       2    -1     0     0   502     0  0.000000000E+00  0.000000000E+00  7.015118118E+02  7.015118118E+02  0.000000000E+00  0.00000E+00  9.000E+00
      21    -1     0     0   501   502  0.000000000E+00  0.000000000E+00 -3.179352079E+02  3.179352079E+02  0.000000000E+00  0.00000E+00  9.000E+00
      25     1     1     2     0     0  2.351127468E+02  5.891705011E+01 -1.094729495E+02  2.938682513E+02  1.250000000E+02  0.00000E+00  9.000E+00
      25     1     1     2     0     0 -2.905058193E+02 -9.763047958E+01  1.288783149E+02  3.551900360E+02  1.250000000E+02  0.00000E+00  9.000E+00
       2     1     1     2   501     0  5.539307256E+01  3.871342946E+01  3.641712386E+02  3.703887324E+02  5.394796609E-06  0.00000E+00  9.000E+00
#rwgt            1           1   2.6840582921777659E-002           4      106434           0
</event>
<event>
      5   9999  3.19816E-02  5.21561E+00 -1.00000E+00  2.35357E-01
      21    -1     0     0   502   511  0.000000000E+00  0.000000000E+00  2.876538778E+02  2.876538778E+02  0.000000000E+00  0.00000E+00  9.000E+00
      21    -1     0     0   501   502  0.000000000E+00  0.000000000E+00 -3.978117552E+02  3.978117552E+02  0.000000000E+00  0.00000E+00  9.000E+00
      25     1     1     2     0     0  3.280451938E+01  8.097706187E+01  2.452061260E+02  2.887636841E+02  1.250000000E+02  0.00000E+00  9.000E+00
      25     1     1     2     0     0 -3.734949613E+01 -8.353552740E+01 -3.585539611E+02  3.905881619E+02  1.250000000E+02  0.00000E+00  9.000E+00
      21     1     1     2   501   511  4.544976748E+00  2.558465534E+00  3.189957723E+00  6.113786863E+00  8.429369702E-08  0.00000E+00  9.000E+00
#rwgt            1           1   2.8582911848420055E-002           4      106501           0
</event>
<event>
      5   9999  3.19816E-02  7.60034E+01 -1.00000E+00  1.29436E-01
      21    -1     0     0   502   501  0.000000000E+00  0.000000000E+00  9.290340469E+02  9.290340469E+02  0.000000000E+00  0.00000E+00  9.000E+00
      21    -1     0     0   501   512  0.000000000E+00  0.000000000E+00 -5.116049163E+02  5.116049163E+02  0.000000000E+00  0.00000E+00  9.000E+00
      25     1     1     2     0     0  1.172526305E+02 -3.439527610E+01  6.448315040E+02  6.681046946E+02  1.250000000E+02  0.00000E+00  9.000E+00
      25     1     1     2     0     0 -1.014030140E+02 -3.993715962E+01  2.440117329E+02  2.950326656E+02  1.250000000E+02  0.00000E+00  9.000E+00
      21     1     1     2   502   512 -1.584961645E+01  7.433243572E+01 -4.714141063E+02  4.775016031E+02  0.000000000E+00  0.00000E+00  9.000E+00
#rwgt            1           1   1.1264677402078694E-002           4      106884           0
</event>
<event>
      5   9999  3.19816E-02  3.37261E+01 -1.00000E+00  1.49590E-01
      21    -1     0     0   502   501  0.000000000E+00  0.000000000E+00  5.640398247E+02  5.640398247E+02  0.000000000E+00  0.00000E+00  9.000E+00
      21    -1     0     0   511   502  0.000000000E+00  0.000000000E+00 -1.100068935E+03  1.100068935E+03  0.000000000E+00  0.00000E+00  9.000E+00
      25     1     1     2     0     0  4.953171925E+02 -6.243735126E+01  3.378463513E+02  6.156319526E+02  1.250000000E+02  0.00000E+00  9.000E+00
      25     1     1     2     0     0 -5.152578528E+02  8.963695020E+01 -7.693313500E+02  9.386272763E+02  1.250000000E+02  0.00000E+00  9.000E+00
      21     1     1     2   511   501  1.994066032E+01 -2.719959894E+01 -1.045441113E+02  1.098495304E+02  1.348699152E-06  0.00000E+00  9.000E+00
#rwgt            1           1   3.0690408032622112E-002           4      106966           0
</event>
<event>
      5   9999  3.19816E-02  6.18259E+01 -1.00000E+00  1.34011E-01
      21    -1     0     0   502   512  0.000000000E+00  0.000000000E+00  1.877887935E+02  1.877887935E+02  0.000000000E+00  0.00000E+00  9.000E+00
      21    -1     0     0   501   502  0.000000000E+00  0.000000000E+00 -3.276247524E+03  3.276247524E+03  0.000000000E+00  0.00000E+00  9.000E+00
      25     1     1     2     0     0 -8.859146547E+01  6.253257294E-01 -3.041645038E+03  3.045501334E+03  1.250000000E+02  0.00000E+00  9.000E+00
      25     1     1     2     0     0  4.937062612E+01  4.716770143E+01 -2.044700893E+02  2.491892217E+02  1.250000000E+02  0.00000E+00  9.000E+00
      21     1     1     2   501   512  3.922083935E+01 -4.779302716E+01  1.576563967E+02  1.693457620E+02  1.175768662E-05  0.00000E+00  9.000E+00
#rwgt            1           1   2.5592551693629017E-002           4      107097           0
</event>
<event>
      5   9999  3.19816E-02  1.64504E+02 -1.00000E+00  1.14827E-01
      21    -1     0     0   502   501  0.000000000E+00  0.000000000E+00  4.297109632E+02  4.297109632E+02  0.000000000E+00  0.00000E+00  9.000E+00
       2    -1     0     0   501     0  0.000000000E+00  0.000000000E+00 -1.869222561E+03  1.869222561E+03  0.000000000E+00  0.00000E+00  9.000E+00
      25     1     1     2     0     0  1.087428816E+00 -2.468434181E+02  2.683751500E+02  3.854647541E+02  1.250000000E+02  0.00000E+00  9.000E+00
      25     1     1     2     0     0 -3.371715792E+00  8.235560801E+01  4.228300752E+01  1.555849201E+02  1.250000000E+02  0.00000E+00  9.000E+00
       2     1     1     2   502     0  2.284286976E+00  1.644878101E+02 -1.750169756E+03  1.757883850E+03  2.157918644E-05  0.00000E+00  9.000E+00
#rwgt            1           1   3.0031061754258438E-002           4      107161           0
</event>
<event>
      5   9999  3.19816E-02  2.06316E+02 -1.00000E+00  1.11159E-01
       1    -1     0     0   502     0  0.000000000E+00  0.000000000E+00  3.316483089E+02  3.316483089E+02  0.000000000E+00  0.00000E+00  9.000E+00
      21    -1     0     0   501   502  0.000000000E+00  0.000000000E+00 -1.641548276E+03  1.641548276E+03  0.000000000E+00  0.00000E+00  9.000E+00
      25     1     1     2     0     0  6.516282478E+01 -2.621665815E+02 -8.497979445E+02  9.004215994E+02  1.250000000E+02  0.00000E+00  9.000E+00
      25     1     1     2     0     0  1.329755493E+02  3.196771232E+02 -6.787575240E+02  7.721481310E+02  1.250000000E+02  0.00000E+00  9.000E+00
       1     1     1     2   501     0 -1.981383740E+02 -5.751054177E+01  2.186555011E+02  3.006268549E+02  9.344061824E-06  0.00000E+00  9.000E+00
#rwgt            1           1   2.8024763395786842E-002           4      107216           0
</event>
<event>
      5   9999  3.19816E-02  1.32437E+02 -1.00000E+00  1.18578E-01
      21    -1     0     0   502   501  0.000000000E+00  0.000000000E+00  1.039870359E+03  1.039870359E+03  0.000000000E+00  0.00000E+00  9.000E+00
      21    -1     0     0   501   511  0.000000000E+00  0.000000000E+00 -1.513524217E+03  1.513524217E+03  0.000000000E+00  0.00000E+00  9.000E+00
      25     1     1     2     0     0  3.019572178E+02  1.101372540E+03 -3.170771015E+02  1.191789630E+03  1.250000000E+02  0.00000E+00  9.000E+00
      25     1     1     2     0     0 -2.067223706E+02 -1.193403990E+03 -1.161553605E+02  1.223137069E+03  1.250000000E+02  0.00000E+00  9.000E+00
      21     1     1     2   502   511 -9.523484716E+01  9.203144954E+01 -4.042139694E+01  1.384678777E+02  2.821006671E-06  0.00000E+00  9.000E+00
#rwgt            1           1   7.2026870639173249E-002           4      107248           0
</event>
<event>
      5   9999  3.19816E-02  2.98079E+01 -1.00000E+00  1.53234E-01
      21    -1     0     0   502   501  0.000000000E+00  0.000000000E+00  2.099937390E+03  2.099937390E+03  0.000000000E+00  0.00000E+00  9.000E+00
       1    -1     0     0   501     0  0.000000000E+00  0.000000000E+00 -1.605135716E+03  1.605135716E+03  0.000000000E+00  0.00000E+00  9.000E+00
      25     1     1     2     0     0  5.748109210E+02 -5.731743630E+02  1.843470240E+03  2.018153604E+03  1.250000000E+02  0.00000E+00  9.000E+00
      25     1     1     2     0     0 -5.595400585E+02  5.987734368E+02 -8.498716234E+02  1.187232699E+03  1.250000000E+02  0.00000E+00  9.000E+00
       1     1     1     2   502     0 -1.527086248E+01 -2.559907374E+01 -4.987969421E+02  4.996868031E+02  1.078959322E-05  0.00000E+00  9.000E+00
#rwgt            2          12   1.0754240842258827E-003           4      107401           0
</event>
<event>
      5   9999  3.19816E-02  4.88872E+01 -1.00000E+00  1.39636E-01
      21    -1     0     0   511   501  0.000000000E+00  0.000000000E+00  3.053059325E+02  3.053059325E+02  0.000000000E+00  0.00000E+00  9.000E+00
      21    -1     0     0   501   502  0.000000000E+00  0.000000000E+00 -7.561579825E+02  7.561579825E+02  0.000000000E+00  0.00000E+00  9.000E+00
      25     1     1     2     0     0 -1.555483015E+02  2.553848759E+02 -2.932475634E+02  4.370764720E+02  1.250000000E+02  0.00000E+00  9.000E+00
      25     1     1     2     0     0  1.135798430E+02 -2.804568590E+02 -3.181828080E+02  4.565322878E+02  1.250000000E+02  0.00000E+00  9.000E+00
      21     1     1     2   511   502  4.196845854E+01  2.507198304E+01  1.605783214E+02  1.678551553E+02  1.907348633E-06  0.00000E+00  9.000E+00
#rwgt            1           1   2.7800033547668471E-002           4      107435           0
</event>
<event>
      5   9999  3.19816E-02  2.00483E+02 -1.00000E+00  1.11610E-01
      21    -1     0     0   502   501  0.000000000E+00  0.000000000E+00  6.028118745E+02  6.028118745E+02  0.000000000E+00  0.00000E+00  9.000E+00
      21    -1     0     0   501   512  0.000000000E+00  0.000000000E+00 -3.358806507E+02  3.358806507E+02  0.000000000E+00  0.00000E+00  9.000E+00
      25     1     1     2     0     0 -2.144137057E+02  2.127862359E+02  1.600677903E+01  3.273109170E+02  1.250000000E+02  0.00000E+00  9.000E+00
      25     1     1     2     0     0  3.023807908E+02 -3.263302357E+01  2.463130683E+02  4.108456942E+02  1.250000000E+02  0.00000E+00  9.000E+00
      21     1     1     2   502   512 -8.796708513E+01 -1.801532124E+02  4.611376466E+00  2.005359140E+02  4.461597779E-06  0.00000E+00  9.000E+00
#rwgt            2          11   3.6116587955481814E-003           4      107655           0
</event>
<event>
      5   9999  3.19816E-02  1.00926E+02 -1.00000E+00  1.23648E-01
      21    -1     0     0   502   501  0.000000000E+00  0.000000000E+00  1.036201833E+03  1.036201833E+03  0.000000000E+00  0.00000E+00  9.000E+00
      21    -1     0     0   511   502  0.000000000E+00  0.000000000E+00 -1.979598588E+02  1.979598588E+02  0.000000000E+00  0.00000E+00  9.000E+00
      25     1     1     2     0     0 -2.384916080E+02 -2.197786172E+02  3.492637601E+02  4.927383299E+02  1.250000000E+02  0.00000E+00  9.000E+00
      25     1     1     2     0     0  2.142740708E+02  3.177564898E+02  4.972843488E+02  6.401556746E+02  1.250000000E+02  0.00000E+00  9.000E+00
      21     1     1     2   511   501  2.421753715E+01 -9.797787261E+01 -8.306134515E+00  1.012676873E+02  9.156639275E-07  0.00000E+00  9.000E+00
#rwgt            1           1   3.3459052151545807E-002           4      107690           0
</event>
<event>
      5   9999  3.19816E-02  4.51182E+01 -1.00000E+00  1.41670E-01
      21    -1     0     0   502   512  0.000000000E+00  0.000000000E+00  1.677695451E+03  1.677695451E+03  0.000000000E+00  0.00000E+00  9.000E+00
      21    -1     0     0   501   502  0.000000000E+00  0.000000000E+00 -5.617728678E+02  5.617728678E+02  0.000000000E+00  0.00000E+00  9.000E+00
      25     1     1     2     0     0 -1.960383681E+02  3.473334185E+02 -1.650910502E+02  4.493902538E+02  1.250000000E+02  0.00000E+00  9.000E+00
      25     1     1     2     0     0  2.371033038E+02 -3.660235216E+02 -5.169539558E+01  4.566055288E+02  1.250000000E+02  0.00000E+00  9.000E+00
      21     1     1     2   501   512 -4.106493574E+01  1.869010302E+01  1.332709029E+03  1.333472536E+03  2.157918644E-05  0.00000E+00  9.000E+00
#rwgt            1           1   3.1857913193610074E-002           4      107765           0
</event>
<event>
      5   9999  3.19816E-02  4.24186E+01 -1.00000E+00  1.43276E-01
      21    -1     0     0   502   501  0.000000000E+00  0.000000000E+00  1.132392526E+02  1.132392526E+02  0.000000000E+00  0.00000E+00  9.000E+00
      21    -1     0     0   501   511  0.000000000E+00  0.000000000E+00 -3.661300140E+02  3.661300140E+02  0.000000000E+00  0.00000E+00  9.000E+00
      25     1     1     2     0     0 -9.978709238E+01 -4.823722301E+01 -1.527263204E+02  2.263506625E+02  1.250000000E+02  0.00000E+00  9.000E+00
      25     1     1     2     0     0  6.118319054E+01  6.581776427E+01 -1.107617419E+01  1.543471494E+02  1.250000000E+02  0.00000E+00  9.000E+00
      21     1     1     2   502   511  3.860390184E+01 -1.758054126E+01 -8.908826681E+01  9.867145459E+01  1.651812370E-06  0.00000E+00  9.000E+00
#rwgt            1           1   3.4217177607734274E-002           4      107881           0
</event>
<event>
      5   9999  3.19816E-02  1.07205E+02 -1.00000E+00  1.22484E-01
      21    -1     0     0   502   501  0.000000000E+00  0.000000000E+00  4.569404241E+02  4.569404241E+02  0.000000000E+00  0.00000E+00  9.000E+00
      21    -1     0     0   501   512  0.000000000E+00  0.000000000E+00 -1.454082301E+02  1.454082301E+02  0.000000000E+00  0.00000E+00  9.000E+00
      25     1     1     2     0     0  1.510963770E+02  7.831342376E+00  1.470653915E+01  1.968063194E+02  1.250000000E+02  0.00000E+00  9.000E+00
      25     1     1     2     0     0 -4.389246944E+01 -7.351266996E+00  2.605083810E+02  2.923528802E+02  1.250000000E+02  0.00000E+00  9.000E+00
      21     1     1     2   502   512 -1.072039075E+02 -4.800753804E-01  3.631727380E+01  1.131894546E+02  1.719260824E-06  0.00000E+00  9.000E+00
#rwgt            1           1   3.2016241964421481E-002           4      108028           0
</event>
<event>
      5   9999  3.19816E-02  2.61107E+02 -1.00000E+00  1.07589E-01
      21    -1     0     0   511   501  0.000000000E+00  0.000000000E+00  2.587704857E+02  2.587704857E+02  0.000000000E+00  0.00000E+00  9.000E+00
      21    -1     0     0   501   502  0.000000000E+00  0.000000000E+00 -5.680644593E+02  5.680644593E+02  0.000000000E+00  0.00000E+00  9.000E+00
      25     1     1     2     0     0  1.864450129E+00  1.692324346E+01 -2.003561824E+02  2.367645923E+02  1.250000000E+02  0.00000E+00  9.000E+00
      25     1     1     2     0     0 -1.212683525E+02 -2.491290474E+02 -1.245546627E+02  3.284968182E+02  1.250000000E+02  0.00000E+00  9.000E+00
      21     1     1     2   511   502  1.194039023E+02  2.322058039E+02  1.561687151E+01  2.615735345E+02  5.769039933E-06  0.00000E+00  9.000E+00
#rwgt            1           1   2.8988820601069623E-002           4      108084           0
</event>
<event>
      5   9999  3.19816E-02  2.09210E+01 -1.00000E+00  1.64772E-01
      21    -1     0     0   502   501  0.000000000E+00  0.000000000E+00  2.004821322E+03  2.004821322E+03  0.000000000E+00  0.00000E+00  9.000E+00
      21    -1     0     0   512   502  0.000000000E+00  0.000000000E+00 -2.552571193E+02  2.552571193E+02  0.000000000E+00  0.00000E+00  9.000E+00
      25     1     1     2     0     0  3.895058913E+02 -1.253454743E+02  1.681819197E+03  1.735386741E+03  1.250000000E+02  0.00000E+00  9.000E+00
      25     1     1     2     0     0 -4.099459882E+02  1.208856150E+02  1.260072921E+02  4.627870815E+02  1.250000000E+02  0.00000E+00  9.000E+00
      21     1     1     2   512   501  2.044009687E+01  4.459859250E+00 -5.826228628E+01  6.190461944E+01  2.336015456E-06  0.00000E+00  9.000E+00
#rwgt            1           1   2.2990291307164179E-002           4      108112           0
</event>
<event>
      5   9999  3.19816E-02  3.05193E+01 -1.00000E+00  1.52524E-01
      21    -1     0     0   502   501  0.000000000E+00  0.000000000E+00  7.626833763E+02  7.626833763E+02  0.000000000E+00  0.00000E+00  9.000E+00
      21    -1     0     0   511   502  0.000000000E+00  0.000000000E+00 -1.716034982E+02  1.716034982E+02  0.000000000E+00  0.00000E+00  9.000E+00
      25     1     1     2     0     0  2.116227584E+02 -2.069461952E+02  9.386159921E+01  3.347326088E+02  1.250000000E+02  0.00000E+00  9.000E+00
      25     1     1     2     0     0 -1.830550335E+02  1.962079270E+02  4.815123458E+02  5.652307803E+02  1.250000000E+02  0.00000E+00  9.000E+00
      21     1     1     2   511   501 -2.856772490E+01  1.073826819E+01  1.570593320E+01  3.432348536E+01  8.259061849E-07  0.00000E+00  9.000E+00
#rwgt            1           1   2.6801786261498501E-002           4      108311           0
</event>
<event>
      5   9999  3.19816E-02  1.41540E+02 -1.00000E+00  1.17402E-01
      21    -1     0     0   502   501  0.000000000E+00  0.000000000E+00  3.985197184E+02  3.985197184E+02  0.000000000E+00  0.00000E+00  9.000E+00
      21    -1     0     0   501   512  0.000000000E+00  0.000000000E+00 -1.109846456E+03  1.109846456E+03  0.000000000E+00  0.00000E+00  9.000E+00
      25     1     1     2     0     0 -2.976162968E+02 -5.932283338E+01 -8.034533375E+02  8.679037528E+02  1.250000000E+02  0.00000E+00  9.000E+00
      25     1     1     2     0     0  3.829305793E+02 -5.361491350E+01  2.089469569E+02  4.569400598E+02  1.250000000E+02  0.00000E+00  9.000E+00
      21     1     1     2   502   512 -8.531428244E+01  1.129377469E+02 -1.168203569E+02  1.835223617E+02  2.697398305E-06  0.00000E+00  9.000E+00
#rwgt            2          11   6.2024735976234976E-003           4      108529           0
</event>
<event>
      5   9999  3.19816E-02  5.41446E+00 -1.00000E+00  2.32628E-01
      21    -1     0     0   502   501  0.000000000E+00  0.000000000E+00  1.731064772E+03  1.731064772E+03  0.000000000E+00  0.00000E+00  9.000E+00
      21    -1     0     0   511   502  0.000000000E+00  0.000000000E+00 -1.111971908E+02  1.111971908E+02  0.000000000E+00  0.00000E+00  9.000E+00
      25     1     1     2     0     0 -2.571803463E+02 -2.707769278E+02  1.203165886E+03  1.265975918E+03  1.250000000E+02  0.00000E+00  9.000E+00
      25     1     1     2     0     0  2.596458385E+02  2.659563748E+02  4.069951343E+02  5.651714731E+02  1.250000000E+02  0.00000E+00  9.000E+00
      21     1     1     2   511   501 -2.465492179E+00  4.820553010E+00  9.706560859E+00  1.111457182E+01  1.685873940E-07  0.00000E+00  9.000E+00
#rwgt            1           1   3.1141707462255884E-002           4      108549           0
</event>
<event>
      5   9999  3.19816E-02  2.34150E+01 -1.00000E+00  1.60911E-01
      21    -1     0     0   502   512  0.000000000E+00  0.000000000E+00  6.514329881E+02  6.514329881E+02  0.000000000E+00  0.00000E+00  9.000E+00
      21    -1     0     0   501   502  0.000000000E+00  0.000000000E+00 -1.966957437E+02  1.966957437E+02  0.000000000E+00  0.00000E+00  9.000E+00
      25     1     1     2     0     0 -1.264271078E+02  3.001034632E+02  2.128279532E+02  4.086155160E+02  1.250000000E+02  0.00000E+00  9.000E+00
      25     1     1     2     0     0  1.158561612E+02 -2.792104826E+02  1.801046137E+02  3.734217663E+02  1.250000000E+02  0.00000E+00  9.000E+00
      21     1     1     2   501   512  1.057094664E+01 -2.089298060E+01  6.180467740E+01  6.609144952E+01  6.743495762E-07  0.00000E+00  9.000E+00
#rwgt            1           1   2.8073624991077056E-002           4      108939           0
</event>
<event>
      5   9999  3.19816E-02  4.56639E+01 -1.00000E+00  1.41361E-01
      21    -1     0     0   502   511  0.000000000E+00  0.000000000E+00  5.632146033E+02  5.632146033E+02  0.000000000E+00  0.00000E+00  9.000E+00
      21    -1     0     0   501   502  0.000000000E+00  0.000000000E+00 -3.802185812E+02  3.802185812E+02  0.000000000E+00  0.00000E+00  9.000E+00
      25     1     1     2     0     0 -3.752331464E+01 -1.009802602E+02  1.033224335E+02  1.946934445E+02  1.250000000E+02  0.00000E+00  9.000E+00
      25     1     1     2     0     0  8.133109987E+01  8.809329659E+01 -3.106932177E+02  3.557111921E+02  1.250000000E+02  0.00000E+00  9.000E+00
      21     1     1     2   501   511 -4.380778524E+01  1.288696358E+01  3.903668063E+02  3.930285477E+02  0.000000000E+00  0.00000E+00  9.000E+00
#rwgt            1           1   2.4953500570111361E-002           4      109064           0
</event>
<event>
      5   9999  3.19816E-02  1.35642E+02 -1.00000E+00  1.18152E-01
      21    -1     0     0   502   501  0.000000000E+00  0.000000000E+00  6.090088327E+02  6.090088327E+02  0.000000000E+00  0.00000E+00  9.000E+00
       2    -1     0     0   501     0  0.000000000E+00  0.000000000E+00 -1.672550325E+03  1.672550325E+03  0.000000000E+00  0.00000E+00  9.000E+00
      25     1     1     2     0     0  3.181134402E+02  2.709078990E+02  3.706957439E+02  5.723876179E+02  1.250000000E+02  0.00000E+00  9.000E+00
      25     1     1     2     0     0 -1.877138748E+02 -2.335612786E+02 -6.236288086E+01  3.306077715E+02  1.250000000E+02  0.00000E+00  9.000E+00
       2     1     1     2   502     0 -1.303995654E+02 -3.734662041E+01 -1.371874355E+03  1.378563768E+03  2.157918644E-05  0.00000E+00  9.000E+00
#rwgt            2          13   3.8843779387919084E-003           4      109179           0
</event>
<event>
      5   9999  3.19816E-02  6.59888E+01 -1.00000E+00  1.32532E-01
      21    -1     0     0   511   501  0.000000000E+00  0.000000000E+00  1.671331862E+02  1.671331862E+02  0.000000000E+00  0.00000E+00  9.000E+00
      21    -1     0     0   501   502  0.000000000E+00  0.000000000E+00 -3.540800325E+02  3.540800325E+02  0.000000000E+00  0.00000E+00  9.000E+00
      25     1     1     2     0     0 -1.223032693E+02  8.188659476E+01 -1.410187999E+02  2.391125384E+02  1.250000000E+02  0.00000E+00  9.000E+00
      25     1     1     2     0     0  7.944264400E+01 -1.320611611E+02 -7.207761401E+01  2.111195547E+02  1.250000000E+02  0.00000E+00  9.000E+00
      21     1     1     2   511   502  4.286062531E+01  5.017456633E+01  2.614956753E+01  7.098112560E+01  1.390207266E-06  0.00000E+00  9.000E+00
#rwgt            1           1   3.1288372687177719E-002           4      109198           0
</event>
<event>
      5   9999  3.19816E-02  2.53655E+01 -1.00000E+00  1.58280E-01
      21    -1     0     0   502   501  0.000000000E+00  0.000000000E+00  7.471410836E+02  7.471410836E+02  0.000000000E+00  0.00000E+00  9.000E+00
      21    -1     0     0   501   512  0.000000000E+00  0.000000000E+00 -1.645501895E+02  1.645501895E+02  0.000000000E+00  0.00000E+00  9.000E+00
      25     1     1     2     0     0 -2.963823598E+02  4.058439802E+01  2.991735322E+02  4.411568869E+02  1.250000000E+02  0.00000E+00  9.000E+00
      25     1     1     2     0     0  3.177555004E+02 -2.692440755E+01  2.843278870E+02  4.451525908E+02  1.250000000E+02  0.00000E+00  9.000E+00
      21     1     1     2   502   512 -2.137314063E+01 -1.365999046E+01 -9.105250440E-01  2.538179536E+01  1.320246245E-07  0.00000E+00  9.000E+00
#rwgt            1           1   2.9625591847290838E-002           4      109254           0
</event>
<event>
      5   9999  3.19816E-02  7.10976E+01 -1.00000E+00  1.30879E-01
      21    -1     0     0   511   501  0.000000000E+00  0.000000000E+00  5.643744423E+02  5.643744423E+02  0.000000000E+00  0.00000E+00  9.000E+00
      21    -1     0     0   501   502  0.000000000E+00  0.000000000E+00 -4.989105264E+02  4.989105264E+02  0.000000000E+00  0.00000E+00  9.000E+00
      25     1     1     2     0     0 -2.369444348E+01  1.583554110E+02 -7.670671045E+01  2.171330980E+02  1.250000000E+02  0.00000E+00  9.000E+00
      25     1     1     2     0     0  3.803295111E+01 -8.871866299E+01 -3.314876254E+02  3.671873532E+02  1.250000000E+02  0.00000E+00  9.000E+00
      21     1     1     2   511   502 -1.433850763E+01 -6.963674799E+01  4.736582518E+02  4.789645175E+02  7.629394531E-06  0.00000E+00  9.000E+00
#rwgt            1           1   2.6509193860711343E-002           4      109409           0
</event>
<event>
      5   9999  3.19816E-02  5.95224E+00 -1.00000E+00  2.26012E-01
      21    -1     0     0   502   512  0.000000000E+00  0.000000000E+00  2.425923161E+02  2.425923161E+02  0.000000000E+00  0.00000E+00  9.000E+00
      21    -1     0     0   501   502  0.000000000E+00  0.000000000E+00 -2.094139855E+02  2.094139855E+02  0.000000000E+00  0.00000E+00  9.000E+00
      25     1     1     2     0     0  1.054417267E+02 -1.005974331E+02  6.570877882E+01  2.029296550E+02  1.250000000E+02  0.00000E+00  9.000E+00
      25     1     1     2     0     0 -1.075519888E+02  9.503183286E+01 -7.619362417E+01  2.050096288E+02  1.250000000E+02  0.00000E+00  9.000E+00
      21     1     1     2   501   512  2.110262134E+00  5.565600236E+00  4.366317602E+01  4.406701774E+01  4.768371582E-07  0.00000E+00  9.000E+00
#rwgt            1           1   2.7754050587629284E-002           4      109464           0
</event>
<event>
      5   9999  3.19816E-02  2.38646E+02 -1.00000E+00  1.08924E-01
      21    -1     0     0   502   501  0.000000000E+00  0.000000000E+00  7.085822253E+02  7.085822253E+02  0.000000000E+00  0.00000E+00  9.000E+00
       2    -1     0     0   501     0  0.000000000E+00  0.000000000E+00 -2.814745341E+03  2.814745341E+03  0.000000000E+00  0.00000E+00  9.000E+00
      25     1     1     2     0     0  2.836365795E+00  3.373344623E+02  4.148927560E+01  3.621449219E+02  1.250000000E+02  0.00000E+00  9.000E+00
      25     1     1     2     0     0  2.755188969E+01 -1.006308813E+02  4.881553848E+02  5.145933935E+02  1.250000000E+02  0.00000E+00  9.000E+00
       2     1     1     2   502     0 -3.038825548E+01 -2.367035810E+02 -2.635807776E+03  2.646589251E+03  3.051757812E-05  0.00000E+00  9.000E+00
#rwgt            1           1   2.7746137434512080E-002           4      109724           0
</event>
<event>
      5   9999  3.19816E-02  1.28610E+02 -1.00000E+00  1.19105E-01
      21    -1     0     0   502   501  0.000000000E+00  0.000000000E+00  2.753308509E+03  2.753308509E+03  0.000000000E+00  0.00000E+00  9.000E+00
      21    -1     0     0   511   502  0.000000000E+00  0.000000000E+00 -3.655131770E+02  3.655131770E+02  0.000000000E+00  0.00000E+00  9.000E+00
      25     1     1     2     0     0  8.534414271E+02  1.886709670E+02  1.426599025E+03  1.677727266E+03  1.250000000E+02  0.00000E+00  9.000E+00
      25     1     1     2     0     0 -8.213770862E+02 -6.412229904E+01  1.004719989E+03  1.305319594E+03  1.250000000E+02  0.00000E+00  9.000E+00
      21     1     1     2   511   501 -3.206434087E+01 -1.245486679E+02 -4.352368081E+01  1.357748262E+02  2.477718555E-06  0.00000E+00  9.000E+00
#rwgt            1           1   3.5670943143973864E-002           4      109769           0
</event>
<event>
      5   9999  3.19816E-02  5.65672E+01 -1.00000E+00  1.36085E-01
      21    -1     0     0   502   501  0.000000000E+00  0.000000000E+00  5.864160284E+02  5.864160284E+02  0.000000000E+00  0.00000E+00  9.000E+00
      -1    -1     0     0     0   502  0.000000000E+00  0.000000000E+00 -7.753537673E+02  7.753537673E+02  0.000000000E+00  0.00000E+00  9.000E+00
      25     1     1     2     0     0 -2.748430034E+01 -6.711260012E+01 -3.853533269E+02  4.115600496E+02  1.250000000E+02  0.00000E+00  9.000E+00
      25     1     1     2     0     0  8.272958934E+01  7.927027450E+01  5.585305553E+02  5.837031288E+02  1.250000000E+02  0.00000E+00  9.000E+00
      -1     1     1     2     0   501 -5.524528900E+01 -1.215767438E+01 -3.621149673E+02  3.665066173E+02  5.394796609E-06  0.00000E+00  9.000E+00
#rwgt            1           1   2.9454794396653928E-002           4      109878           0
</event>
<event>
      5   9999  3.19816E-02  4.48198E+01 -1.00000E+00  1.41841E-01
      21    -1     0     0   511   501  0.000000000E+00  0.000000000E+00  8.888995679E+02  8.888995679E+02  0.000000000E+00  0.00000E+00  9.000E+00
      21    -1     0     0   501   502  0.000000000E+00  0.000000000E+00 -5.269447106E+02  5.269447106E+02  0.000000000E+00  0.00000E+00  9.000E+00
      25     1     1     2     0     0 -3.569622999E+00 -2.444527914E+02  5.513628205E+02  6.159511907E+02  1.250000000E+02  0.00000E+00  9.000E+00
      25     1     1     2     0     0  4.838464933E+01  2.451053250E+02 -4.531653666E+02  5.323547165E+02  1.250000000E+02  0.00000E+00  9.000E+00
      21     1     1     2   511   502 -4.481502633E+01 -6.525336587E-01  2.637574033E+02  2.675383714E+02  5.394796609E-06  0.00000E+00  9.000E+00
#rwgt            1           1   1.9601107780778806E-002           4      110012           0
</event>
<event>
      5   9999  3.19816E-02  7.29399E+01 -1.00000E+00  1.30322E-01
      21    -1     0     0   502   501  0.000000000E+00  0.000000000E+00  1.059770987E+03  1.059770987E+03  0.000000000E+00  0.00000E+00  9.000E+00
      21    -1     0     0   501   512  0.000000000E+00  0.000000000E+00 -1.203889449E+02  1.203889449E+02  0.000000000E+00  0.00000E+00  9.000E+00
      25     1     1     2     0     0  8.316564752E+01 -1.131521855E+02  5.188303990E+02  5.518423007E+02  1.250000000E+02  0.00000E+00  9.000E+00
      25     1     1     2     0     0 -1.548100034E+02  1.268387499E+02  4.795787242E+02  5.344856952E+02  1.250000000E+02  0.00000E+00  9.000E+00
      21     1     1     2   502   512  7.164435589E+01 -1.368656440E+01 -5.902708147E+01  9.383193551E+01  3.015782986E-06  0.00000E+00  9.000E+00
#rwgt            1           1   2.8750964190290364E-002           4      110146           0
</event>
<event>
      5   9999  3.19816E-02  2.82568E+01 -1.00000E+00  1.54868E-01
       2    -1     0     0   502     0  0.000000000E+00  0.000000000E+00  2.679971572E+03  2.679971572E+03  0.000000000E+00  0.00000E+00  9.000E+00
      21    -1     0     0   501   502  0.000000000E+00  0.000000000E+00 -8.601712895E+02  8.601712895E+02  0.000000000E+00  0.00000E+00  9.000E+00
      25     1     1     2     0     0 -4.421511632E+02 -8.933716840E+01 -7.366677610E+02  8.728019082E+02  1.250000000E+02  0.00000E+00  9.000E+00
      25     1     1     2     0     0  4.615871055E+02  1.098479053E+02  1.032988071E+03  1.143598956E+03  1.250000000E+02  0.00000E+00  9.000E+00
       2     1     1     2   501     0 -1.943594232E+01 -2.051073694E+01  1.523479973E+03  1.523741997E+03  2.157918644E-05  0.00000E+00  9.000E+00
#rwgt            1           1   2.2147008021597393E-002           4      110202           0
</event>
<event>
      5   9999  3.19816E-02  3.31430E+01 -1.00000E+00  1.50094E-01
      21    -1     0     0   502   501  0.000000000E+00  0.000000000E+00  2.042069055E+02  2.042069055E+02  0.000000000E+00  0.00000E+00  9.000E+00
      21    -1     0     0   501   511  0.000000000E+00  0.000000000E+00 -2.145538572E+02  2.145538572E+02  0.000000000E+00  0.00000E+00  9.000E+00
      25     1     1     2     0     0  8.407990487E+01 -1.734156983E+01 -6.953550858E+01  1.668243010E+02  1.250000000E+02  0.00000E+00  9.000E+00
      25     1     1     2     0     0 -9.488079714E+01 -1.399209221E+01  1.093728407E+02  1.917956271E+02  1.250000000E+02  0.00000E+00  9.000E+00
      21     1     1     2   502   511  1.080089227E+01  3.133366204E+01 -5.018428380E+01  6.014083464E+01  0.000000000E+00  0.00000E+00  9.000E+00
#rwgt            1           1   3.5158171083388298E-002           4      110406           0
</event>
<event>
      5   9999  3.19816E-02  1.25574E+02 -1.00000E+00  1.19537E-01
      21    -1     0     0   512   501  0.000000000E+00  0.000000000E+00  2.152318248E+02  2.152318248E+02  0.000000000E+00  0.00000E+00  9.000E+00
      21    -1     0     0   501   502  0.000000000E+00  0.000000000E+00 -3.553979056E+02  3.553979056E+02  0.000000000E+00  0.00000E+00  9.000E+00
      25     1     1     2     0     0 -3.786700768E-01  2.511355264E+01 -2.189140007E+02  2.533360882E+02  1.250000000E+02  0.00000E+00  9.000E+00
      25     1     1     2     0     0  5.335761221E+01  8.873695252E+01 -1.139572419E+01  1.627149165E+02  1.250000000E+02  0.00000E+00  9.000E+00
      21     1     1     2   512   502 -5.297894213E+01 -1.138505052E+02  9.014364407E+01  1.545787256E+02  2.336015456E-06  0.00000E+00  9.000E+00
#rwgt            1           1   2.4232618797286228E-002           4      110512           0
</event>
<event>
      5   9999  3.19816E-02  5.84495E+01 -1.00000E+00  1.35314E-01
      21    -1     0     0   511   501  0.000000000E+00  0.000000000E+00  1.752871031E+02  1.752871031E+02  0.000000000E+00  0.00000E+00  9.000E+00
      21    -1     0     0   501   502  0.000000000E+00  0.000000000E+00 -1.149759051E+03  1.149759051E+03  0.000000000E+00  0.00000E+00  9.000E+00
      25     1     1     2     0     0  1.298992723E+01 -3.643931528E+02 -2.791552022E+02  4.759240852E+02  1.250000000E+02  0.00000E+00  9.000E+00
      25     1     1     2     0     0 -6.879329053E+01  3.470057063E+02 -6.959790043E+02  7.906688633E+02  1.250000000E+02  0.00000E+00  9.000E+00
      21     1     1     2   511   502  5.580336329E+01  1.738744641E+01  6.622586694E-01  5.845320551E+01  1.211126195E-06  0.00000E+00  9.000E+00
#rwgt            1           1   2.8226356873199979E-002           4      110563           0
</event>
<event>
      5   9999  3.19816E-02  1.50697E+02 -1.00000E+00  1.16314E-01
      21    -1     0     0   502   501  0.000000000E+00  0.000000000E+00  7.331396155E+02  7.331396155E+02  0.000000000E+00  0.00000E+00  9.000E+00
      21    -1     0     0   501   512  0.000000000E+00  0.000000000E+00 -2.849019978E+02  2.849019978E+02  0.000000000E+00  0.00000E+00  9.000E+00
      25     1     1     2     0     0  3.321101721E+02  7.910355294E+01  1.975122243E+02  4.137518789E+02  1.250000000E+02  0.00000E+00  9.000E+00
      25     1     1     2     0     0 -2.744551611E+02 -2.183349254E+02  2.587159128E+02  4.533814053E+02  1.250000000E+02  0.00000E+00  9.000E+00
      21     1     1     2   502   512 -5.765501099E+01  1.392313725E+02 -7.990519382E+00  1.509083291E+02  2.617180157E-06  0.00000E+00  9.000E+00
#rwgt            2          11   3.7617055140677065E-003           4      110682           0
</event>
<event>
      5   9999  4.18080E-02  5.07077E+01 -1.00000E+00  1.38728E-01
      21    -1     0     0   502   501  0.000000000E+00  0.000000000E+00  2.075126860E+03  2.075126860E+03  0.000000000E+00  0.00000E+00  9.000E+00
      21    -1     0     0   511   502  0.000000000E+00  0.000000000E+00 -4.188300652E+01  4.188300652E+01  0.000000000E+00  0.00000E+00  9.000E+00
      25     1     1     2     0     0 -1.096537187E+02  1.980803418E+02  1.058381622E+03  1.089521187E+03  1.250000000E+02  0.00000E+00  9.000E+00
      25     1     1     2     0     0  6.893662606E+01 -2.283027355E+02  8.749765710E+02  9.154689493E+02  1.250000000E+02  0.00000E+00  9.000E+00
      21     1     1     2   511   501  4.071709261E+01  3.022239367E+01  9.988566074E+01  1.120197301E+02  1.348699152E-06  0.00000E+00  9.000E+00
#rwgt            1           1  0.12052506954857201                4      110717           0
</event>
<event>
      5   9999  3.19816E-02  3.54907E+01 -1.00000E+00  1.48137E-01
      21    -1     0     0   502   501  0.000000000E+00  0.000000000E+00  3.220848767E+02  3.220848767E+02  0.000000000E+00  0.00000E+00  9.000E+00
      21    -1     0     0   512   502  0.000000000E+00  0.000000000E+00 -1.018038379E+03  1.018038379E+03  0.000000000E+00  0.00000E+00  9.000E+00
      25     1     1     2     0     0 -1.621370401E+01 -5.975141676E+01  2.838916499E+02  3.163108991E+02  1.250000000E+02  0.00000E+00  9.000E+00
      25     1     1     2     0     0  5.167091148E+01  6.129404397E+01 -2.341230246E+02  2.772461606E+02  1.250000000E+02  0.00000E+00  9.000E+00
      21     1     1     2   512   501 -3.545720747E+01 -1.542627210E+00 -7.457221277E+02  7.465661960E+02  1.078959322E-05  0.00000E+00  9.000E+00
#rwgt            1           1   2.7474878593002964E-002           4      110784           0
</event>
<event>
      5   9999  3.19816E-02  1.80878E+02 -1.00000E+00  1.13260E-01
      21    -1     0     0   502   511  0.000000000E+00  0.000000000E+00  1.120827709E+03  1.120827709E+03  0.000000000E+00  0.00000E+00  9.000E+00
      21    -1     0     0   501   502  0.000000000E+00  0.000000000E+00 -9.893936184E+02  9.893936184E+02  0.000000000E+00  0.00000E+00  9.000E+00
      25     1     1     2     0     0 -3.436077348E+02 -5.633205685E+02 -3.439619117E+02  7.545403469E+02  1.250000000E+02  0.00000E+00  9.000E+00
      25     1     1     2     0     0  1.720629589E+02  6.206721926E+02 -1.762814617E+02  6.793671954E+02  1.250000000E+02  0.00000E+00  9.000E+00
      21     1     1     2   501   511  1.715447759E+02 -5.735162410E+01  6.516774640E+02  6.763137852E+02  7.629394531E-06  0.00000E+00  9.000E+00
#rwgt            1           1   3.2513972860791066E-002           4      110938           0
</event>
<event>
      5   9999  3.19816E-02  1.00623E+01 -1.00000E+00  1.95446E-01
      21    -1     0     0   502   501  0.000000000E+00  0.000000000E+00  3.078029426E+02  3.078029426E+02  0.000000000E+00  0.00000E+00  9.000E+00
      21    -1     0     0   501   512  0.000000000E+00  0.000000000E+00 -8.654040851E+02  8.654040851E+02  0.000000000E+00  0.00000E+00  9.000E+00
      25     1     1     2     0     0 -2.570962276E+02 -3.028071201E+02 -5.519795366E+02  6.914456096E+02  1.250000000E+02  0.00000E+00  9.000E+00
      25     1     1     2     0     0  2.626085302E+02  3.112252356E+02  4.666332217E+01  4.285170394E+02  1.250000000E+02  0.00000E+00  9.000E+00
      21     1     1     2   502   512 -5.512302601E+00 -8.418115497E+00 -5.228492808E+01  5.324437860E+01  0.000000000E+00  0.00000E+00  9.000E+00
#rwgt            1           1   3.0108739002006415E-002           4      110986           0
</event>
<event>
      5   9999  3.19816E-02  1.08080E+02 -1.00000E+00  1.22329E-01
      21    -1     0     0   502   511  0.000000000E+00  0.000000000E+00  1.479437164E+03  1.479437164E+03  0.000000000E+00  0.00000E+00  9.000E+00
      21    -1     0     0   501   502  0.000000000E+00  0.000000000E+00 -8.341983177E+01  8.341983177E+01  0.000000000E+00  0.00000E+00  9.000E+00
      25     1     1     2     0     0 -1.066922583E+02 -6.245767218E+01  8.551290309E+02  8.730148099E+02  1.250000000E+02  0.00000E+00  9.000E+00
      25     1     1     2     0     0  1.732172839E+02  1.476377134E+02  1.874703428E+02  3.202674683E+02  1.250000000E+02  0.00000E+00  9.000E+00
      21     1     1     2   501   511 -6.652502561E+01 -8.518004118E+01  3.534179583E+02  3.695747174E+02  8.529922400E-06  0.00000E+00  9.000E+00
#rwgt            1           1   2.7895768246326669E-002           4      111266           0
</event>
<event>
      5   9999  3.19816E-02  1.21238E+02 -1.00000E+00  1.20179E-01
      21    -1     0     0   502   512  0.000000000E+00  0.000000000E+00  7.166300481E+02  7.166300481E+02  0.000000000E+00  0.00000E+00  9.000E+00
      21    -1     0     0   501   502  0.000000000E+00  0.000000000E+00 -2.519993418E+02  2.519993418E+02  0.000000000E+00  0.00000E+00  9.000E+00
      25     1     1     2     0     0  1.162984479E+01  6.817435739E+01  3.916877682E+02  4.169260175E+02  1.250000000E+02  0.00000E+00  9.000E+00
      25     1     1     2     0     0 -1.134253896E+02 -1.340255360E+02 -1.737403744E+02  2.768372825E+02  1.250000000E+02  0.00000E+00  9.000E+00
      21     1     1     2   501   512  1.017955448E+02  6.585117863E+01  2.466833125E+02  2.748660898E+02  3.814697266E-06  0.00000E+00  9.000E+00
#rwgt            1           1   2.7978099164587350E-002           4      111366           0
</event>
<event>
      5   9999  3.19816E-02  4.48762E+01 -1.00000E+00  1.41809E-01
      21    -1     0     0   502   501  0.000000000E+00  0.000000000E+00  5.431020153E+02  5.431020153E+02  0.000000000E+00  0.00000E+00  9.000E+00
      21    -1     0     0   511   502  0.000000000E+00  0.000000000E+00 -2.991002147E+02  2.991002147E+02  0.000000000E+00  0.00000E+00  9.000E+00
      25     1     1     2     0     0 -1.026434957E+02  5.449183187E+01 -8.071799113E+01  1.888000028E+02  1.250000000E+02  0.00000E+00  9.000E+00
      25     1     1     2     0     0  8.796144045E+01 -1.208531896E+01  4.736551321E+02  4.978528438E+02  1.250000000E+02  0.00000E+00  9.000E+00
      21     1     1     2   511   501  1.468205528E+01 -4.240651291E+01 -1.489353404E+02  1.555493835E+02  1.907348633E-06  0.00000E+00  9.000E+00
#rwgt            1           1   2.8659393236929852E-002           4      111418           0
</event>
<event>
      5   9999  3.19816E-02  5.88000E+01 -1.00000E+00  1.35174E-01
      21    -1     0     0   512   501  0.000000000E+00  0.000000000E+00  7.824202088E+02  7.824202088E+02  0.000000000E+00  0.00000E+00  9.000E+00
      21    -1     0     0   501   502  0.000000000E+00  0.000000000E+00 -1.053716976E+02  1.053716976E+02  0.000000000E+00  0.00000E+00  9.000E+00
      25     1     1     2     0     0 -4.767142505E+01  1.295471896E+02  4.020237779E+02  4.430611212E+02  1.250000000E+02  0.00000E+00  9.000E+00
      25     1     1     2     0     0 -8.597903124E+00 -1.466118296E+02  3.299325974E+01  1.956591620E+02  1.250000000E+02  0.00000E+00  9.000E+00
      21     1     1     2   512   502  5.626932818E+01  1.706463996E+01  2.420314736E+02  2.490716231E+02  4.672030912E-06  0.00000E+00  9.000E+00
#rwgt            1           1   2.9065603694121495E-002           4      111498           0
</event>
<event>
      5   9999  3.19816E-02  1.18215E+02 -1.00000E+00  1.20645E-01
      21    -1     0     0   502   501  0.000000000E+00  0.000000000E+00  1.292714272E+03  1.292714272E+03  0.000000000E+00  0.00000E+00  9.000E+00
      21    -1     0     0   511   502  0.000000000E+00  0.000000000E+00 -5.727855998E+02  5.727855998E+02  0.000000000E+00  0.00000E+00  9.000E+00
      25     1     1     2     0     0 -1.558962706E+02  2.587626574E+02  1.092058687E+03  1.139946900E+03  1.250000000E+02  0.00000E+00  9.000E+00
      25     1     1     2     0     0  2.048996992E+02 -3.663430160E+02 -1.312227858E+02  4.572040153E+02  1.250000000E+02  0.00000E+00  9.000E+00
      21     1     1     2   511   501 -4.900342865E+01  1.075803586E+02 -2.409072287E+02  2.683489564E+02  4.672030912E-06  0.00000E+00  9.000E+00
#rwgt            1           1   2.8646236824607856E-002           4      111604           0
</event>
<event>
      5   9999  3.19816E-02  2.58822E+01 -1.00000E+00  1.57631E-01
      21    -1     0     0   512   501  0.000000000E+00  0.000000000E+00  1.419100881E+02  1.419100881E+02  0.000000000E+00  0.00000E+00  9.000E+00
      21    -1     0     0   501   502  0.000000000E+00  0.000000000E+00 -9.957632935E+02  9.957632935E+02  0.000000000E+00  0.00000E+00  9.000E+00
      25     1     1     2     0     0 -1.065126176E+02 -3.225296839E+01 -9.212413490E+02  9.363203590E+02  1.250000000E+02  0.00000E+00  9.000E+00
      25     1     1     2     0     0  1.040477693E+02  6.488398058E+00  5.039092341E+01  1.703886228E+02  1.250000000E+02  0.00000E+00  9.000E+00
      21     1     1     2   512   502  2.464848301E+00  2.576457033E+01  1.699722014E+01  3.096439978E+01  8.920806376E-07  0.00000E+00  9.000E+00
#rwgt            1           1   3.1427475161034397E-002           4      111689           0
</event>
<event>
      5   9999  3.19816E-02  8.91543E+01 -1.00000E+00  1.26113E-01
      21    -1     0     0   511   501  0.000000000E+00  0.000000000E+00  5.380022228E+02  5.380022228E+02  0.000000000E+00  0.00000E+00  9.000E+00
      21    -1     0     0   501   502  0.000000000E+00  0.000000000E+00 -2.246496103E+03  2.246496103E+03  0.000000000E+00  0.00000E+00  9.000E+00
      25     1     1     2     0     0  6.593488176E+01 -3.798797037E+02 -2.060900991E+03  2.100379464E+03  1.250000000E+02  0.00000E+00  9.000E+00
      25     1     1     2     0     0 -1.076858035E+02  4.586537379E+02  3.395647682E+02  5.940443716E+02  1.250000000E+02  0.00000E+00  9.000E+00
      21     1     1     2   511   502  4.175092179E+01 -7.877403419E+01  1.284234304E+01  9.007448977E+01  9.973764736E-07  0.00000E+00  9.000E+00
#rwgt            1           1   2.9938936337389005E-002           4      111808           0
</event>
<event>
      5   9999  3.19816E-02  9.72892E+01 -1.00000E+00  1.24367E-01
      21    -1     0     0   502   501  0.000000000E+00  0.000000000E+00  3.761938376E+02  3.761938376E+02  0.000000000E+00  0.00000E+00  9.000E+00
      21    -1     0     0   512   502  0.000000000E+00  0.000000000E+00 -2.759564828E+02  2.759564828E+02  0.000000000E+00  0.00000E+00  9.000E+00
      25     1     1     2     0     0  1.405313830E+01 -1.614967627E+02 -8.637186893E+01  2.221796454E+02  1.250000000E+02  0.00000E+00  9.000E+00
      25     1     1     2     0     0  8.317870923E+01  1.581554156E+02  2.356055973E+02  3.210402321E+02  1.250000000E+02  0.00000E+00  9.000E+00
      21     1     1     2   512   501 -9.723184753E+01  3.341347194E+00 -4.899637353E+01  1.089304429E+02  6.743495762E-07  0.00000E+00  9.000E+00
#rwgt            1           1   2.5962419206072933E-002           4      111945           0
</event>
<event>
      5   9999  3.19816E-02  8.43876E+01 -1.00000E+00  1.27237E-01
      21    -1     0     0   502   501  0.000000000E+00  0.000000000E+00  5.932904623E+02  5.932904623E+02  0.000000000E+00  0.00000E+00  9.000E+00
      -2    -1     0     0     0   502  0.000000000E+00  0.000000000E+00 -1.214668385E+02  1.214668385E+02  0.000000000E+00  0.00000E+00  9.000E+00
      25     1     1     2     0     0  7.152633315E+01 -1.138376973E+02  3.863855895E+02  4.277778179E+02  1.250000000E+02  0.00000E+00  9.000E+00
      25     1     1     2     0     0  1.239537273E+01  1.049828476E+02  1.121812131E+02  1.984557082E+02  1.250000000E+02  0.00000E+00  9.000E+00
      -2     1     1     2     0   501 -8.392170588E+01  8.854849688E+00 -2.674317875E+01  8.852377472E+01  1.907348633E-06  0.00000E+00  9.000E+00
#rwgt            1           1   2.7768233315196737E-002           4      112031           0
</event>
<event>
      5   9999  3.19816E-02  1.36136E+02 -1.00000E+00  1.18088E-01
      21    -1     0     0   502   501  0.000000000E+00  0.000000000E+00  1.465669339E+03  1.465669339E+03  0.000000000E+00  0.00000E+00  9.000E+00
      21    -1     0     0   501   511  0.000000000E+00  0.000000000E+00 -1.232275535E+03  1.232275535E+03  0.000000000E+00  0.00000E+00  9.000E+00
      25     1     1     2     0     0  2.362940136E+02  3.155502365E+02 -3.947003236E+02  5.716818679E+02  1.250000000E+02  0.00000E+00  9.000E+00
      25     1     1     2     0     0 -2.852951541E+02 -1.885392812E+02  1.346610225E+03  1.394963972E+03  1.250000000E+02  0.00000E+00  9.000E+00
      21     1     1     2   502   511  4.900114051E+01 -1.270109553E+02 -7.185160970E+02  7.312990334E+02  7.629394531E-06  0.00000E+00  9.000E+00
#rwgt            1           1   3.2518508331602428E-002           4      112095           0
</event>
<event>
      5   9999  3.19816E-02  2.23972E+01 -1.00000E+00  1.62412E-01
      21    -1     0     0   502   501  0.000000000E+00  0.000000000E+00  1.312019050E+03  1.312019050E+03  0.000000000E+00  0.00000E+00  9.000E+00
      21    -1     0     0   501   512  0.000000000E+00  0.000000000E+00 -1.471094715E+02  1.471094715E+02  0.000000000E+00  0.00000E+00  9.000E+00
      25     1     1     2     0     0  2.579829167E+02 -1.331786127E+02  1.045704161E+03  1.092434859E+03  1.250000000E+02  0.00000E+00  9.000E+00
      25     1     1     2     0     0 -2.472751995E+02  1.528504501E+02  1.296654205E+02  3.419742763E+02  1.250000000E+02  0.00000E+00  9.000E+00
      21     1     1     2   502   512 -1.070771726E+01 -1.967183743E+01 -1.046000305E+01  2.471938633E+01  4.460403188E-07  0.00000E+00  9.000E+00
#rwgt            1           1   2.6784946267414563E-002           4      112203           0
</event>
<event>
      5   9999  3.19816E-02  1.93560E+01 -1.00000E+00  1.67550E-01
      21    -1     0     0   502   501  0.000000000E+00  0.000000000E+00  4.285704553E+02  4.285704553E+02  0.000000000E+00  0.00000E+00  9.000E+00
      21    -1     0     0   501   511  0.000000000E+00  0.000000000E+00 -3.491792556E+02  3.491792556E+02  0.000000000E+00  0.00000E+00  9.000E+00
      25     1     1     2     0     0 -1.619702411E+02  2.429909153E+02  2.033552450E+02  3.771701202E+02  1.250000000E+02  0.00000E+00  9.000E+00
      25     1     1     2     0     0  1.813179435E+02 -2.424240971E+02 -5.900050599E+01  3.327937788E+02  1.250000000E+02  0.00000E+00  9.000E+00
      21     1     1     2   502   511 -1.934770249E+01 -5.668181871E-01 -6.496353922E+01  6.778581195E+01  0.000000000E+00  0.00000E+00  9.000E+00
#rwgt            1           1   2.6777495209411188E-002           4      112378           0
</event>
<event>
      5   9999  3.19816E-02  6.05428E+01 -1.00000E+00  1.34495E-01
      21    -1     0     0   502   501  0.000000000E+00  0.000000000E+00  3.591081738E+02  3.591081738E+02  0.000000000E+00  0.00000E+00  9.000E+00
      21    -1     0     0   501   512  0.000000000E+00  0.000000000E+00 -1.976327937E+02  1.976327937E+02  0.000000000E+00  0.00000E+00  9.000E+00
      25     1     1     2     0     0  1.770696562E+02  6.422632516E+01 -1.579409953E+01  2.266123067E+02  1.250000000E+02  0.00000E+00  9.000E+00
      25     1     1     2     0     0 -1.225579065E+02 -9.056826131E+01  1.834619542E+02  2.692700114E+02  1.250000000E+02  0.00000E+00  9.000E+00
      21     1     1     2   502   512 -5.451174970E+01  2.634193615E+01 -6.192474624E+00  6.085864933E+01  1.390207266E-06  0.00000E+00  9.000E+00
#rwgt            1           1   2.7444759493722236E-002           4      112517           0
</event>
<event>
      5   9999  3.19816E-02  4.00268E+01 -1.00000E+00  1.44822E-01
      21    -1     0     0   502   501  0.000000000E+00  0.000000000E+00  2.398453041E+02  2.398453041E+02  0.000000000E+00  0.00000E+00  9.000E+00
      21    -1     0     0   511   502  0.000000000E+00  0.000000000E+00 -6.509721992E+02  6.509721992E+02  0.000000000E+00  0.00000E+00  9.000E+00
      25     1     1     2     0     0  9.498926539E+01  2.125573185E+02 -4.082830603E+02  4.863369526E+02  1.250000000E+02  0.00000E+00  9.000E+00
      25     1     1     2     0     0 -9.273488559E+01 -2.525206006E+02  8.447275467E+01  3.084267482E+02  1.250000000E+02  0.00000E+00  9.000E+00
      21     1     1     2   511   501 -2.254379797E+00  3.996328207E+01 -8.731658957E+01  9.605380240E+01  1.651812370E-06  0.00000E+00  9.000E+00
#rwgt            1           1   2.6771554999595663E-002           4      112593           0
</event>
<event>
      5   9999  3.19816E-02  1.39915E+02 -1.00000E+00  1.17604E-01
      21    -1     0     0   502   501  0.000000000E+00  0.000000000E+00  1.298001345E+03  1.298001345E+03  0.000000000E+00  0.00000E+00  9.000E+00
      21    -1     0     0   501   512  0.000000000E+00  0.000000000E+00 -2.121161384E+02  2.121161384E+02  0.000000000E+00  0.00000E+00  9.000E+00
      25     1     1     2     0     0  3.353777916E+02 -3.285325169E+02  6.795621428E+02  8.353691302E+02  1.250000000E+02  0.00000E+00  9.000E+00
      25     1     1     2     0     0 -1.957113052E+02  3.201994637E+02  2.665177664E+02  4.769563201E+02  1.250000000E+02  0.00000E+00  9.000E+00
      21     1     1     2   502   512 -1.396664864E+02  8.333053227E+00  1.398052979E+02  1.977920335E+02  3.303624740E-06  0.00000E+00  9.000E+00
#rwgt            1           1   3.1300285558325952E-002           4      112707           0
</event>
<event>
      5   9999  3.19816E-02  1.63651E+02 -1.00000E+00  1.14914E-01
      21    -1     0     0   502   501  0.000000000E+00  0.000000000E+00  6.062015128E+02  6.062015128E+02  0.000000000E+00  0.00000E+00  9.000E+00
      21    -1     0     0   501   511  0.000000000E+00  0.000000000E+00 -6.796218100E+02  6.796218100E+02  0.000000000E+00  0.00000E+00  9.000E+00
      25     1     1     2     0     0 -6.839574147E+01  1.207353347E+02 -1.302903461E+00  1.867664211E+02  1.250000000E+02  0.00000E+00  9.000E+00
      25     1     1     2     0     0  2.308241841E+02 -1.406989932E+02  4.568484264E+02  5.453544676E+02  1.250000000E+02  0.00000E+00  9.000E+00
      21     1     1     2   502   511 -1.624284426E+02  1.996365854E+01 -5.289658202E+02  5.537024341E+02  0.000000000E+00  0.00000E+00  9.000E+00
#rwgt            1           1   2.5391753542707958E-002           4      112808           0
</event>
<event>
      5   9999  3.19816E-02  1.94264E+01 -1.00000E+00  1.67419E-01
      21    -1     0     0   502   512  0.000000000E+00  0.000000000E+00  1.365992452E+02  1.365992452E+02  0.000000000E+00  0.00000E+00  9.000E+00
      21    -1     0     0   501   502  0.000000000E+00  0.000000000E+00 -6.218486576E+02  6.218486576E+02  0.000000000E+00  0.00000E+00  9.000E+00
      25     1     1     2     0     0  8.900735887E+01 -1.467421436E+02 -2.900879113E+02  3.594879176E+02  1.250000000E+02  0.00000E+00  9.000E+00
      25     1     1     2     0     0 -1.050842889E+02  1.576469973E+02 -2.518466990E+02  3.390384098E+02  1.250000000E+02  0.00000E+00  9.000E+00
      21     1     1     2   501   512  1.607693002E+01 -1.090485376E+01  5.668519801E+01  5.992157531E+01  0.000000000E+00  0.00000E+00  9.000E+00
#rwgt            1           1   2.6921488483357476E-002           4      112858           0
</event>
<event>
      5   9999  3.19816E-02  1.11386E+02 -1.00000E+00  1.21758E-01
      21    -1     0     0   511   501  0.000000000E+00  0.000000000E+00  1.235273534E+03  1.235273534E+03  0.000000000E+00  0.00000E+00  9.000E+00
      21    -1     0     0   501   502  0.000000000E+00  0.000000000E+00 -6.669235981E+02  6.669235981E+02  0.000000000E+00  0.00000E+00  9.000E+00
      25     1     1     2     0     0  2.696223438E+01  8.493558769E+02  1.743639186E+02  8.764474564E+02  1.250000000E+02  0.00000E+00  9.000E+00
      25     1     1     2     0     0 -1.253553690E+02 -7.971493418E+02  2.722821807E+02  8.607692069E+02  1.250000000E+02  0.00000E+00  9.000E+00
      21     1     1     2   511   502  9.839313465E+01 -5.220653510E+01  1.217038368E+02  1.649804690E+02  1.907348633E-06  0.00000E+00  9.000E+00
#rwgt            2          11   7.7536668266498677E-003           4      113068           0
</event>
<event>
      5   9999  3.19816E-02  7.66349E+01 -1.00000E+00  1.29259E-01
      21    -1     0     0   512   501  0.000000000E+00  0.000000000E+00  1.797719126E+03  1.797719126E+03  0.000000000E+00  0.00000E+00  9.000E+00
      21    -1     0     0   501   502  0.000000000E+00  0.000000000E+00 -2.330131901E+02  2.330131901E+02  0.000000000E+00  0.00000E+00  9.000E+00
      25     1     1     2     0     0  3.697886233E+01  3.252185091E+02  1.520245397E+03  1.560097940E+03  1.250000000E+02  0.00000E+00  9.000E+00
      25     1     1     2     0     0  5.472750642E+00 -2.614159401E+02 -1.004313433E+02  3.067241423E+02  1.250000000E+02  0.00000E+00  9.000E+00
      21     1     1     2   512   502 -4.245161297E+01 -6.380256900E+01  1.448918819E+02  1.639102337E+02  3.303624740E-06  0.00000E+00  9.000E+00
#rwgt            1           1   3.1463411444596835E-002           4      113103           0
</event>
<event>
      5   9999  3.19816E-02  6.59481E+01 -1.00000E+00  1.32546E-01
      21    -1     0     0   502   501  0.000000000E+00  0.000000000E+00  7.502203931E+02  7.502203931E+02  0.000000000E+00  0.00000E+00  9.000E+00
      21    -1     0     0   501   511  0.000000000E+00  0.000000000E+00 -2.668414161E+02  2.668414161E+02  0.000000000E+00  0.00000E+00  9.000E+00
      25     1     1     2     0     0  2.782410158E+02 -7.163222835E+01  2.449746941E+02  3.977270920E+02  1.250000000E+02  0.00000E+00  9.000E+00
      25     1     1     2     0     0 -2.300007118E+02  1.165992226E+02  3.724551653E+02  4.699399496E+02  1.250000000E+02  0.00000E+00  9.000E+00
      21     1     1     2   502   511 -4.824030402E+01 -4.496699426E+01 -1.340508823E+02  1.493947675E+02  0.000000000E+00  0.00000E+00  9.000E+00
#rwgt            1           1   2.6554338760867966E-002           4      113235           0
</event>
<event>
      5   9999  3.19816E-02  9.78079E+01 -1.00000E+00  1.24262E-01
      21    -1     0     0   502   501  0.000000000E+00  0.000000000E+00  2.624589900E+02  2.624589900E+02  0.000000000E+00  0.00000E+00  9.000E+00
      21    -1     0     0   512   502  0.000000000E+00  0.000000000E+00 -1.094712273E+03  1.094712273E+03  0.000000000E+00  0.00000E+00  9.000E+00
      25     1     1     2     0     0 -2.990817663E+02  3.396660847E+02 -5.074301982E+02  6.913272438E+02  1.250000000E+02  0.00000E+00  9.000E+00
      25     1     1     2     0     0  3.730646513E+02 -2.756901391E+02 -2.433128131E+02  5.385242909E+02  1.250000000E+02  0.00000E+00  9.000E+00
      21     1     1     2   512   501 -7.398288498E+01 -6.397594560E+01 -8.151027213E+01  1.273197288E+02  2.132480600E-06  0.00000E+00  9.000E+00
#rwgt            1           1   3.0637327804808361E-002           4      113314           0
</event>
<event>
      5   9999  3.19816E-02  1.30216E+02 -1.00000E+00  1.18881E-01
      21    -1     0     0   511   501  0.000000000E+00  0.000000000E+00  2.878080478E+02  2.878080478E+02  0.000000000E+00  0.00000E+00  9.000E+00
      21    -1     0     0   501   502  0.000000000E+00  0.000000000E+00 -6.760058678E+02  6.760058678E+02  0.000000000E+00  0.00000E+00  9.000E+00
      25     1     1     2     0     0 -1.561450669E+01 -1.595337984E+02 -4.710021699E+02  5.129940445E+02  1.250000000E+02  0.00000E+00  9.000E+00
      25     1     1     2     0     0 -4.258679747E+01  2.760188480E+02  9.407451292E+01  3.201172500E+02  1.250000000E+02  0.00000E+00  9.000E+00
      21     1     1     2   511   502  5.820130416E+01 -1.164850497E+02 -1.127016307E+01  1.307026212E+02  2.689484161E-06  0.00000E+00  9.000E+00
#rwgt            1           1   3.0506034546260333E-002           4      113402           0
</event>
<event>
      5   9999  3.19816E-02  4.85926E+02 -1.00000E+00  9.92056E-02
      21    -1     0     0   502   501  0.000000000E+00  0.000000000E+00  7.684601291E+02  7.684601291E+02  0.000000000E+00  0.00000E+00  9.000E+00
       1    -1     0     0   501     0  0.000000000E+00  0.000000000E+00 -1.638158953E+03  1.638158953E+03  0.000000000E+00  0.00000E+00  9.000E+00
      25     1     1     2     0     0  2.505128505E+00  5.022247654E+02  4.837934620E+02  7.084610818E+02  1.250000000E+02  0.00000E+00  9.000E+00
      25     1     1     2     0     0 -7.236273400E+01 -2.134660103E+01  9.240731796E+01  1.727893372E+02  1.250000000E+02  0.00000E+00  9.000E+00
       1     1     1     2   502     0  6.985760549E+01 -4.808781644E+02 -1.445899604E+03  1.525368663E+03  1.525878906E-05  0.00000E+00  9.000E+00
#rwgt            2          12   1.0819791149913433E-002           4      113512           0
</event>
<event>
      5   9999  3.19816E-02  3.40260E+01 -1.00000E+00  1.49336E-01
      21    -1     0     0   502   501  0.000000000E+00  0.000000000E+00  2.532478454E+02  2.532478454E+02  0.000000000E+00  0.00000E+00  9.000E+00
      -2    -1     0     0     0   502  0.000000000E+00  0.000000000E+00 -1.627367594E+02  1.627367594E+02  0.000000000E+00  0.00000E+00  9.000E+00
      25     1     1     2     0     0 -4.718267182E+01  5.791655671E+01 -8.902309481E+01  1.706770151E+02  1.250000000E+02  0.00000E+00  9.000E+00
      25     1     1     2     0     0  1.980927773E+01 -3.770602159E+01  1.533408654E+02  2.023674197E+02  1.250000000E+02  0.00000E+00  9.000E+00
      -2     1     1     2     0   501  2.737339409E+01 -2.021053512E+01  2.619331550E+01  4.294017013E+01  4.768371582E-07  0.00000E+00  9.000E+00
#rwgt            1           1   3.1598969333886257E-002           4      113561           0
</event>
<event>
      5   9999  3.19816E-02  1.90382E+02 -1.00000E+00  1.12433E-01
      21    -1     0     0   502   501  0.000000000E+00  0.000000000E+00  6.768866810E+02  6.768866810E+02  0.000000000E+00  0.00000E+00  9.000E+00
      21    -1     0     0   501   511  0.000000000E+00  0.000000000E+00 -6.055417083E+02  6.055417083E+02  0.000000000E+00  0.00000E+00  9.000E+00
      25     1     1     2     0     0 -7.963816741E+01  1.947205098E+02  4.804252190E+02  5.391583308E+02  1.250000000E+02  0.00000E+00  9.000E+00
      25     1     1     2     0     0  1.322946122E+02 -3.776755140E+02 -2.140628162E+02  4.707319275E+02  1.250000000E+02  0.00000E+00  9.000E+00
      21     1     1     2   502   511 -5.265644477E+01  1.829550042E+02 -1.950174301E+02  2.725381309E+02  2.697398305E-06  0.00000E+00  9.000E+00
#rwgt            1           1   2.8962899587920449E-002           4      113652           0
</event>
<event>
      5   9999  3.19816E-02  4.23906E+01 -1.00000E+00  1.43294E-01
      21    -1     0     0   512   501  0.000000000E+00  0.000000000E+00  5.329150719E+02  5.329150719E+02  0.000000000E+00  0.00000E+00  9.000E+00
      21    -1     0     0   501   502  0.000000000E+00  0.000000000E+00 -7.388218014E+02  7.388218014E+02  0.000000000E+00  0.00000E+00  9.000E+00
      25     1     1     2     0     0  2.204761358E+02  5.961650168E+01 -3.807917219E+02  4.612929537E+02  1.250000000E+02  0.00000E+00  9.000E+00
      25     1     1     2     0     0 -2.623833932E+02 -5.323312649E+01 -2.478067068E+02  3.856319161E+02  1.250000000E+02  0.00000E+00  9.000E+00
      21     1     1     2   512   502  4.190725745E+01 -6.383375199E+00  4.226916992E+02  4.248120034E+02  5.394796609E-06  0.00000E+00  9.000E+00
#rwgt            1           1   2.6890072670663578E-002           4      113700           0
</event>
<event>
      5   9999  3.19816E-02  1.48584E+02 -1.00000E+00  1.16557E-01
      21    -1     0     0   502   501  0.000000000E+00  0.000000000E+00  2.219654612E+02  2.219654612E+02  0.000000000E+00  0.00000E+00  9.000E+00
      21    -1     0     0   511   502  0.000000000E+00  0.000000000E+00 -5.869285231E+02  5.869285231E+02  0.000000000E+00  0.00000E+00  9.000E+00
      25     1     1     2     0     0  2.808675882E+02 -2.158896064E+01 -7.663315817E+00  3.082797621E+02  1.250000000E+02  0.00000E+00  9.000E+00
      25     1     1     2     0     0 -1.506720119E+02 -5.000985953E+01 -2.063694973E+02  2.888189929E+02  1.250000000E+02  0.00000E+00  9.000E+00
      21     1     1     2   511   501 -1.301955763E+02  7.159882017E+01 -1.509302488E+02  2.117952292E+02  1.907348633E-06  0.00000E+00  9.000E+00
#rwgt            1           1   2.9349893221676807E-002           4      113786           0
</event>
<event>
      5   9999  3.19816E-02  5.34713E+01 -1.00000E+00  1.37432E-01
      21    -1     0     0   502   512  0.000000000E+00  0.000000000E+00  1.465157654E+03  1.465157654E+03  0.000000000E+00  0.00000E+00  9.000E+00
      21    -1     0     0   501   502  0.000000000E+00  0.000000000E+00 -8.201035025E+02  8.201035025E+02  0.000000000E+00  0.00000E+00  9.000E+00
      25     1     1     2     0     0  4.736561504E+02  1.280929951E+02 -2.671776773E+02  5.725092798E+02  1.250000000E+02  0.00000E+00  9.000E+00
      25     1     1     2     0     0 -4.216058204E+02 -1.158476561E+02 -2.702963593E+02  5.290153770E+02  1.250000000E+02  0.00000E+00  9.000E+00
      21     1     1     2   501   512 -5.205033004E+01 -1.224533905E+01  1.182528188E+03  1.183736500E+03  1.525878906E-05  0.00000E+00  9.000E+00
#rwgt            1           1   3.0387106381705036E-002           4      113822           0
</event>
<event>
      5   9999  3.19816E-02  3.06191E+01 -1.00000E+00  1.52426E-01
      21    -1     0     0   502   511  0.000000000E+00  0.000000000E+00  1.350315185E+03  1.350315185E+03  0.000000000E+00  0.00000E+00  9.000E+00
      21    -1     0     0   501   502  0.000000000E+00  0.000000000E+00 -1.288125919E+02  1.288125919E+02  0.000000000E+00  0.00000E+00  9.000E+00
      25     1     1     2     0     0  1.986604468E+02 -8.903846939E+01  2.973087810E+01  2.527899271E+02  1.250000000E+02  0.00000E+00  9.000E+00
      25     1     1     2     0     0 -1.776969369E+02  1.113557103E+02  8.854461720E+02  9.184858295E+02  1.250000000E+02  0.00000E+00  9.000E+00
      21     1     1     2   501   511 -2.096350990E+01 -2.231724095E+01  3.063255427E+02  3.078520198E+02  5.394796609E-06  0.00000E+00  9.000E+00
#rwgt            1           1   2.8321168533836441E-002           4      113984           0
</event>
<event>
      5   9999  3.19816E-02  4.95927E+01 -1.00000E+00  1.39278E-01
      21    -1     0     0   512   501  0.000000000E+00  0.000000000E+00  4.302218432E+02  4.302218432E+02  0.000000000E+00  0.00000E+00  9.000E+00
      21    -1     0     0   501   502  0.000000000E+00  0.000000000E+00 -1.718268093E+03  1.718268093E+03  0.000000000E+00  0.00000E+00  9.000E+00
      25     1     1     2     0     0 -3.573606492E+02  6.688713300E+02 -7.575708101E+02  1.079182108E+03  1.250000000E+02  0.00000E+00  9.000E+00
      25     1     1     2     0     0  3.290034291E+02 -7.095568080E+02 -5.930470215E+02  9.894664672E+02  1.250000000E+02  0.00000E+00  9.000E+00
      21     1     1     2   512   502  2.835722005E+01  4.068547800E+01  6.257158191E+01  7.984136091E+01  1.651812370E-06  0.00000E+00  9.000E+00
#rwgt            1           1   3.2984510709021170E-002           4      114094           0
</event>
<event>
      5   9999  3.19816E-02  8.10436E+01 -1.00000E+00  1.28078E-01
      21    -1     0     0   511   501  0.000000000E+00  0.000000000E+00  2.587028899E+02  2.587028899E+02  0.000000000E+00  0.00000E+00  9.000E+00
      21    -1     0     0   501   502  0.000000000E+00  0.000000000E+00 -4.257095441E+02  4.257095441E+02  0.000000000E+00  0.00000E+00  9.000E+00
      25     1     1     2     0     0 -1.182102599E+02  1.736499003E+01 -1.557703012E+02  2.327328837E+02  1.250000000E+02  0.00000E+00  9.000E+00
      25     1     1     2     0     0  1.238191632E+02 -9.821424857E+01 -1.763353484E+02  2.677617951E+02  1.250000000E+02  0.00000E+00  9.000E+00
      21     1     1     2   511   502 -5.608903382E+00  8.084925854E+01  1.650989954E+02  1.839177552E+02  2.697398305E-06  0.00000E+00  9.000E+00
#rwgt            1           1   3.0502310772800651E-002           4      114242           0
</event>
<event>
      5   9999  3.19816E-02  2.11148E+01 -1.00000E+00  1.64449E-01
      21    -1     0     0   502   501  0.000000000E+00  0.000000000E+00  8.343499224E+02  8.343499224E+02  0.000000000E+00  0.00000E+00  9.000E+00
      21    -1     0     0   512   502  0.000000000E+00  0.000000000E+00 -3.229855323E+02  3.229855323E+02  0.000000000E+00  0.00000E+00  9.000E+00
      25     1     1     2     0     0  1.668190360E+02 -2.917486968E+02 -1.141810799E+02  3.763086657E+02  1.250000000E+02  0.00000E+00  9.000E+00
      25     1     1     2     0     0 -1.600533435E+02  2.717472050E+02  6.591564432E+02  7.413338201E+02  1.250000000E+02  0.00000E+00  9.000E+00
      21     1     1     2   512   501 -6.765692556E+00  2.000149176E+01 -3.361097316E+01  3.969296897E+01  9.536743164E-07  0.00000E+00  9.000E+00
#rwgt            1           1   2.6275970844981948E-002           4      114304           0
</event>
<event>
      5   9999  3.19816E-02  1.03629E+02 -1.00000E+00  1.23136E-01
       1    -1     0     0   502     0  0.000000000E+00  0.000000000E+00  4.285647505E+02  4.285647505E+02  0.000000000E+00  0.00000E+00  9.000E+00
      21    -1     0     0   501   502  0.000000000E+00  0.000000000E+00 -3.385705727E+02  3.385705727E+02  0.000000000E+00  0.00000E+00  9.000E+00
      25     1     1     2     0     0 -7.181938824E+01  3.162770879E+02  1.184099719E+02  3.671990500E+02  1.250000000E+02  0.00000E+00  9.000E+00
      25     1     1     2     0     0  6.624808899E+00 -2.357247787E+02 -8.721562731E+01  2.807875087E+02  1.250000000E+02  0.00000E+00  9.000E+00
       1     1     1     2   501     0  6.519457934E+01 -8.055230922E+01  5.879983315E+01  1.191487645E+02  0.000000000E+00  0.00000E+00  9.000E+00
#rwgt            1           1   2.8153681835316881E-002           4      114491           0
</event>
<event>
      5   9999  3.19816E-02  1.05474E+02 -1.00000E+00  1.22796E-01
      21    -1     0     0   502   511  0.000000000E+00  0.000000000E+00  1.108288758E+02  1.108288758E+02  0.000000000E+00  0.00000E+00  9.000E+00
      21    -1     0     0   501   502  0.000000000E+00  0.000000000E+00 -8.761171379E+02  8.761171379E+02  0.000000000E+00  0.00000E+00  9.000E+00
      25     1     1     2     0     0  2.141377041E+02  1.281037521E+02 -4.850711748E+02  5.596289594E+02  1.250000000E+02  0.00000E+00  9.000E+00
      25     1     1     2     0     0 -1.263985024E+02 -6.956645903E+01 -2.555832593E+02  3.190045079E+02  1.250000000E+02  0.00000E+00  9.000E+00
      21     1     1     2   501   511 -8.773920176E+01 -5.853729303E+01 -2.463382800E+01  1.083125463E+02  2.654916936E-06  0.00000E+00  9.000E+00
#rwgt            2          11   2.8631415931644113E-003           4      114584           0
</event>
<event>
      5   9999  3.19816E-02  1.18209E+01 -1.00000E+00  1.87717E-01
      21    -1     0     0   502   501  0.000000000E+00  0.000000000E+00  3.550445747E+02  3.550445747E+02  0.000000000E+00  0.00000E+00  9.000E+00
      -1    -1     0     0     0   502  0.000000000E+00  0.000000000E+00 -7.791323144E+02  7.791323144E+02  0.000000000E+00  0.00000E+00  9.000E+00
      25     1     1     2     0     0  2.329723326E+01 -1.658401886E+02  7.535421052E+01  2.221463173E+02  1.250000000E+02  0.00000E+00  9.000E+00
      25     1     1     2     0     0 -1.746182070E+01  1.555600864E+02  1.575980227E+02  2.548842726E+02  1.250000000E+02  0.00000E+00  9.000E+00
      -1     1     1     2     0   501 -5.835412554E+00  1.028010224E+01 -6.570399729E+02  6.571462992E+02  0.000000000E+00  0.00000E+00  9.000E+00
#rwgt            1           1   3.0750031122521365E-002           4      114649           0
</event>
<event>
      5   9999  3.19816E-02  2.50034E+01 -1.00000E+00  1.58746E-01
      21    -1     0     0   502   501  0.000000000E+00  0.000000000E+00  6.350577351E+01  6.350577351E+01  0.000000000E+00  0.00000E+00  9.000E+00
       3    -1     0     0   501     0  0.000000000E+00  0.000000000E+00 -8.032982324E+02  8.032982324E+02  0.000000000E+00  0.00000E+00  9.000E+00
      25     1     1     2     0     0 -1.601752047E+02  8.162521600E+01 -2.918258528E+02  3.648370876E+02  1.250000000E+02  0.00000E+00  9.000E+00
      25     1     1     2     0     0  1.351727863E+02 -8.184874157E+01 -3.986651763E+02  4.466876106E+02  1.250000000E+02  0.00000E+00  9.000E+00
       3     1     1     2   502     0  2.500241841E+01  2.235255634E-01 -4.930142973E+01  5.527930773E+01  9.536743164E-07  0.00000E+00  9.000E+00
#rwgt            1           1   3.1655859703364646E-002           4      114831           0
</event>
<event>
      5   9999  3.19816E-02  2.35943E+01 -1.00000E+00  1.60657E-01
      21    -1     0     0   502   501  0.000000000E+00  0.000000000E+00  3.079449389E+02  3.079449389E+02  0.000000000E+00  0.00000E+00  9.000E+00
      21    -1     0     0   501   511  0.000000000E+00  0.000000000E+00 -8.431610623E+01  8.431610623E+01  0.000000000E+00  0.00000E+00  9.000E+00
      25     1     1     2     0     0  3.778651797E+00 -5.631567815E+01  1.817595771E+02  2.276999730E+02  1.250000000E+02  0.00000E+00  9.000E+00
      25     1     1     2     0     0  1.671429766E+01  4.462250386E+01  2.641836830E+01  1.363578593E+02  1.250000000E+02  0.00000E+00  9.000E+00
      21     1     1     2   502   511 -2.049294946E+01  1.169317429E+01  1.545088730E+01  2.820321295E+01  2.384185791E-07  0.00000E+00  9.000E+00
#rwgt            1           1   4.1824396116065775E-002           4      114930           0
</event>
<event>
      5   9999  3.19816E-02  4.81332E+01 -1.00000E+00  1.40025E-01
       2    -1     0     0   502     0  0.000000000E+00  0.000000000E+00  6.236458991E+02  6.236458991E+02  0.000000000E+00  0.00000E+00  9.000E+00
      21    -1     0     0   501   502  0.000000000E+00  0.000000000E+00 -2.446341947E+02  2.446341947E+02  0.000000000E+00  0.00000E+00  9.000E+00
      25     1     1     2     0     0 -5.301714016E+01  2.480659828E+02  3.410268228E+02  4.430257812E+02  1.250000000E+02  0.00000E+00  9.000E+00
      25     1     1     2     0     0  7.991802381E+01 -2.081517045E+02 -1.035242895E+02  2.757830690E+02  1.250000000E+02  0.00000E+00  9.000E+00
       2     1     1     2   501     0 -2.690088366E+01 -3.991427823E+01  1.415091711E+02  1.494712436E+02  1.907348633E-06  0.00000E+00  9.000E+00
#rwgt            1           1   2.5459201449082685E-002           4      115016           0
</event>
<event>
      5   9999  3.19816E-02  8.60553E+00 -1.00000E+00  2.03612E-01
      21    -1     0     0   502   501  0.000000000E+00  0.000000000E+00  3.879994108E+01  3.879994108E+01  0.000000000E+00  0.00000E+00  9.000E+00
      21    -1     0     0   511   502  0.000000000E+00  0.000000000E+00 -2.285381565E+03  2.285381565E+03  0.000000000E+00  0.00000E+00  9.000E+00
      25     1     1     2     0     0  1.038356173E+02 -2.378872930E+02 -1.180559874E+03  1.215203200E+03  1.250000000E+02  0.00000E+00  9.000E+00
      25     1     1     2     0     0 -9.599046499E+01  2.414240523E+02 -9.537022410E+02  9.963296176E+02  1.250000000E+02  0.00000E+00  9.000E+00
      21     1     1     2   511   501 -7.845152332E+00 -3.536759279E+00 -1.123195082E+02  1.126486885E+02  1.348699152E-06  0.00000E+00  9.000E+00
#rwgt            1           1   8.0079035747893546E-002           4      115110           0
</event>
<event>
      5   9999  3.19816E-02  2.73590E+01 -1.00000E+00  1.55873E-01
      21    -1     0     0   512   501  0.000000000E+00  0.000000000E+00  5.698273761E+02  5.698273761E+02  0.000000000E+00  0.00000E+00  9.000E+00
      21    -1     0     0   501   502  0.000000000E+00  0.000000000E+00 -5.763458770E+02  5.763458770E+02  0.000000000E+00  0.00000E+00  9.000E+00
      25     1     1     2     0     0 -3.238343111E+02 -4.454275145E+02 -9.305446373E+01  5.723272359E+02  1.250000000E+02  0.00000E+00  9.000E+00
      25     1     1     2     0     0  3.159720866E+02  4.192225696E+02  7.841425524E+01  5.453069941E+02  1.250000000E+02  0.00000E+00  9.000E+00
      21     1     1     2   512   502  7.862224417E+00  2.620494488E+01  8.121707552E+00  2.853902315E+01  5.591411304E-07  0.00000E+00  9.000E+00
#rwgt            1           1   2.0164340989854146E-002           4      115283           0
</event>
<event>
      5   9999  3.19816E-02  3.86707E+01 -1.00000E+00  1.45756E-01
      21    -1     0     0   502   511  0.000000000E+00  0.000000000E+00  7.405546621E+02  7.405546621E+02  0.000000000E+00  0.00000E+00  9.000E+00
      21    -1     0     0   501   502  0.000000000E+00  0.000000000E+00 -1.458399660E+02  1.458399660E+02  0.000000000E+00  0.00000E+00  9.000E+00
      25     1     1     2     0     0 -2.194723450E+01 -2.366667954E+02  1.193381474E+02  2.938697783E+02  1.250000000E+02  0.00000E+00  9.000E+00
      25     1     1     2     0     0 -1.808570522E+00  2.061531569E+02  1.966395901E+02  3.111181824E+02  1.250000000E+02  0.00000E+00  9.000E+00
      21     1     1     2   501   511  2.375580502E+01  3.051363855E+01  2.787369585E+02  2.814066673E+02  0.000000000E+00  0.00000E+00  9.000E+00
#rwgt            1           1   2.6270231941914999E-002           4      115412           0
</event>
<event>
      5   9999  3.19816E-02  6.36686E+01 -1.00000E+00  1.33340E-01
       1    -1     0     0   502     0  0.000000000E+00  0.000000000E+00  1.362924164E+02  1.362924164E+02  0.000000000E+00  0.00000E+00  9.000E+00
      21    -1     0     0   501   502  0.000000000E+00  0.000000000E+00 -6.879165229E+02  6.879165229E+02  0.000000000E+00  0.00000E+00  9.000E+00
      25     1     1     2     0     0 -5.856184162E+01  1.500274130E+02 -2.684405680E+02  3.370801870E+02  1.250000000E+02  0.00000E+00  9.000E+00
      25     1     1     2     0     0  1.092989130E+02 -1.884909726E+02 -6.447286406E+01  2.593392553E+02  1.250000000E+02  0.00000E+00  9.000E+00
       1     1     1     2   501     0 -5.073707136E+01  3.846355961E+01 -2.187106745E+02  2.277894971E+02  2.697398305E-06  0.00000E+00  9.000E+00
#rwgt            1           1   3.3482317924392255E-002           4      115515           0
</event>
<event>
      5   9999  3.19816E-02  2.79058E+01 -1.00000E+00  1.55255E-01
      21    -1     0     0   511   501  0.000000000E+00  0.000000000E+00  3.694003502E+02  3.694003502E+02  0.000000000E+00  0.00000E+00  9.000E+00
      21    -1     0     0   501   502  0.000000000E+00  0.000000000E+00 -3.254445870E+02  3.254445870E+02  0.000000000E+00  0.00000E+00  9.000E+00
      25     1     1     2     0     0  1.404144915E+02 -2.706230820E+02  5.671267208E+01  3.343567094E+02  1.250000000E+02  0.00000E+00  9.000E+00
      25     1     1     2     0     0 -1.143388289E+02  2.606836993E+02 -4.901690025E+01  3.147332448E+02  1.250000000E+02  0.00000E+00  9.000E+00
      21     1     1     2   511   502 -2.607566258E+01  9.939382712E+00  3.625999128E+01  4.575498306E+01  4.768371582E-07  0.00000E+00  9.000E+00
#rwgt            1           1   2.8107844720956631E-002           4      115621           0
</event>
<event>
      5   9999  3.19816E-02  9.48757E+01 -1.00000E+00  1.24864E-01
      21    -1     0     0   502   512  0.000000000E+00  0.000000000E+00  4.153796222E+02  4.153796222E+02  0.000000000E+00  0.00000E+00  9.000E+00
      21    -1     0     0   501   502  0.000000000E+00  0.000000000E+00 -3.637567855E+02  3.637567855E+02  0.000000000E+00  0.00000E+00  9.000E+00
      25     1     1     2     0     0 -2.303052760E+02 -1.086719312E+02  2.013952776E+02  3.479010874E+02  1.250000000E+02  0.00000E+00  9.000E+00
      25     1     1     2     0     0  1.927254405E+02  2.155618094E+01 -2.155847519E+02  3.157681897E+02  1.250000000E+02  0.00000E+00  9.000E+00
      21     1     1     2   501   512  3.757983549E+01  8.711575026E+01  6.581231106E+01  1.154671307E+02  1.907348633E-06  0.00000E+00  9.000E+00
#rwgt            1           1   2.4005304185301821E-002           4      115732           0
</event>
<event>
      5   9999  3.19816E-02  1.71963E+02 -1.00000E+00  1.14089E-01
      21    -1     0     0   502   501  0.000000000E+00  0.000000000E+00  4.232063884E+02  4.232063884E+02  0.000000000E+00  0.00000E+00  9.000E+00
      21    -1     0     0   511   502  0.000000000E+00  0.000000000E+00 -7.950099121E+02  7.950099121E+02  0.000000000E+00  0.00000E+00  9.000E+00
      25     1     1     2     0     0 -3.311664139E+02  1.424803851E+02 -3.983291346E+02  5.516003565E+02  1.250000000E+02  0.00000E+00  9.000E+00
      25     1     1     2     0     0  2.134582990E+02 -1.711674322E+01  2.712573550E+02  3.675091576E+02  1.250000000E+02  0.00000E+00  9.000E+00
      21     1     1     2   511   501  1.177081149E+02 -1.253636419E+02 -2.447317441E+02  2.991067863E+02  2.697398305E-06  0.00000E+00  9.000E+00
#rwgt            1           1   2.8214144342276353E-002           4      115812           0
</event>
<event>
      5   9999  3.19816E-02  4.49000E+01 -1.00000E+00  1.41795E-01
       1    -1     0     0   502     0  0.000000000E+00  0.000000000E+00  4.327532332E+02  4.327532332E+02  0.000000000E+00  0.00000E+00  9.000E+00
      21    -1     0     0   501   502  0.000000000E+00  0.000000000E+00 -3.063679450E+02  3.063679450E+02  0.000000000E+00  0.00000E+00  9.000E+00
      25     1     1     2     0     0 -5.273577823E+00  2.307663864E+02  1.600585485E+02  3.074486537E+02  1.250000000E+02  0.00000E+00  9.000E+00
      25     1     1     2     0     0  3.296038242E+01 -1.954188211E+02 -1.691274445E+02  2.889705780E+02  1.250000000E+02  0.00000E+00  9.000E+00
       1     1     1     2   501     0 -2.768680459E+01 -3.534756526E+01  1.354541843E+02  1.427019466E+02  0.000000000E+00  0.00000E+00  9.000E+00
#rwgt            1           1   2.6127723392050276E-002           4      115892           0
</event>
<event>
      5   9999  3.19816E-02  2.11574E+02 -1.00000E+00  1.10766E-01
      21    -1     0     0   502   511  0.000000000E+00  0.000000000E+00  1.016744163E+02  1.016744163E+02  0.000000000E+00  0.00000E+00  9.000E+00
      21    -1     0     0   501   502  0.000000000E+00  0.000000000E+00 -1.581679421E+03  1.581679421E+03  0.000000000E+00  0.00000E+00  9.000E+00
      25     1     1     2     0     0  1.377611142E+02 -1.241371995E+02 -2.379854461E+02  3.265734855E+02  1.250000000E+02  0.00000E+00  9.000E+00
      25     1     1     2     0     0 -1.473549705E+02 -8.721878330E+01 -1.049588157E+03  1.070785181E+03  1.250000000E+02  0.00000E+00  9.000E+00
      21     1     1     2   501   511  9.593856317E+00  2.113559828E+02 -1.924314013E+02  2.859951708E+02  5.394796609E-06  0.00000E+00  9.000E+00
#rwgt            1           1   3.0481723576339825E-002           4      115998           0
</event>
<event>
      5   9999  3.19816E-02  1.85647E+02 -1.00000E+00  1.12838E-01
      21    -1     0     0   502   512  0.000000000E+00  0.000000000E+00  6.192870064E+02  6.192870064E+02  0.000000000E+00  0.00000E+00  9.000E+00
      21    -1     0     0   501   502  0.000000000E+00  0.000000000E+00 -1.789395854E+03  1.789395854E+03  0.000000000E+00  0.00000E+00  9.000E+00
      25     1     1     2     0     0 -1.515910874E+02  2.746020742E+02 -3.913460501E+02  5.168780203E+02  1.250000000E+02  0.00000E+00  9.000E+00
      25     1     1     2     0     0  2.121452069E+02 -4.500959591E+02 -1.268359119E+03  1.368192901E+03  1.250000000E+02  0.00000E+00  9.000E+00
      21     1     1     2   501   512 -6.055411948E+01  1.754938849E+02  4.895963210E+02  5.236119389E+02  5.394796609E-06  0.00000E+00  9.000E+00
#rwgt            1           1   3.0296096099765121E-002           4      116036           0
</event>
<event>
      5   9999  3.19816E-02  2.06121E+01 -1.00000E+00  1.65296E-01
      21    -1     0     0   502   501  0.000000000E+00  0.000000000E+00  2.473084521E+02  2.473084521E+02  0.000000000E+00  0.00000E+00  9.000E+00
      21    -1     0     0   501   511  0.000000000E+00  0.000000000E+00 -2.970078928E+02  2.970078928E+02  0.000000000E+00  0.00000E+00  9.000E+00
      25     1     1     2     0     0  1.814351844E+01 -1.864942887E+02 -1.349355632E+02  2.625679211E+02  1.250000000E+02  0.00000E+00  9.000E+00
      25     1     1     2     0     0 -1.446825431E+01  2.067761108E+02  9.357559792E+01  2.595131652E+02  1.250000000E+02  0.00000E+00  9.000E+00
      21     1     1     2   502   511 -3.675264140E+00 -2.028182213E+01 -8.339475332E+00  2.223525858E+01  2.920019320E-07  0.00000E+00  9.000E+00
#rwgt            1           1   2.5120942239869683E-002           4      116095           0
</event>
<event>
      5   9999  3.19816E-02  4.87107E+01 -1.00000E+00  1.39726E-01
      21    -1     0     0   502   501  0.000000000E+00  0.000000000E+00  2.912317762E+02  2.912317762E+02  0.000000000E+00  0.00000E+00  9.000E+00
       2    -1     0     0   501     0  0.000000000E+00  0.000000000E+00 -2.897721691E+03  2.897721691E+03  0.000000000E+00  0.00000E+00  9.000E+00
      25     1     1     2     0     0  5.796783026E+01  6.847204534E+01  6.953406365E+01  1.688451253E+02  1.250000000E+02  0.00000E+00  9.000E+00
      25     1     1     2     0     0 -9.316888915E+00 -6.606060553E+01  1.426232226E+02  2.010402737E+02  1.250000000E+02  0.00000E+00  9.000E+00
       2     1     1     2   502     0 -4.865094134E+01 -2.411439810E+00 -2.818647201E+03  2.819068068E+03  3.051757812E-05  0.00000E+00  9.000E+00
#rwgt            1           1   4.0092946548423221E-002           4      116266           0
</event>
<event>
      5   9999  3.19816E-02  4.51000E+01 -1.00000E+00  1.41680E-01
      21    -1     0     0   502   501  0.000000000E+00  0.000000000E+00  4.713775244E+02  4.713775244E+02  0.000000000E+00  0.00000E+00  9.000E+00
      21    -1     0     0   511   502  0.000000000E+00  0.000000000E+00 -3.517422553E+02  3.517422553E+02  0.000000000E+00  0.00000E+00  9.000E+00
      25     1     1     2     0     0  2.833290084E+02  1.580230616E+02  1.739167283E+01  3.481006826E+02  1.250000000E+02  0.00000E+00  9.000E+00
      25     1     1     2     0     0 -3.137359596E+02 -1.247149650E+02  1.663908216E+02  3.966043120E+02  1.250000000E+02  0.00000E+00  9.000E+00
      21     1     1     2   511   501  3.040695121E+01 -3.330809664E+01 -6.414722537E+01  7.841478500E+01  1.348699152E-06  0.00000E+00  9.000E+00
#rwgt            1           1   2.5434755453062875E-002           4      116299           0
</event>
<event>
      5   9999  3.19816E-02  2.59329E+01 -1.00000E+00  1.57568E-01
      21    -1     0     0   502   501  0.000000000E+00  0.000000000E+00  1.533405443E+03  1.533405443E+03  0.000000000E+00  0.00000E+00  9.000E+00
      21    -1     0     0   512   502  0.000000000E+00  0.000000000E+00 -2.312961333E+02  2.312961333E+02  0.000000000E+00  0.00000E+00  9.000E+00
      25     1     1     2     0     0 -3.709641551E+02  4.804064323E+01  4.321329893E+01  3.967552104E+02  1.250000000E+02  0.00000E+00  9.000E+00
      25     1     1     2     0     0  3.903000696E+02 -3.075945011E+01  1.273507536E+03  1.338180381E+03  1.250000000E+02  0.00000E+00  9.000E+00
      21     1     1     2   512   501 -1.933591450E+01 -1.728119312E+01 -1.461152474E+01  2.976598529E+01  3.769728732E-07  0.00000E+00  9.000E+00
#rwgt            1           1   2.7034438078809845E-002           4      116492           0
</event>
<event>
      5   9999  3.19816E-02  3.25599E+02 -1.00000E+00  1.04449E-01
       2    -1     0     0   502     0  0.000000000E+00  0.000000000E+00  1.681786386E+03  1.681786386E+03  0.000000000E+00  0.00000E+00  9.000E+00
      21    -1     0     0   501   502  0.000000000E+00  0.000000000E+00 -5.128122620E+02  5.128122620E+02  0.000000000E+00  0.00000E+00  9.000E+00
      25     1     1     2     0     0  6.113967858E+02 -2.202044110E+02  6.057944789E+02  8.971666305E+02  1.250000000E+02  0.00000E+00  9.000E+00
      25     1     1     2     0     0 -3.264028504E+02  6.274646368E+01 -2.414525104E+02  4.294185071E+02  1.250000000E+02  0.00000E+00  9.000E+00
       2     1     1     2   501     0 -2.849939353E+02  1.574579473E+02  8.046321551E+02  8.680135099E+02  1.078959322E-05  0.00000E+00  9.000E+00
#rwgt            2          18   1.4788318947635611E-003           4      117004           0
</event>
<event>
      5   9999  3.19816E-02  2.30822E+01 -1.00000E+00  1.61392E-01
      21    -1     0     0   511   501  0.000000000E+00  0.000000000E+00  1.950739548E+03  1.950739548E+03  0.000000000E+00  0.00000E+00  9.000E+00
      21    -1     0     0   501   502  0.000000000E+00  0.000000000E+00 -7.232953813E+01  7.232953813E+01  0.000000000E+00  0.00000E+00  9.000E+00
      25     1     1     2     0     0  9.907837394E+00  1.739786339E+02  6.569908323E+02  6.911068543E+02  1.250000000E+02  0.00000E+00  9.000E+00
      25     1     1     2     0     0  1.317332267E+01 -1.742020193E+02  1.540445346E+02  2.643380385E+02  1.250000000E+02  0.00000E+00  9.000E+00
      21     1     1     2   511   502 -2.308116007E+01  2.233853466E-01  1.067374643E+03  1.067624193E+03  0.000000000E+00  0.00000E+00  9.000E+00
#rwgt            1           1   3.0146826154541454E-002           4      117053           0
</event>
<event>
      5   9999  3.19816E-02  7.56206E+01 -1.00000E+00  1.29544E-01
      21    -1     0     0   502   512  0.000000000E+00  0.000000000E+00  3.720463820E+02  3.720463820E+02  0.000000000E+00  0.00000E+00  9.000E+00
      21    -1     0     0   501   502  0.000000000E+00  0.000000000E+00 -1.556759125E+02  1.556759125E+02  0.000000000E+00  0.00000E+00  9.000E+00
      25     1     1     2     0     0  1.175107836E+02 -7.361655379E+00 -2.620583436E-01  1.717208401E+02  1.250000000E+02  0.00000E+00  9.000E+00
      25     1     1     2     0     0 -1.502444883E+02 -6.080712576E+01  1.377106191E+02  2.466984544E+02  1.250000000E+02  0.00000E+00  9.000E+00
      21     1     1     2   501   512  3.273370462E+01  6.816878114E+01  7.892190869E+01  1.093030000E+02  1.907348633E-06  0.00000E+00  9.000E+00
#rwgt            1           1   2.6508445445523669E-002           4      117262           0
</event>
<event>
      5   9999  3.19816E-02  1.11811E+02 -1.00000E+00  1.21686E-01
      21    -1     0     0   502   511  0.000000000E+00  0.000000000E+00  1.166677232E+03  1.166677232E+03  0.000000000E+00  0.00000E+00  9.000E+00
      21    -1     0     0   501   502  0.000000000E+00  0.000000000E+00 -2.052694037E+02  2.052694037E+02  0.000000000E+00  0.00000E+00  9.000E+00
      25     1     1     2     0     0 -1.477508199E+02 -7.736609223E+01  9.503356427E+02  9.729227363E+02  1.250000000E+02  0.00000E+00  9.000E+00
      25     1     1     2     0     0  1.357286973E+02 -3.379650912E+01 -1.230983097E+02  2.243717388E+02  1.250000000E+02  0.00000E+00  9.000E+00
      21     1     1     2   501   511  1.202212257E+01  1.111626014E+02  1.341704948E+02  1.746521601E+02  0.000000000E+00  0.00000E+00  9.000E+00
#rwgt            1           1   3.1559305776347781E-002           4      117373           0
</event>
<event>
      5   9999  3.19816E-02  2.15130E+02 -1.00000E+00  1.10507E-01
      21    -1     0     0   502   501  0.000000000E+00  0.000000000E+00  9.234907024E+02  9.234907024E+02  0.000000000E+00  0.00000E+00  9.000E+00
      21    -1     0     0   512   502  0.000000000E+00  0.000000000E+00 -3.918494986E+02  3.918494986E+02  0.000000000E+00  0.00000E+00  9.000E+00
      25     1     1     2     0     0  2.234897198E+02 -1.530689262E+02  2.136252321E+02  3.669311800E+02  1.250000000E+02  0.00000E+00  9.000E+00
      25     1     1     2     0     0 -4.285383825E+02  2.181546717E+02  4.708507422E+02  6.845159074E+02  1.250000000E+02  0.00000E+00  9.000E+00
      21     1     1     2   512   501  2.050486627E+02 -6.508574540E+01 -1.528347705E+02  2.638931136E+02  2.697398305E-06  0.00000E+00  9.000E+00
#rwgt            1           1   2.8520475806426610E-002           4      117432           0
</event>
<event>
      5   9999  3.19816E-02  1.52524E+01 -1.00000E+00  1.76704E-01
      21    -1     0     0   502   501  0.000000000E+00  0.000000000E+00  3.335388653E+02  3.335388653E+02  0.000000000E+00  0.00000E+00  9.000E+00
      21    -1     0     0   501   511  0.000000000E+00  0.000000000E+00 -4.949709611E+02  4.949709611E+02  0.000000000E+00  0.00000E+00  9.000E+00
      25     1     1     2     0     0  1.494150728E+02 -9.802855644E+01 -2.297163994E+01  2.192878430E+02  1.250000000E+02  0.00000E+00  9.000E+00
      25     1     1     2     0     0 -1.628419474E+02  1.052641683E+02  1.786247260E+02  2.917701796E+02  1.250000000E+02  0.00000E+00  9.000E+00
      21     1     1     2   502   511  1.342687463E+01 -7.235611839E+00 -3.170851819E+02  3.174518036E+02  0.000000000E+00  0.00000E+00  9.000E+00
#rwgt            1           1   3.0717381600924503E-002           4      117466           0
</event>
<event>
      5   9999  3.19816E-02  1.26869E+02 -1.00000E+00  1.19351E-01
       2    -1     0     0   502     0  0.000000000E+00  0.000000000E+00  2.344529255E+03  2.344529255E+03  0.000000000E+00  0.00000E+00  9.000E+00
      21    -1     0     0   501   502  0.000000000E+00  0.000000000E+00 -5.879174034E+02  5.879174034E+02  0.000000000E+00  0.00000E+00  9.000E+00
      25     1     1     2     0     0 -6.751338033E+01  7.885834465E+02  3.093234381E+02  8.589108789E+02  1.250000000E+02  0.00000E+00  9.000E+00
      25     1     1     2     0     0 -4.173084054E+01 -7.240735595E+02  1.266118712E+02  7.467794511E+02  1.250000000E+02  0.00000E+00  9.000E+00
       2     1     1     2   501     0  1.092442209E+02 -6.450988696E+01  1.320676542E+03  1.326756328E+03  1.525878906E-05  0.00000E+00  9.000E+00
#rwgt            1           1   2.1651069771585922E-002           4      117706           0
</event>
<event>
      5   9999  3.19816E-02  9.49561E+01 -1.00000E+00  1.24847E-01
      21    -1     0     0   502   511  0.000000000E+00  0.000000000E+00  8.225052775E+02  8.225052775E+02  0.000000000E+00  0.00000E+00  9.000E+00
      21    -1     0     0   501   502  0.000000000E+00  0.000000000E+00 -1.021633603E+02  1.021633603E+02  0.000000000E+00  0.00000E+00  9.000E+00
      25     1     1     2     0     0 -1.299645078E+02 -8.551542280E+01  7.457154845E+01  2.130482965E+02  1.250000000E+02  0.00000E+00  9.000E+00
      25     1     1     2     0     0  5.210227516E+01  1.398673318E+02  3.440868202E+02  3.953457442E+02  1.250000000E+02  0.00000E+00  9.000E+00
      21     1     1     2   501   511  7.786223263E+01 -5.435190899E+01  3.016835485E+02  3.162745970E+02  3.814697266E-06  0.00000E+00  9.000E+00
#rwgt            1           1   2.9125315528245557E-002           4      117783           0
</event>
<event>
      5   9999  3.19816E-02  7.54094E+01 -1.00000E+00  1.29604E-01
      21    -1     0     0   502   501  0.000000000E+00  0.000000000E+00  3.610113172E+02  3.610113172E+02  0.000000000E+00  0.00000E+00  9.000E+00
      21    -1     0     0   512   502  0.000000000E+00  0.000000000E+00 -3.130193595E+02  3.130193595E+02  0.000000000E+00  0.00000E+00  9.000E+00
      25     1     1     2     0     0 -1.118038839E+02 -1.056111349E+02 -1.372496781E+02  2.410732138E+02  1.250000000E+02  0.00000E+00  9.000E+00
      25     1     1     2     0     0  1.499552358E+02  1.706576899E+02  2.288525617E+02  3.458455072E+02  1.250000000E+02  0.00000E+00  9.000E+00
      21     1     1     2   512   501 -3.815135190E+01 -6.504655505E+01 -4.361092588E+01  8.711195573E+01  1.430511475E-06  0.00000E+00  9.000E+00
#rwgt            1           1   3.1595085426226840E-002           4      117843           0
</event>
<event>
      5   9999  3.19816E-02  1.29906E+02 -1.00000E+00  1.18924E-01
      21    -1     0     0   502   501  0.000000000E+00  0.000000000E+00  1.108159737E+02  1.108159737E+02  0.000000000E+00  0.00000E+00  9.000E+00
      21    -1     0     0   501   511  0.000000000E+00  0.000000000E+00 -2.234122433E+03  2.234122433E+03  0.000000000E+00  0.00000E+00  9.000E+00
      25     1     1     2     0     0  2.341156515E+02 -2.591301200E+02 -7.017557981E+02  7.937535874E+02  1.250000000E+02  0.00000E+00  9.000E+00
      25     1     1     2     0     0 -3.606783656E+02  2.298489378E+02 -7.954397008E+02  9.117394009E+02  1.250000000E+02  0.00000E+00  9.000E+00
      21     1     1     2   502   511  1.265627141E+02  2.928118214E+01 -6.261109601E+02  6.394454180E+02  1.321449896E-05  0.00000E+00  9.000E+00
#rwgt            1           1   3.4068965107213106E-002           4      117905           0
</event>
<event>
      5   9999  3.19816E-02  8.08787E+01 -1.00000E+00  1.28120E-01
      21    -1     0     0   502   512  0.000000000E+00  0.000000000E+00  6.125621354E+02  6.125621354E+02  0.000000000E+00  0.00000E+00  9.000E+00
      21    -1     0     0   501   502  0.000000000E+00  0.000000000E+00 -1.302415660E+03  1.302415660E+03  0.000000000E+00  0.00000E+00  9.000E+00
      25     1     1     2     0     0 -4.964941712E+01 -3.538858083E+02  3.866924460E+02  5.411619700E+02  1.250000000E+02  0.00000E+00  9.000E+00
      25     1     1     2     0     0 -2.442219791E+01  3.863629595E+02 -1.176725738E+03  1.245062746E+03  1.250000000E+02  0.00000E+00  9.000E+00
      21     1     1     2   501   512  7.407161503E+01 -3.247715126E+01  1.001797675E+02  1.287530789E+02  1.348699152E-06  0.00000E+00  9.000E+00
#rwgt            1           1   1.7127146689291026E-002           4      117982           0
</event>
<event>
      5   9999  3.19816E-02  5.58439E+01 -1.00000E+00  1.36391E-01
      21    -1     0     0   502   501  0.000000000E+00  0.000000000E+00  6.185058052E+02  6.185058052E+02  0.000000000E+00  0.00000E+00  9.000E+00
      21    -1     0     0   511   502  0.000000000E+00  0.000000000E+00 -5.804003650E+02  5.804003650E+02  0.000000000E+00  0.00000E+00  9.000E+00
      25     1     1     2     0     0  8.810047259E+00 -3.622065317E+02  4.747427451E+02  6.101449521E+02  1.250000000E+02  0.00000E+00  9.000E+00
      25     1     1     2     0     0 -3.506094427E+01  3.129172744E+02 -3.662001626E+02  4.988727789E+02  1.250000000E+02  0.00000E+00  9.000E+00
      21     1     1     2   511   501  2.625089701E+01  4.928925730E+01 -7.043714229E+01  8.988843915E+01  9.536743164E-07  0.00000E+00  9.000E+00
#rwgt            1           1   2.3563984958212651E-002           4      118080           0
</event>
<event>
      5   9999  3.19816E-02  1.02359E+02 -1.00000E+00  1.23374E-01
      21    -1     0     0   512   501  0.000000000E+00  0.000000000E+00  3.565762296E+02  3.565762296E+02  0.000000000E+00  0.00000E+00  9.000E+00
      21    -1     0     0   501   502  0.000000000E+00  0.000000000E+00 -1.022284186E+03  1.022284186E+03  0.000000000E+00  0.00000E+00  9.000E+00
      25     1     1     2     0     0  1.903628244E+02 -6.919749795E+01 -9.511289605E+02  9.804578512E+02  1.250000000E+02  0.00000E+00  9.000E+00
      25     1     1     2     0     0 -8.839007923E+01  7.808431918E+01  1.463827938E+02  2.257496165E+02  1.250000000E+02  0.00000E+00  9.000E+00
      21     1     1     2   512   502 -1.019727452E+02 -8.886821228E+00  1.390382105E+02  1.726529476E+02  2.697398305E-06  0.00000E+00  9.000E+00
#rwgt            1           1   2.2907069209926752E-002           4      118218           0
</event>
<event>
      5   9999  3.19816E-02  3.96887E+01 -1.00000E+00  1.45051E-01
      -1    -1     0     0     0   501  0.000000000E+00  0.000000000E+00  1.181522200E+03  1.181522200E+03  0.000000000E+00  0.00000E+00  9.000E+00
      21    -1     0     0   501   502  0.000000000E+00  0.000000000E+00 -1.294785123E+02  1.294785123E+02  0.000000000E+00  0.00000E+00  9.000E+00
      25     1     1     2     0     0  8.769758422E+01  1.250460193E+02  3.806344584E+02  4.287597977E+02  1.250000000E+02  0.00000E+00  9.000E+00
      25     1     1     2     0     0 -5.885940511E+01 -9.777780550E+01 -3.655487209E+01  1.731652029E+02  1.250000000E+02  0.00000E+00  9.000E+00
      -1     1     1     2     0   502 -2.883817911E+01 -2.726821377E+01  7.079641017E+02  7.090757120E+02  1.321449896E-05  0.00000E+00  9.000E+00
#rwgt            1           1   2.8081852351222125E-002           4      118327           0
</event>
<event>
      5   9999  3.19816E-02  8.03495E+01 -1.00000E+00  1.28258E-01
      21    -1     0     0   511   501  0.000000000E+00  0.000000000E+00  1.537574681E+03  1.537574681E+03  0.000000000E+00  0.00000E+00  9.000E+00
      21    -1     0     0   501   502  0.000000000E+00  0.000000000E+00 -2.109922883E+02  2.109922883E+02  0.000000000E+00  0.00000E+00  9.000E+00
      25     1     1     2     0     0  4.944952596E+02 -1.445816301E+01  2.813412636E+02  5.826770175E+02  1.250000000E+02  0.00000E+00  9.000E+00
      25     1     1     2     0     0 -4.164892951E+02  3.372244594E+01  8.823252865E+02  9.842374955E+02  1.250000000E+02  0.00000E+00  9.000E+00
      21     1     1     2   511   502 -7.800596443E+01 -1.926428293E+01  1.629158429E+02  1.816524565E+02  1.907348633E-06  0.00000E+00  9.000E+00
#rwgt            1           1   3.0836741476825927E-002           4      118407           0
</event>
<event>
      5   9999  3.19816E-02  9.43506E+01 -1.00000E+00  1.24975E-01
      -2    -1     0     0     0   501  0.000000000E+00  0.000000000E+00  1.597094195E+03  1.597094195E+03  0.000000000E+00  0.00000E+00  9.000E+00
      21    -1     0     0   501   502  0.000000000E+00  0.000000000E+00 -1.452010176E+02  1.452010176E+02  0.000000000E+00  0.00000E+00  9.000E+00
      25     1     1     2     0     0  3.349933606E+01  1.139222273E+02 -1.062038787E+01  1.727375814E+02  1.250000000E+02  0.00000E+00  9.000E+00
      25     1     1     2     0     0 -5.047297179E+01 -2.111095545E+01  3.761435849E+01  1.415380984E+02  1.250000000E+02  0.00000E+00  9.000E+00
      -2     1     1     2     0   502  1.697363574E+01 -9.281127183E+01  1.424899207E+03  1.428019533E+03  2.157918644E-05  0.00000E+00  9.000E+00
#rwgt            1           1   4.8971210814215432E-002           4      118490           0
</event>
<event>
      5   9999  3.19816E-02  3.18708E+01 -1.00000E+00  1.51237E-01
      21    -1     0     0   502   501  0.000000000E+00  0.000000000E+00  3.484199984E+02  3.484199984E+02  0.000000000E+00  0.00000E+00  9.000E+00
      21    -1     0     0   511   502  0.000000000E+00  0.000000000E+00 -5.018074602E+02  5.018074602E+02  0.000000000E+00  0.00000E+00  9.000E+00
      25     1     1     2     0     0 -1.377994012E+02  2.780440529E+02  3.718359483E+01  3.366077689E+02  1.250000000E+02  0.00000E+00  9.000E+00
      25     1     1     2     0     0  1.252535242E+02 -3.073416903E+02 -3.676303103E+01  3.565443596E+02  1.250000000E+02  0.00000E+00  9.000E+00
      21     1     1     2   511   501  1.254587702E+01  2.929763739E+01 -1.538080256E+02  1.570753301E+02  1.907348633E-06  0.00000E+00  9.000E+00
#rwgt            1           1   2.6901673398430900E-002           4      118529           0
</event>
<event>
      5   9999  3.19816E-02  4.07469E+02 -1.00000E+00  1.01444E-01
      21    -1     0     0   502   501  0.000000000E+00  0.000000000E+00  1.336959944E+03  1.336959944E+03  0.000000000E+00  0.00000E+00  9.000E+00
       2    -1     0     0   501     0  0.000000000E+00  0.000000000E+00 -5.479007436E+02  5.479007436E+02  0.000000000E+00  0.00000E+00  9.000E+00
      25     1     1     2     0     0 -3.474245296E+02  4.520865757E+01  6.205274800E+02  7.234825360E+02  1.250000000E+02  0.00000E+00  9.000E+00
      25     1     1     2     0     0  7.205960267E+02  1.184184101E+02  1.285589348E+02  7.519534249E+02  1.250000000E+02  0.00000E+00  9.000E+00
       2     1     1     2   502     0 -3.731714971E+02 -1.636270676E+02  3.997278604E+01  4.094247271E+02  1.131421139E-05  0.00000E+00  9.000E+00
#rwgt            1           1   3.1153428964351474E-002           4      118655           0
</event>
<event>
      5   9999  3.19816E-02  6.26446E+01 -1.00000E+00  1.33710E-01
      21    -1     0     0   502   501  0.000000000E+00  0.000000000E+00  3.888628174E+02  3.888628174E+02  0.000000000E+00  0.00000E+00  9.000E+00
      21    -1     0     0   511   502  0.000000000E+00  0.000000000E+00 -1.192737891E+03  1.192737891E+03  0.000000000E+00  0.00000E+00  9.000E+00
      25     1     1     2     0     0 -2.019081080E+02 -1.396373933E+02  2.310949486E+02  3.595766413E+02  1.250000000E+02  0.00000E+00  9.000E+00
      25     1     1     2     0     0  1.685187466E+02  8.663274058E+01 -4.667857728E+01  2.317491947E+02  1.250000000E+02  0.00000E+00  9.000E+00
      21     1     1     2   511   501  3.338936144E+01  5.300465273E+01 -9.882914446E+02  9.902748720E+02  0.000000000E+00  0.00000E+00  9.000E+00
#rwgt            1           1   2.4816690500769428E-002           4      118716           0
</event>
<event>
      5   9999  3.19816E-02  2.09245E+01 -1.00000E+00  1.64766E-01
      21    -1     0     0   512   501  0.000000000E+00  0.000000000E+00  1.919343382E+02  1.919343382E+02  0.000000000E+00  0.00000E+00  9.000E+00
      21    -1     0     0   501   502  0.000000000E+00  0.000000000E+00 -2.301286721E+02  2.301286721E+02  0.000000000E+00  0.00000E+00  9.000E+00
      25     1     1     2     0     0 -8.902307896E+01  1.252689350E+02 -4.973856450E+01  2.042457820E+02  1.250000000E+02  0.00000E+00  9.000E+00
      25     1     1     2     0     0  1.039061412E+02 -1.105607385E+02  1.010660491E+01  1.968433553E+02  1.250000000E+02  0.00000E+00  9.000E+00
      21     1     1     2   512   502 -1.488306221E+01 -1.470819643E+01  1.437625673E+00  2.097387305E+01  6.664001875E-08  0.00000E+00  9.000E+00
#rwgt            1           1   2.6844581189933974E-002           4      118784           0
</event>
<event>
      5   9999  3.19816E-02  1.38844E+02 -1.00000E+00  1.17739E-01
      21    -1     0     0   502   501  0.000000000E+00  0.000000000E+00  1.037224344E+03  1.037224344E+03  0.000000000E+00  0.00000E+00  9.000E+00
      21    -1     0     0   511   502  0.000000000E+00  0.000000000E+00 -1.521855606E+02  1.521855606E+02  0.000000000E+00  0.00000E+00  9.000E+00
      25     1     1     2     0     0 -2.043363555E+02  6.278500484E+01  3.467531556E+01  2.500453570E+02  1.250000000E+02  0.00000E+00  9.000E+00
      25     1     1     2     0     0  1.462488202E+02  6.332439283E+01  7.234088987E+02  7.512284146E+02  1.250000000E+02  0.00000E+00  9.000E+00
      21     1     1     2   511   501  5.808753536E+01 -1.261093977E+02  1.269545691E+02  1.881361330E+02  2.697398305E-06  0.00000E+00  9.000E+00
#rwgt            1           1   2.8197049505740982E-002           4      118972           0
</event>
<event>
      5   9999  3.19816E-02  3.51324E+02 -1.00000E+00  1.03410E-01
      21    -1     0     0   502   501  0.000000000E+00  0.000000000E+00  1.194116569E+03  1.194116569E+03  0.000000000E+00  0.00000E+00  9.000E+00
      21    -1     0     0   501   512  0.000000000E+00  0.000000000E+00 -2.757801713E+02  2.757801713E+02  0.000000000E+00  0.00000E+00  9.000E+00
      25     1     1     2     0     0  4.133205409E+01  1.395554238E+02  3.734422655E+01  1.954575306E+02  1.250000000E+02  0.00000E+00  9.000E+00
      25     1     1     2     0     0  1.853020285E+02 -4.080058146E+02  7.811736624E+02  9.092100293E+02  1.250000000E+02  0.00000E+00  9.000E+00
      21     1     1     2   502   512 -2.266340826E+02  2.684503908E+02  9.981850904E+01  3.652291808E+02  9.536743164E-06  0.00000E+00  9.000E+00
#rwgt            1           1   2.8656874797558855E-002           4      119035           0
</event>
<event>
      5   9999  3.19816E-02  1.07648E+02 -1.00000E+00  1.22405E-01
      21    -1     0     0   511   501  0.000000000E+00  0.000000000E+00  5.064421012E+02  5.064421012E+02  0.000000000E+00  0.00000E+00  9.000E+00
      21    -1     0     0   501   502  0.000000000E+00  0.000000000E+00 -2.668046168E+02  2.668046168E+02  0.000000000E+00  0.00000E+00  9.000E+00
      25     1     1     2     0     0 -1.632118612E+02  5.996342093E+01 -1.675904160E+02  2.719287977E+02  1.250000000E+02  0.00000E+00  9.000E+00
      25     1     1     2     0     0  7.066419289E+01 -1.149456529E+02  2.387235487E+02  3.013633422E+02  1.250000000E+02  0.00000E+00  9.000E+00
      21     1     1     2   511   502  9.254766829E+01  5.498223197E+01  1.685043517E+02  1.999545781E+02  1.907348633E-06  0.00000E+00  9.000E+00
#rwgt            1           1   2.8681891737068550E-002           4      119083           0
</event>
<event>
      5   9999  3.19816E-02  6.41814E+01 -1.00000E+00  1.33158E-01
      21    -1     0     0   502   512  0.000000000E+00  0.000000000E+00  2.400361385E+02  2.400361385E+02  0.000000000E+00  0.00000E+00  9.000E+00
      21    -1     0     0   501   502  0.000000000E+00  0.000000000E+00 -2.297655208E+02  2.297655208E+02  0.000000000E+00  0.00000E+00  9.000E+00
      25     1     1     2     0     0 -9.504772042E+01  1.174802851E+02  3.106495177E+01  1.985591040E+02  1.250000000E+02  0.00000E+00  9.000E+00
      25     1     1     2     0     0  1.343922821E+02 -6.677266368E+01 -4.865266476E+01  2.012758204E+02  1.250000000E+02  0.00000E+00  9.000E+00
      21     1     1     2   501   512 -3.934456165E+01 -5.070762139E+01  2.785833074E+01  6.996673488E+01  7.539457465E-07  0.00000E+00  9.000E+00
#rwgt            1           1   2.5810167068698119E-002           4      119199           0
</event>
<event>
      5   9999  3.19816E-02  4.92036E+01 -1.00000E+00  1.39475E-01
      21    -1     0     0   502   511  0.000000000E+00  0.000000000E+00  2.967383385E+02  2.967383385E+02  0.000000000E+00  0.00000E+00  9.000E+00
      21    -1     0     0   501   502  0.000000000E+00  0.000000000E+00 -4.053399354E+02  4.053399354E+02  0.000000000E+00  0.00000E+00  9.000E+00
      25     1     1     2     0     0  1.930349562E+02  1.505516128E+02 -5.814148587E+01  2.809514456E+02  1.250000000E+02  0.00000E+00  9.000E+00
      25     1     1     2     0     0 -2.410900741E+02 -1.399825839E+02 -1.264016146E+02  3.306386484E+02  1.250000000E+02  0.00000E+00  9.000E+00
      21     1     1     2   501   511  4.805511797E+01 -1.056902885E+01  7.594150350E+01  9.048817982E+01  1.651812370E-06  0.00000E+00  9.000E+00
#rwgt            1           1   2.3961988224348262E-002           4      119273           0
</event>
<event>
      5   9999  3.19816E-02  1.09215E+02 -1.00000E+00  1.22130E-01
      21    -1     0     0   512   501  0.000000000E+00  0.000000000E+00  1.878632174E+02  1.878632174E+02  0.000000000E+00  0.00000E+00  9.000E+00
      21    -1     0     0   501   502  0.000000000E+00  0.000000000E+00 -3.217432375E+02  3.217432375E+02  0.000000000E+00  0.00000E+00  9.000E+00
      25     1     1     2     0     0  8.537106227E+01  2.318192208E+01 -1.837495416E+02  2.391955556E+02  1.250000000E+02  0.00000E+00  9.000E+00
      25     1     1     2     0     0 -2.465564417E+01  6.760124916E+01  6.841002788E+01  1.596332096E+02  1.250000000E+02  0.00000E+00  9.000E+00
      21     1     1     2   512   502 -6.071541810E+01 -9.078317124E+01 -1.854050630E+01  1.107776898E+02  1.192092896E-06  0.00000E+00  9.000E+00
#rwgt            1           1   3.2196687956931848E-002           4      119378           0
</event>
<event>
      5   9999  3.19816E-02  9.03802E+01 -1.00000E+00  1.25836E-01
       2    -1     0     0   502     0  0.000000000E+00  0.000000000E+00  9.047565642E+02  9.047565642E+02  0.000000000E+00  0.00000E+00  9.000E+00
      21    -1     0     0   501   502  0.000000000E+00  0.000000000E+00 -8.377134734E+02  8.377134734E+02  0.000000000E+00  0.00000E+00  9.000E+00
      25     1     1     2     0     0  6.841773245E+02 -1.850124501E+02 -3.282007678E+02  7.909923907E+02  1.250000000E+02  0.00000E+00  9.000E+00
      25     1     1     2     0     0 -5.958227202E+02  2.040397145E+02  1.089470834E+02  6.512537032E+02  1.250000000E+02  0.00000E+00  9.000E+00
       2     1     1     2   501     0 -8.835460438E+01 -1.902726445E+01  2.862967752E+02  3.002239437E+02  0.000000000E+00  0.00000E+00  9.000E+00
#rwgt            1           1   2.9426926717446181E-002           4      119423           0
</event>
<event>
      5   9999  3.19816E-02  1.21982E+01 -1.00000E+00  1.86283E-01
      21    -1     0     0   502   501  0.000000000E+00  0.000000000E+00  5.032361387E+02  5.032361387E+02  0.000000000E+00  0.00000E+00  9.000E+00
      21    -1     0     0   501   511  0.000000000E+00  0.000000000E+00 -1.174231957E+03  1.174231957E+03  0.000000000E+00  0.00000E+00  9.000E+00
      25     1     1     2     0     0 -5.952880506E+02  1.883463880E+02 -7.600028127E+02  9.914996219E+02  1.250000000E+02  0.00000E+00  9.000E+00
      25     1     1     2     0     0  5.840074638E+02 -1.929880892E+02  1.319198595E+02  6.413555719E+02  1.250000000E+02  0.00000E+00  9.000E+00
      21     1     1     2   502   511  1.128058681E+01  4.641701125E+00 -4.291286536E+01  4.461290218E+01  6.743495762E-07  0.00000E+00  9.000E+00
#rwgt            1           1   3.1017803786264234E-002           4      119563           0
</event>
<event>
      5   9999  3.19816E-02  2.96412E+01 -1.00000E+00  1.53404E-01
      21    -1     0     0   502   501  0.000000000E+00  0.000000000E+00  2.230633072E+02  2.230633072E+02  0.000000000E+00  0.00000E+00  9.000E+00
      21    -1     0     0   512   502  0.000000000E+00  0.000000000E+00 -2.481814508E+02  2.481814508E+02  0.000000000E+00  0.00000E+00  9.000E+00
      25     1     1     2     0     0 -6.568395581E+01  1.093143268E+02 -7.618454716E+01  1.941470817E+02  1.250000000E+02  0.00000E+00  9.000E+00
      25     1     1     2     0     0  9.485852680E+01 -1.145529789E+02  1.010470120E+02  2.189886383E+02  1.250000000E+02  0.00000E+00  9.000E+00
      21     1     1     2   512   501 -2.917457099E+01  5.238652110E+00 -4.998060851E+01  5.810903798E+01  6.743495762E-07  0.00000E+00  9.000E+00
#rwgt            1           1   2.8356119776890461E-002           4      119882           0
</event>
<event>
      5   9999  3.19816E-02  4.49919E+01 -1.00000E+00  1.41742E-01
      21    -1     0     0   502   501  0.000000000E+00  0.000000000E+00  1.115032528E+03  1.115032528E+03  0.000000000E+00  0.00000E+00  9.000E+00
      21    -1     0     0   511   502  0.000000000E+00  0.000000000E+00 -2.311349509E+02  2.311349509E+02  0.000000000E+00  0.00000E+00  9.000E+00
      25     1     1     2     0     0  3.388333604E+02  1.834600769E+02  1.723118398E+02  4.402067878E+02  1.250000000E+02  0.00000E+00  9.000E+00
      25     1     1     2     0     0 -3.834654235E+02 -1.777812042E+02  7.336318324E+02  8.558577879E+02  1.250000000E+02  0.00000E+00  9.000E+00
      21     1     1     2   511   501  4.463206314E+01 -5.678872654E+00 -2.204609465E+01  5.010290355E+01  5.840038640E-07  0.00000E+00  9.000E+00
#rwgt            1           1   3.0812774810273166E-002           4      119991           0
</event>
<event>
      5   9999  3.19816E-02  2.79233E+01 -1.00000E+00  1.55236E-01
      21    -1     0     0   502   501  0.000000000E+00  0.000000000E+00  4.137863056E+02  4.137863056E+02  0.000000000E+00  0.00000E+00  9.000E+00
      21    -1     0     0   512   502  0.000000000E+00  0.000000000E+00 -2.794544749E+02  2.794544749E+02  0.000000000E+00  0.00000E+00  9.000E+00
      25     1     1     2     0     0 -8.217830157E+01  1.744596646E+02 -6.340893389E+01  2.384012180E+02  1.250000000E+02  0.00000E+00  9.000E+00
      25     1     1     2     0     0  9.573162802E+01 -1.500461433E+02  2.876929216E+02  3.606530283E+02  1.250000000E+02  0.00000E+00  9.000E+00
      21     1     1     2   512   501 -1.355332644E+01 -2.441352137E+01 -8.995215696E+01  9.418653420E+01  9.536743164E-07  0.00000E+00  9.000E+00
#rwgt            1           1   2.8311188673279575E-002           4      120117           0
</event>
<event>
      5   9999  3.19816E-02  1.06962E+03 -1.00000E+00  9.02950E-02
       2    -1     0     0   502     0  0.000000000E+00  0.000000000E+00  1.222530692E+03  1.222530692E+03  0.000000000E+00  0.00000E+00  9.000E+00
      21    -1     0     0   501   502  0.000000000E+00  0.000000000E+00 -1.829090239E+03  1.829090239E+03  0.000000000E+00  0.00000E+00  9.000E+00
      25     1     1     2     0     0 -6.774255569E+01  4.250821090E+00  1.904075470E+01  1.435084446E+02  1.250000000E+02  0.00000E+00  9.000E+00
      25     1     1     2     0     0  8.620214807E+01 -1.073714777E+03 -1.261672842E+03  1.663651885E+03  1.250000000E+02  0.00000E+00  9.000E+00
       2     1     1     2   501     0 -1.845959238E+01  1.069463956E+03  6.360725416E+02  1.244460601E+03  1.078959322E-05  0.00000E+00  9.000E+00
#rwgt            2          18   1.2106978925959314E-003           4      120282           0
</event>
<event>
      5   9999  3.19816E-02  1.47896E+02 -1.00000E+00  1.16637E-01
       2    -1     0     0   502     0  0.000000000E+00  0.000000000E+00  2.543156689E+03  2.543156689E+03  0.000000000E+00  0.00000E+00  9.000E+00
      21    -1     0     0   501   502  0.000000000E+00  0.000000000E+00 -2.935476176E+02  2.935476176E+02  0.000000000E+00  0.00000E+00  9.000E+00
      25     1     1     2     0     0  2.192975910E+02  2.304048669E+02  1.430372748E+03  1.470635588E+03  1.250000000E+02  0.00000E+00  9.000E+00
      25     1     1     2     0     0 -1.204713383E+02 -3.404341995E+02 -1.313185948E+02  4.040771719E+02  1.250000000E+02  0.00000E+00  9.000E+00
       2     1     1     2   501     0 -9.882625275E+01  1.100293326E+02  9.505549188E+02  9.619915467E+02  1.078959322E-05  0.00000E+00  9.000E+00
#rwgt            1           1   2.8281228052093862E-002           4      120301           0
</event>
<event>
      5   9999  3.19816E-02  2.14226E+01 -1.00000E+00  1.63944E-01
       3    -1     0     0   502     0  0.000000000E+00  0.000000000E+00  1.273588927E+03  1.273588927E+03  0.000000000E+00  0.00000E+00  9.000E+00
      21    -1     0     0   501   502  0.000000000E+00  0.000000000E+00 -9.106343610E+01  9.106343610E+01  0.000000000E+00  0.00000E+00  9.000E+00
      25     1     1     2     0     0 -1.743621383E+02  8.246556770E+00  3.682236728E+02  4.262438670E+02  1.250000000E+02  0.00000E+00  9.000E+00
      25     1     1     2     0     0  1.691416809E+02 -2.902333852E+01  1.201997293E+02  2.439758949E+02  1.250000000E+02  0.00000E+00  9.000E+00
       3     1     1     2   501     0  5.220457449E+00  2.077678175E+01  6.941020883E+02  6.944326007E+02  0.000000000E+00  0.00000E+00  9.000E+00
#rwgt            1           1   2.5000570783447352E-002           4      120389           0
</event>
<event>
      5   9999  3.19816E-02  1.52544E+01 -1.00000E+00  1.76698E-01
      21    -1     0     0   502   501  0.000000000E+00  0.000000000E+00  4.852359047E+02  4.852359047E+02  0.000000000E+00  0.00000E+00  9.000E+00
      21    -1     0     0   511   502  0.000000000E+00  0.000000000E+00 -1.349376660E+02  1.349376660E+02  0.000000000E+00  0.00000E+00  9.000E+00
      25     1     1     2     0     0 -1.383845567E+02 -3.994755028E+01  3.464108770E+02  3.954384756E+02  1.250000000E+02  0.00000E+00  9.000E+00
      25     1     1     2     0     0  1.536389539E+02  3.998415181E+01  1.938579934E+01  2.029888415E+02  1.250000000E+02  0.00000E+00  9.000E+00
      21     1     1     2   511   501 -1.525439726E+01 -3.660153784E-02 -1.549843766E+01  2.174625359E+01  5.057621821E-07  0.00000E+00  9.000E+00
#rwgt            1           1   3.0206543294050252E-002           4      120523           0
</event>
<event>
      5   9999  3.19816E-02  7.75021E+02 -1.00000E+00  9.37294E-02
      21    -1     0     0   502   501  0.000000000E+00  0.000000000E+00  2.414455759E+03  2.414455759E+03  0.000000000E+00  0.00000E+00  9.000E+00
      21    -1     0     0   501   512  0.000000000E+00  0.000000000E+00 -1.642030113E+03  1.642030113E+03  0.000000000E+00  0.00000E+00  9.000E+00
      25     1     1     2     0     0 -7.199262236E+02  1.464099635E+03  3.217692203E+02  1.667645628E+03  1.250000000E+02  0.00000E+00  9.000E+00
      25     1     1     2     0     0  1.268942128E+02 -9.651304185E+02  1.028870155E+03  1.421892282E+03  1.250000000E+02  0.00000E+00  9.000E+00
      21     1     1     2   502   512  5.930320108E+02 -4.989692169E+02 -5.782137292E+02  9.669479623E+02  1.078959322E-05  0.00000E+00  9.000E+00
#rwgt            2          11   3.7708376429075319E-003           4      120717           0
</event>
<event>
      5   9999  3.19816E-02  5.74364E+01 -1.00000E+00  1.35725E-01
      21    -1     0     0   511   501  0.000000000E+00  0.000000000E+00  6.943326731E+02  6.943326731E+02  0.000000000E+00  0.00000E+00  9.000E+00
      21    -1     0     0   501   502  0.000000000E+00  0.000000000E+00 -5.933202264E+02  5.933202264E+02  0.000000000E+00  0.00000E+00  9.000E+00
      25     1     1     2     0     0 -1.182301525E+02 -6.126694085E+02 -1.629564086E+01  6.365789197E+02  1.250000000E+02  0.00000E+00  9.000E+00
      25     1     1     2     0     0  1.206084374E+02  5.552822800E+02  9.531917621E+01  5.895723458E+02  1.250000000E+02  0.00000E+00  9.000E+00
      21     1     1     2   511   502 -2.378284824E+00  5.738712850E+01  2.198891134E+01  6.150163394E+01  6.743495762E-07  0.00000E+00  9.000E+00
#rwgt            1           1   3.1280962099207672E-002           4      120737           0
</event>
<event>
      5   9999  3.19816E-02  6.61145E+01 -1.00000E+00  1.32489E-01
      21    -1     0     0   502   512  0.000000000E+00  0.000000000E+00  3.374306698E+02  3.374306698E+02  0.000000000E+00  0.00000E+00  9.000E+00
      21    -1     0     0   501   502  0.000000000E+00  0.000000000E+00 -5.069916173E+02  5.069916173E+02  0.000000000E+00  0.00000E+00  9.000E+00
      25     1     1     2     0     0 -8.671937775E+01  6.750087049E+01 -4.142461648E+02  4.464319691E+02  1.250000000E+02  0.00000E+00  9.000E+00
      25     1     1     2     0     0  1.395271105E+02 -1.072810695E+02  9.796847176E+01  2.370651047E+02  1.250000000E+02  0.00000E+00  9.000E+00
      21     1     1     2   501   512 -5.280773273E+01  3.978019898E+01  1.467167455E+02  1.609252133E+02  1.907348633E-06  0.00000E+00  9.000E+00
#rwgt            1           1   3.0607564031811783E-002           4      120844           0
</event>
<event>
      5   9999  3.19816E-02  4.58692E+01 -1.00000E+00  1.41246E-01
      21    -1     0     0   502   511  0.000000000E+00  0.000000000E+00  4.126089807E+02  4.126089807E+02  0.000000000E+00  0.00000E+00  9.000E+00
      21    -1     0     0   501   502  0.000000000E+00  0.000000000E+00 -2.177815248E+02  2.177815248E+02  0.000000000E+00  0.00000E+00  9.000E+00
      25     1     1     2     0     0 -4.788438001E+01  2.169510169E+02  4.810518374E+00  2.549682307E+02  1.250000000E+02  0.00000E+00  9.000E+00
      25     1     1     2     0     0  9.170285862E+01 -2.305129732E+02  1.595063737E+02  3.203325278E+02  1.250000000E+02  0.00000E+00  9.000E+00
      21     1     1     2   501   511 -4.381847860E+01  1.356195632E+01  3.051056382E+01  5.508974706E+01  8.259061849E-07  0.00000E+00  9.000E+00
#rwgt            1           1   2.8550455408448285E-002           4      120912           0
</event>
<event>
      5   9999  3.19816E-02  2.04332E+01 -1.00000E+00  1.65605E-01
      21    -1     0     0   502   512  0.000000000E+00  0.000000000E+00  2.384013537E+02  2.384013537E+02  0.000000000E+00  0.00000E+00  9.000E+00
      21    -1     0     0   501   502  0.000000000E+00  0.000000000E+00 -1.471060780E+03  1.471060780E+03  0.000000000E+00  0.00000E+00  9.000E+00
      25     1     1     2     0     0  4.215074433E+02 -1.446141185E+02 -1.119575398E+02  4.761735595E+02  1.250000000E+02  0.00000E+00  9.000E+00
      25     1     1     2     0     0 -4.349621522E+02  1.292359605E+02 -1.117547278E+03  1.212613263E+03  1.250000000E+02  0.00000E+00  9.000E+00
      21     1     1     2   501   512  1.345470893E+01  1.537815808E+01 -3.154608549E+00  2.067531121E+01  4.064494877E-07  0.00000E+00  9.000E+00
#rwgt            1           1   2.7999072376825519E-002           4      121025           0
</event>
<event>
      5   9999  3.19816E-02  2.58822E+02 -1.00000E+00  1.07718E-01
       1    -1     0     0   502     0  0.000000000E+00  0.000000000E+00  1.674816918E+03  1.674816918E+03  0.000000000E+00  0.00000E+00  9.000E+00
      21    -1     0     0   501   502  0.000000000E+00  0.000000000E+00 -5.573257320E+02  5.573257320E+02  0.000000000E+00  0.00000E+00  9.000E+00
      25     1     1     2     0     0  3.063414930E+02  5.070869607E+02  8.323263620E+01  6.111750713E+02  1.250000000E+02  0.00000E+00  9.000E+00
      25     1     1     2     0     0 -6.796374377E+01 -6.079087428E+02  7.668158382E+01  6.290287556E+02  1.250000000E+02  0.00000E+00  9.000E+00
       1     1     1     2   501     0 -2.383777492E+02  1.008217821E+02  9.575769661E+02  9.919388233E+02  0.000000000E+00  0.00000E+00  9.000E+00
#rwgt            2          17   7.3510527837292335E-004           4      121339           0
</event>
<event>
      5   9999  3.19816E-02  1.45119E+01 -1.00000E+00  1.78748E-01
      21    -1     0     0   502   501  0.000000000E+00  0.000000000E+00  9.686710984E+01  9.686710984E+01  0.000000000E+00  0.00000E+00  9.000E+00
      21    -1     0     0   511   502  0.000000000E+00  0.000000000E+00 -1.386626558E+03  1.386626558E+03  0.000000000E+00  0.00000E+00  9.000E+00
      25     1     1     2     0     0 -8.833545784E+01  4.283754272E+01  2.049072359E+01  1.602594082E+02  1.250000000E+02  0.00000E+00  9.000E+00
      25     1     1     2     0     0  1.027795183E+02 -4.143547466E+01 -1.114845008E+03  1.127290966E+03  1.250000000E+02  0.00000E+00  9.000E+00
      21     1     1     2   511   501 -1.444406043E+01 -1.402068053E+00 -1.954051628E+02  1.959432936E+02  0.000000000E+00  0.00000E+00  9.000E+00
#rwgt            1           1   2.8793085527208998E-002           4      121373           0
</event>
<event>
      5   9999  3.19816E-02  4.33303E+02 -1.00000E+00  1.00651E-01
      21    -1     0     0   502   512  0.000000000E+00  0.000000000E+00  6.346777298E+02  6.346777298E+02  0.000000000E+00  0.00000E+00  9.000E+00
      21    -1     0     0   501   502  0.000000000E+00  0.000000000E+00 -4.582810426E+02  4.582810426E+02  0.000000000E+00  0.00000E+00  9.000E+00
      25     1     1     2     0     0  1.041786376E+02  2.440059285E+02 -1.823127401E+02  3.453331969E+02  1.250000000E+02  0.00000E+00  9.000E+00
      25     1     1     2     0     0  7.532644331E+01  1.503662343E+02  1.892789640E+02  2.823749346E+02  1.250000000E+02  0.00000E+00  9.000E+00
      21     1     1     2   501   512 -1.795050810E+02 -3.943721628E+02  1.694304634E+02  4.652506409E+02  3.303624740E-06  0.00000E+00  9.000E+00
#rwgt            1           1   2.8678057668816412E-002           4      121555           0
</event>
<event>
      5   9999  3.19816E-02  8.87229E+01 -1.00000E+00  1.26211E-01
      21    -1     0     0   502   501  0.000000000E+00  0.000000000E+00  1.196009086E+02  1.196009086E+02  0.000000000E+00  0.00000E+00  9.000E+00
      21    -1     0     0   501   511  0.000000000E+00  0.000000000E+00 -2.136113885E+03  2.136113885E+03  0.000000000E+00  0.00000E+00  9.000E+00
      25     1     1     2     0     0  1.364842323E+01  1.861590685E+02 -1.057909607E+03  1.081498597E+03  1.250000000E+02  0.00000E+00  9.000E+00
      25     1     1     2     0     0 -1.823505413E+00 -2.740903858E+02 -1.095722121E+02  3.205619042E+02  1.250000000E+02  0.00000E+00  9.000E+00
      21     1     1     2   502   511 -1.182491782E+01  8.793131735E+01 -8.490311576E+02  8.536542929E+02  1.868812365E-05  0.00000E+00  9.000E+00
#rwgt            1           1   2.6974472548523590E-002           4      121610           0
</event>
<event>
      5   9999  3.19816E-02  2.53932E+01 -1.00000E+00  1.58245E-01
      21    -1     0     0   502   512  0.000000000E+00  0.000000000E+00  2.483002307E+02  2.483002307E+02  0.000000000E+00  0.00000E+00  9.000E+00
      21    -1     0     0   501   502  0.000000000E+00  0.000000000E+00 -2.889375934E+02  2.889375934E+02  0.000000000E+00  0.00000E+00  9.000E+00
      25     1     1     2     0     0  1.310806390E+01 -1.139236834E+02 -2.079741604E+02  2.683815910E+02  1.250000000E+02  0.00000E+00  9.000E+00
      25     1     1     2     0     0  9.837591373E+00  1.030465370E+02  8.605532507E+01  1.837005334E+02  1.250000000E+02  0.00000E+00  9.000E+00
      21     1     1     2   501   512 -2.294565527E+01  1.087714639E+01  8.128147259E+01  8.515569973E+01  9.536743164E-07  0.00000E+00  9.000E+00
#rwgt            1           1   2.7903892185446460E-002           4      121686           0
</event>
<event>
      5   9999  3.19816E-02  6.84433E+01 -1.00000E+00  1.31717E-01
      21    -1     0     0   502   511  0.000000000E+00  0.000000000E+00  7.144431891E+02  7.144431891E+02  0.000000000E+00  0.00000E+00  9.000E+00
      21    -1     0     0   501   502  0.000000000E+00  0.000000000E+00 -1.815170378E+02  1.815170378E+02  0.000000000E+00  0.00000E+00  9.000E+00
      25     1     1     2     0     0  2.680423771E+02 -7.182480144E+01  1.420716638E+02  3.358792576E+02  1.250000000E+02  0.00000E+00  9.000E+00
      25     1     1     2     0     0 -2.730609273E+02  1.400838736E+02  3.058708986E+02  4.509631562E+02  1.250000000E+02  0.00000E+00  9.000E+00
      21     1     1     2   501   511  5.018550164E+00 -6.825907215E+01  8.498358882E+01  1.091178131E+02  9.536743164E-07  0.00000E+00  9.000E+00
#rwgt            1           1   2.9434229525547764E-002           4      121852           0
</event>
<event>
      5   9999  3.19816E-02  1.78621E+01 -1.00000E+00  1.70525E-01
      21    -1     0     0   502   501  0.000000000E+00  0.000000000E+00  3.033260394E+02  3.033260394E+02  0.000000000E+00  0.00000E+00  9.000E+00
      21    -1     0     0   501   512  0.000000000E+00  0.000000000E+00 -2.582758981E+02  2.582758981E+02  0.000000000E+00  0.00000E+00  9.000E+00
      25     1     1     2     0     0  2.066272429E+02  1.609084570E+01  1.428479253E+02  2.810413895E+02  1.250000000E+02  0.00000E+00  9.000E+00
      25     1     1     2     0     0 -2.078392093E+02 -3.391173633E+01 -8.825814619E+01  2.603106666E+02  1.250000000E+02  0.00000E+00  9.000E+00
      21     1     1     2   502   512  1.211966400E+00  1.782089062E+01 -9.539637871E+00  2.024988138E+01  1.192092896E-07  0.00000E+00  9.000E+00
#rwgt            1           1   2.7090775760879187E-002           4      121955           0
</event>
<event>
      5   9999  3.19816E-02  4.34012E+01 -1.00000E+00  1.42676E-01
      21    -1     0     0   502   501  0.000000000E+00  0.000000000E+00  4.134329612E+02  4.134329612E+02  0.000000000E+00  0.00000E+00  9.000E+00
      21    -1     0     0   511   502  0.000000000E+00  0.000000000E+00 -5.591224467E+02  5.591224467E+02  0.000000000E+00  0.00000E+00  9.000E+00
      25     1     1     2     0     0  3.003176639E+02  7.561280013E+01  2.612989712E+02  4.240402660E+02  1.250000000E+02  0.00000E+00  9.000E+00
      25     1     1     2     0     0 -2.825066596E+02 -3.603456933E+01 -2.960696986E+02  4.294074631E+02  1.250000000E+02  0.00000E+00  9.000E+00
      21     1     1     2   511   501 -1.781100433E+01 -3.957823080E+01 -1.109187582E+02  1.191076788E+02  1.348699152E-06  0.00000E+00  9.000E+00
#rwgt            1           1   3.0076218956766734E-002           4      122044           0
</event>
<event>
      5   9999  3.19816E-02  3.09208E+02 -1.00000E+00  1.05167E-01
      21    -1     0     0   502   501  0.000000000E+00  0.000000000E+00  6.514325696E+02  6.514325696E+02  0.000000000E+00  0.00000E+00  9.000E+00
       1    -1     0     0   501     0  0.000000000E+00  0.000000000E+00 -2.032275241E+03  2.032275241E+03  0.000000000E+00  0.00000E+00  9.000E+00
      25     1     1     2     0     0 -3.569237053E+02  2.079270674E+02  2.555952349E+02  5.015796257E+02  1.250000000E+02  0.00000E+00  9.000E+00
      25     1     1     2     0     0  1.878356192E+02  5.095290404E+01  2.085297257E+02  3.114290687E+02  1.250000000E+02  0.00000E+00  9.000E+00
       1     1     1     2   502     0  1.690880861E+02 -2.588799715E+02 -1.844967632E+03  1.870699116E+03  2.157918644E-05  0.00000E+00  9.000E+00
#rwgt            2          12   3.1267401679600302E-003           4      122305           0
</event>
<event>
      5   9999  3.19816E-02  5.45663E+01 -1.00000E+00  1.36944E-01
      21    -1     0     0   502   501  0.000000000E+00  0.000000000E+00  8.347135446E+02  8.347135446E+02  0.000000000E+00  0.00000E+00  9.000E+00
      21    -1     0     0   501   511  0.000000000E+00  0.000000000E+00 -9.263742052E+01  9.263742052E+01  0.000000000E+00  0.00000E+00  9.000E+00
      25     1     1     2     0     0  2.289934500E+02  1.286055741E+01  2.532853606E+02  3.638431915E+02  1.250000000E+02  0.00000E+00  9.000E+00
      25     1     1     2     0     0 -1.772494078E+02 -3.018204530E+01  4.343448363E+02  4.864244496E+02  1.250000000E+02  0.00000E+00  9.000E+00
      21     1     1     2   502   511 -5.174404226E+01  1.732148789E+01  5.444592721E+01  7.708332402E+01  1.651812370E-06  0.00000E+00  9.000E+00
#rwgt            1           1   2.6554581296173486E-002           4      122324           0
</event>
<event>
      5   9999  3.19816E-02  4.88900E+01 -1.00000E+00  1.39634E-01
      21    -1     0     0   502   501  0.000000000E+00  0.000000000E+00  2.102018960E+02  2.102018960E+02  0.000000000E+00  0.00000E+00  9.000E+00
      21    -1     0     0   501   512  0.000000000E+00  0.000000000E+00 -5.770983952E+02  5.770983952E+02  0.000000000E+00  0.00000E+00  9.000E+00
      25     1     1     2     0     0  1.973457200E+02 -2.200781296E+02 -7.218572360E+01  3.289612363E+02  1.250000000E+02  0.00000E+00  9.000E+00
      25     1     1     2     0     0 -1.995897668E+02  1.712396438E+02 -2.047734042E+02  3.559722429E+02  1.250000000E+02  0.00000E+00  9.000E+00
      21     1     1     2   502   512  2.244046845E+00  4.883848578E+01 -8.993737136E+01  1.023668120E+02  9.536743164E-07  0.00000E+00  9.000E+00
#rwgt            1           1   2.8637940019882097E-002           4      122422           0
</event>
<event>
      5   9999  3.19816E-02  1.32928E+01 -1.00000E+00  1.82474E-01
      21    -1     0     0   511   501  0.000000000E+00  0.000000000E+00  1.322310083E+03  1.322310083E+03  0.000000000E+00  0.00000E+00  9.000E+00
      21    -1     0     0   501   502  0.000000000E+00  0.000000000E+00 -1.140950451E+02  1.140950451E+02  0.000000000E+00  0.00000E+00  9.000E+00
      25     1     1     2     0     0 -3.147165079E+02 -6.713042123E+01  2.921253718E+02  4.522335753E+02  1.250000000E+02  0.00000E+00  9.000E+00
      25     1     1     2     0     0  3.105893419E+02  7.976628132E+01  8.553881118E+02  9.220315725E+02  1.250000000E+02  0.00000E+00  9.000E+00
      21     1     1     2   511   502  4.127165950E+00 -1.263586009E+01  6.070155400E+01  6.213998002E+01  0.000000000E+00  0.00000E+00  9.000E+00
#rwgt            1           1   2.7368555067778202E-002           4      122545           0
</event>
<event>
      5   9999  3.19816E-02  1.74820E+01 -1.00000E+00  1.71340E-01
      21    -1     0     0   512   501  0.000000000E+00  0.000000000E+00  4.488384108E+02  4.488384108E+02  0.000000000E+00  0.00000E+00  9.000E+00
      21    -1     0     0   501   502  0.000000000E+00  0.000000000E+00 -1.967326512E+02  1.967326512E+02  0.000000000E+00  0.00000E+00  9.000E+00
      25     1     1     2     0     0  5.442410418E+00  4.583641545E+01 -1.527952004E+02  2.027362081E+02  1.250000000E+02  0.00000E+00  9.000E+00
      25     1     1     2     0     0 -2.069029687E+01 -5.438759944E+01  2.382625234E+02  2.752819090E+02  1.250000000E+02  0.00000E+00  9.000E+00
      21     1     1     2   512   502  1.524788645E+01  8.551183997E+00  1.666384366E+02  1.675529449E+02  1.907348633E-06  0.00000E+00  9.000E+00
#rwgt            1           1   2.8268776793667263E-002           4      122711           0
</event>
<event>
      5   9999  3.19816E-02  5.84627E+02 -1.00000E+00  9.69603E-02
       2    -1     0     0   502     0  0.000000000E+00  0.000000000E+00  1.008370979E+03  1.008370979E+03  0.000000000E+00  0.00000E+00  9.000E+00
      21    -1     0     0   501   502  0.000000000E+00  0.000000000E+00 -7.943038153E+02  7.943038153E+02  0.000000000E+00  0.00000E+00  9.000E+00
      25     1     1     2     0     0  3.297541065E+02 -3.206351667E+02  4.841045405E+02  6.793577018E+02  1.250000000E+02  0.00000E+00  9.000E+00
      25     1     1     2     0     0  2.395298897E+02  1.875774766E+02  1.895926201E+02  3.796448858E+02  1.250000000E+02  0.00000E+00  9.000E+00
       2     1     1     2   501     0 -5.692839961E+02  1.330576901E+02 -4.596299968E+02  7.436722067E+02  1.321449896E-05  0.00000E+00  9.000E+00
#rwgt            2          18   2.3509206526505845E-004           4      123169           0
</event>
<event>
      5   9999  3.19816E-02  4.42037E+01 -1.00000E+00  1.42199E-01
      21    -1     0     0   502   501  0.000000000E+00  0.000000000E+00  8.642583502E+02  8.642583502E+02  0.000000000E+00  0.00000E+00  9.000E+00
      21    -1     0     0   511   502  0.000000000E+00  0.000000000E+00 -1.872331558E+02  1.872331558E+02  0.000000000E+00  0.00000E+00  9.000E+00
      25     1     1     2     0     0 -1.272694637E+01 -1.604399165E+02 -3.681083019E+01  2.070820591E+02  1.250000000E+02  0.00000E+00  9.000E+00
      25     1     1     2     0     0 -3.021121669E+01  1.499385156E+02  7.571673042E+02  7.825098100E+02  1.250000000E+02  0.00000E+00  9.000E+00
      21     1     1     2   511   501  4.293816305E+01  1.050140088E+01 -4.333127967E+01  6.189963703E+01  1.348699152E-06  0.00000E+00  9.000E+00
#rwgt            1           1   2.8609362370399356E-002           4      123203           0
</event>
<event>
      5   9999  3.19816E-02  1.03868E+02 -1.00000E+00  1.23091E-01
      21    -1     0     0   502   501  0.000000000E+00  0.000000000E+00  1.697518567E+02  1.697518567E+02  0.000000000E+00  0.00000E+00  9.000E+00
      21    -1     0     0   501   512  0.000000000E+00  0.000000000E+00 -6.437571380E+02  6.437571380E+02  0.000000000E+00  0.00000E+00  9.000E+00
      25     1     1     2     0     0 -3.398320543E+01  8.532530630E+01  8.211029184E+01  1.755060289E+02  1.250000000E+02  0.00000E+00  9.000E+00
      25     1     1     2     0     0  1.375349489E+02 -9.343032251E+01 -3.486529278E+02  4.059913194E+02  1.250000000E+02  0.00000E+00  9.000E+00
      21     1     1     2   502   512 -1.035517434E+02  8.105016210E+00 -2.074626453E+02  2.320116464E+02  2.697398305E-06  0.00000E+00  9.000E+00
#rwgt            1           1   2.8247406614481069E-002           4      123317           0
</event>
<event>
      5   9999  3.19816E-02  2.02036E+01 -1.00000E+00  1.66007E-01
      21    -1     0     0   502   501  0.000000000E+00  0.000000000E+00  2.192305677E+03  2.192305677E+03  0.000000000E+00  0.00000E+00  9.000E+00
      21    -1     0     0   501   511  0.000000000E+00  0.000000000E+00 -2.258483346E+02  2.258483346E+02  0.000000000E+00  0.00000E+00  9.000E+00
      25     1     1     2     0     0 -3.190024932E+02  3.240041117E+02  1.573781359E+02  4.971258721E+02  1.250000000E+02  0.00000E+00  9.000E+00
      25     1     1     2     0     0  3.392060566E+02 -3.240207947E+02  1.829194165E+03  1.892518565E+03  1.250000000E+02  0.00000E+00  9.000E+00
      21     1     1     2   502   511 -2.020356338E+01  1.668297142E-02 -2.011495896E+01  2.850957427E+01  6.307962682E-07  0.00000E+00  9.000E+00
#rwgt            1           1   2.7169446739826859E-002           4      123397           0
</event>
<event>
      5   9999  3.19816E-02  9.47695E+01 -1.00000E+00  1.24886E-01
      21    -1     0     0   502   501  0.000000000E+00  0.000000000E+00  9.337263150E+02  9.337263150E+02  0.000000000E+00  0.00000E+00  9.000E+00
      21    -1     0     0   512   502  0.000000000E+00  0.000000000E+00 -4.185191994E+02  4.185191994E+02  0.000000000E+00  0.00000E+00  9.000E+00
      25     1     1     2     0     0  4.522146297E+02 -5.364043422E+01  5.563887050E+02  7.297730870E+02  1.250000000E+02  0.00000E+00  9.000E+00
      25     1     1     2     0     0 -5.068887511E+02 -2.376758688E+01 -5.936060501E+01  5.259750808E+02  1.250000000E+02  0.00000E+00  9.000E+00
      21     1     1     2   512   501  5.467412145E+01  7.740802110E+01  1.817901561E+01  9.649734657E+01  2.211002945E-06  0.00000E+00  9.000E+00
#rwgt            1           1   2.6546632159330535E-002           4      123561           0
</event>
<event>
      5   9999  3.19816E-02  1.57280E+01 -1.00000E+00  1.75466E-01
      21    -1     0     0   502   501  0.000000000E+00  0.000000000E+00  1.991470426E+03  1.991470426E+03  0.000000000E+00  0.00000E+00  9.000E+00
      21    -1     0     0   511   502  0.000000000E+00  0.000000000E+00 -5.420261198E+01  5.420261198E+01  0.000000000E+00  0.00000E+00  9.000E+00
      25     1     1     2     0     0 -6.714624633E+00  1.897983192E-02  1.887184612E+03  1.891331765E+03  1.250000000E+02  0.00000E+00  9.000E+00
      25     1     1     2     0     0  1.504525119E+01 -1.335950035E+01  3.242672823E+01  1.306955567E+02  1.250000000E+02  0.00000E+00  9.000E+00
      21     1     1     2   511   501 -8.330626556E+00  1.334052052E+01  1.765647438E+01  2.364571661E+01  2.384185791E-07  0.00000E+00  9.000E+00
#rwgt            1           1   2.9097574080338289E-002           4      123683           0
</event>
<event>
      5   9999  3.19816E-02  2.05716E+02 -1.00000E+00  1.11204E-01
      21    -1     0     0   512   501  0.000000000E+00  0.000000000E+00  8.671426770E+02  8.671426770E+02  0.000000000E+00  0.00000E+00  9.000E+00
      21    -1     0     0   501   502  0.000000000E+00  0.000000000E+00 -4.054691452E+02  4.054691452E+02  0.000000000E+00  0.00000E+00  9.000E+00
      25     1     1     2     0     0 -2.278654359E+02 -3.347397329E+02  2.781460849E+02  5.069157624E+02  1.250000000E+02  0.00000E+00  9.000E+00
      25     1     1     2     0     0  9.989292515E+01  4.958056058E+02  5.678788752E+01  5.240721892E+02  1.250000000E+02  0.00000E+00  9.000E+00
      21     1     1     2   512   502  1.279725107E+02 -1.610658729E+02  1.267395594E+02  2.416238706E+02  1.348699152E-06  0.00000E+00  9.000E+00
#rwgt            1           1   2.6651038695748461E-002           4      123944           0
</event>
<event>
      5   9999  3.19816E-02  4.59388E+02 -1.00000E+00  9.99085E-02
      21    -1     0     0   502   511  0.000000000E+00  0.000000000E+00  2.773330421E+03  2.773330421E+03  0.000000000E+00  0.00000E+00  9.000E+00
      21    -1     0     0   501   502  0.000000000E+00  0.000000000E+00 -9.311175287E+02  9.311175287E+02  0.000000000E+00  0.00000E+00  9.000E+00
      25     1     1     2     0     0  7.254025539E+02  8.090227585E+01 -4.297553500E+01  7.417721618E+02  1.250000000E+02  0.00000E+00  9.000E+00
      25     1     1     2     0     0 -1.164193483E+03 -2.169167674E+02  1.894142022E+02  1.205778624E+03  1.250000000E+02  0.00000E+00  9.000E+00
      21     1     1     2   501   511  4.387909293E+02  1.360144915E+02  1.695774225E+03  1.756897163E+03  0.000000000E+00  0.00000E+00  9.000E+00
#rwgt            1           1   3.5688024757689916E-002           4      124008           0
</event>
<event>
      5   9999  3.19816E-02  3.03028E+02 -1.00000E+00  1.05450E-01
      21    -1     0     0   502   501  0.000000000E+00  0.000000000E+00  9.068597054E+02  9.068597054E+02  0.000000000E+00  0.00000E+00  9.000E+00
      21    -1     0     0   501   512  0.000000000E+00  0.000000000E+00 -5.750941450E+02  5.750941450E+02  0.000000000E+00  0.00000E+00  9.000E+00
      25     1     1     2     0     0 -8.460941562E+01  6.536578279E+02  3.755488681E+02  7.688232967E+02  1.250000000E+02  0.00000E+00  9.000E+00
      25     1     1     2     0     0 -4.129501086E+01 -3.780240561E+02  2.947161895E+01  4.013739419E+02  1.250000000E+02  0.00000E+00  9.000E+00
      21     1     1     2   502   512  1.259044265E+02 -2.756337718E+02 -7.325492659E+01  3.117566119E+02  6.253660702E-06  0.00000E+00  9.000E+00
#rwgt            1           1   3.0976485550741267E-002           4      124044           0
</event>
<event>
      5   9999  3.19816E-02  3.43644E+02 -1.00000E+00  1.03710E-01
      21    -1     0     0   502   501  0.000000000E+00  0.000000000E+00  3.524529273E+02  3.524529273E+02  0.000000000E+00  0.00000E+00  9.000E+00
      21    -1     0     0   501   511  0.000000000E+00  0.000000000E+00 -8.673072352E+02  8.673072352E+02  0.000000000E+00  0.00000E+00  9.000E+00
      25     1     1     2     0     0  2.088653726E+02 -4.141532584E+02 -1.126130342E+01  4.805200123E+02  1.250000000E+02  0.00000E+00  9.000E+00
      25     1     1     2     0     0 -4.021264221E+01  1.147412607E+02 -7.481962627E+01  1.897513899E+02  1.250000000E+02  0.00000E+00  9.000E+00
      21     1     1     2   502   511 -1.686527304E+02  2.994119977E+02 -4.287733782E+02  5.494887603E+02  5.394796609E-06  0.00000E+00  9.000E+00
#rwgt            2          11   2.8096899166145796E-003           4      124234           0
</event>
<event>
      5   9999  3.19816E-02  1.40936E+01 -1.00000E+00  1.79972E-01
      21    -1     0     0   502   512  0.000000000E+00  0.000000000E+00  2.774787095E+02  2.774787095E+02  0.000000000E+00  0.00000E+00  9.000E+00
      21    -1     0     0   501   502  0.000000000E+00  0.000000000E+00 -3.431011219E+02  3.431011219E+02  0.000000000E+00  0.00000E+00  9.000E+00
      25     1     1     2     0     0 -4.012869874E+01  2.021183610E+02 -2.155611960E+02  3.233477594E+02  1.250000000E+02  0.00000E+00  9.000E+00
      25     1     1     2     0     0  5.414782992E+01 -2.006712007E+02  1.411617916E+02  2.806288825E+02  1.250000000E+02  0.00000E+00  9.000E+00
      21     1     1     2   501   512 -1.401913118E+01 -1.447160297E+00  8.776991989E+00  1.660318946E+01  0.000000000E+00  0.00000E+00  9.000E+00
#rwgt            1           1   2.7800769987301088E-002           4      124269           0
</event>
<event>
      5   9999  3.19816E-02  7.47309E+01 -1.00000E+00  1.29798E-01
      21    -1     0     0   502   501  0.000000000E+00  0.000000000E+00  5.259801337E+02  5.259801337E+02  0.000000000E+00  0.00000E+00  9.000E+00
       1    -1     0     0   501     0  0.000000000E+00  0.000000000E+00 -8.124284563E+02  8.124284563E+02  0.000000000E+00  0.00000E+00  9.000E+00
      25     1     1     2     0     0 -5.132978826E+02 -1.013041604E+02 -2.253368448E+02  5.832143198E+02  1.250000000E+02  0.00000E+00  9.000E+00
      25     1     1     2     0     0  4.699377718E+02  4.043865615E+01  1.665372062E+02  5.155932848E+02  1.250000000E+02  0.00000E+00  9.000E+00
       1     1     1     2   502     0  4.336011076E+01  6.086550424E+01 -2.276486841E+02  2.396009853E+02  3.814697266E-06  0.00000E+00  9.000E+00
#rwgt            1           1   2.0707563556465712E-002           4      124503           0
</event>
<event>
      5   9999  3.19816E-02  4.98104E+01 -1.00000E+00  1.39170E-01
      21    -1     0     0   511   501  0.000000000E+00  0.000000000E+00  2.645698801E+02  2.645698801E+02  0.000000000E+00  0.00000E+00  9.000E+00
      21    -1     0     0   501   502  0.000000000E+00  0.000000000E+00 -5.303255722E+02  5.303255722E+02  0.000000000E+00  0.00000E+00  9.000E+00
      25     1     1     2     0     0 -1.681959910E+02  2.055060097E+02 -5.068623447E+01  2.978534972E+02  1.250000000E+02  0.00000E+00  9.000E+00
      25     1     1     2     0     0  2.132437056E+02 -2.267610564E+02 -2.642673114E+02  4.270312243E+02  1.250000000E+02  0.00000E+00  9.000E+00
      21     1     1     2   511   502 -4.504771453E+01  2.125504671E+01  4.919785387E+01  7.001073075E+01  6.743495762E-07  0.00000E+00  9.000E+00
#rwgt            1           1   3.0663640878211190E-002           4      124566           0
</event>
<event>
      5   9999  3.19816E-02  3.80696E+01 -1.00000E+00  1.46185E-01
      21    -1     0     0   502   501  0.000000000E+00  0.000000000E+00  1.112359662E+03  1.112359662E+03  0.000000000E+00  0.00000E+00  9.000E+00
      21    -1     0     0   512   502  0.000000000E+00  0.000000000E+00 -1.968009507E+03  1.968009507E+03  0.000000000E+00  0.00000E+00  9.000E+00
      25     1     1     2     0     0  1.012112442E+03  1.059573610E+02  5.992063754E+02  1.187548667E+03  1.250000000E+02  0.00000E+00  9.000E+00
      25     1     1     2     0     0 -9.835980637E+02 -1.311808276E+02 -9.272782620E+02  1.363870791E+03  1.250000000E+02  0.00000E+00  9.000E+00
      21     1     1     2   512   501 -2.851437796E+01  2.522346664E+01 -5.275779588E+02  5.289497099E+02  7.629394531E-06  0.00000E+00  9.000E+00
#rwgt            1           1   3.9493724246673245E-002           4      124703           0
</event>
<event>
      5   9999  3.19816E-02  7.81160E+01 -1.00000E+00  1.28852E-01
      21    -1     0     0   502   501  0.000000000E+00  0.000000000E+00  2.184099876E+02  2.184099876E+02  0.000000000E+00  0.00000E+00  9.000E+00
      21    -1     0     0   501   511  0.000000000E+00  0.000000000E+00 -7.632540834E+02  7.632540834E+02  0.000000000E+00  0.00000E+00  9.000E+00
      25     1     1     2     0     0 -3.161512282E+02 -4.191096585E+01 -1.704378832E+02  3.825992684E+02  1.250000000E+02  0.00000E+00  9.000E+00
      25     1     1     2     0     0  3.685122025E+02 -1.605836439E+01 -3.079589774E+02  4.965106708E+02  1.250000000E+02  0.00000E+00  9.000E+00
      21     1     1     2   502   511 -5.236097430E+01  5.796933024E+01 -6.644723521E+01  1.025541318E+02  1.651812370E-06  0.00000E+00  9.000E+00
#rwgt            1           1   2.8355758403328032E-002           4      124904           0
</event>
<event>
      5   9999  3.19816E-02  1.53214E+02 -1.00000E+00  1.16030E-01
       2    -1     0     0   502     0  0.000000000E+00  0.000000000E+00  1.031453149E+03  1.031453149E+03  0.000000000E+00  0.00000E+00  9.000E+00
      21    -1     0     0   501   502  0.000000000E+00  0.000000000E+00 -7.562205760E+02  7.562205760E+02  0.000000000E+00  0.00000E+00  9.000E+00
      25     1     1     2     0     0  2.948864272E+02 -3.680909453E+02 -2.968467465E+02  5.711321562E+02  1.250000000E+02  0.00000E+00  9.000E+00
      25     1     1     2     0     0 -2.447770919E+02  2.233033214E+02 -2.152703931E+02  4.144231415E+02  1.250000000E+02  0.00000E+00  9.000E+00
       2     1     1     2   501     0 -5.010933525E+01  1.447876239E+02  7.873497122E+02  8.021184270E+02  1.078959322E-05  0.00000E+00  9.000E+00
#rwgt            1           1   2.9719956698585411E-002           4      124968           0
</event>
<event>
      5   9999  3.19816E-02  1.57362E+02 -1.00000E+00  1.15575E-01
      21    -1     0     0   502   501  0.000000000E+00  0.000000000E+00  2.170610240E+02  2.170610240E+02  0.000000000E+00  0.00000E+00  9.000E+00
      21    -1     0     0   501   511  0.000000000E+00  0.000000000E+00 -1.526426334E+03  1.526426334E+03  0.000000000E+00  0.00000E+00  9.000E+00
      25     1     1     2     0     0 -2.337304833E+02  2.394200822E+02 -1.148123627E+03  1.202399592E+03  1.250000000E+02  0.00000E+00  9.000E+00
      25     1     1     2     0     0  1.208454886E+02 -1.297846567E+02  9.780637754E+01  2.379890265E+02  1.250000000E+02  0.00000E+00  9.000E+00
      21     1     1     2   502   511  1.128849948E+02 -1.096354255E+02 -2.590480601E+02  3.030987397E+02  5.394796609E-06  0.00000E+00  9.000E+00
#rwgt            1           1   3.1701802084080646E-002           4      125009           0
</event>
<event>
      5   9999  3.19816E-02  2.48621E+01 -1.00000E+00  1.58931E-01
      21    -1     0     0   512   501  0.000000000E+00  0.000000000E+00  5.774534858E+01  5.774534858E+01  0.000000000E+00  0.00000E+00  9.000E+00
      21    -1     0     0   501   502  0.000000000E+00  0.000000000E+00 -5.854472307E+02  5.854472307E+02  0.000000000E+00  0.00000E+00  9.000E+00
      25     1     1     2     0     0 -5.784165665E+01  9.144491544E+01 -1.491150007E+02  2.226389751E+02  1.250000000E+02  0.00000E+00  9.000E+00
      25     1     1     2     0     0  4.309092492E+01 -7.143140129E+01 -3.580396615E+02  3.882997194E+02  1.250000000E+02  0.00000E+00  9.000E+00
      21     1     1     2   512   502  1.475073173E+01 -2.001351415E+01 -2.054721991E+01  3.225388475E+01  2.384185791E-07  0.00000E+00  9.000E+00
#rwgt            1           1   3.3782439830672535E-002           4      125081           0
</event>
<event>
      5   9999  3.19816E-02  3.91873E+01 -1.00000E+00  1.45395E-01
      21    -1     0     0   502   501  0.000000000E+00  0.000000000E+00  1.466989196E+03  1.466989196E+03  0.000000000E+00  0.00000E+00  9.000E+00
      21    -1     0     0   501   511  0.000000000E+00  0.000000000E+00 -1.636466420E+02  1.636466420E+02  0.000000000E+00  0.00000E+00  9.000E+00
      25     1     1     2     0     0 -2.968399040E+01 -1.154730561E+02 -9.938777498E+01  1.992939933E+02  1.250000000E+02  0.00000E+00  9.000E+00
      25     1     1     2     0     0  6.521603390E+01  9.894664960E+01  1.368536748E+03  1.379333680E+03  1.250000000E+02  0.00000E+00  9.000E+00
      21     1     1     2   502   511 -3.553204350E+01  1.652640646E+01  3.419358162E+01  5.200816522E+01  6.743495762E-07  0.00000E+00  9.000E+00
#rwgt            1           1   3.0778625366747869E-002           4      125226           0
</event>
<event>
      5   9999  3.19816E-02  1.32454E+01 -1.00000E+00  1.82629E-01
      21    -1     0     0   502   501  0.000000000E+00  0.000000000E+00  2.026005985E+02  2.026005985E+02  0.000000000E+00  0.00000E+00  9.000E+00
      21    -1     0     0   501   512  0.000000000E+00  0.000000000E+00 -6.271459426E+02  6.271459426E+02  0.000000000E+00  0.00000E+00  9.000E+00
      25     1     1     2     0     0  1.993410565E+02 -2.456304835E+01 -4.978600657E+02  5.512076244E+02  1.250000000E+02  0.00000E+00  9.000E+00
      25     1     1     2     0     0 -2.061574535E+02  1.320619075E+01  8.960363835E+01  2.575443867E+02  1.250000000E+02  0.00000E+00  9.000E+00
      21     1     1     2   502   512  6.816396989E+00  1.135685761E+01 -1.628891673E+01  2.099453002E+01  3.371747881E-07  0.00000E+00  9.000E+00
#rwgt            1           1   3.4179843060562230E-002           4      125344           0
</event>
<event>
      5   9999  3.19816E-02  7.75901E+01 -1.00000E+00  1.28996E-01
      21    -1     0     0   502   511  0.000000000E+00  0.000000000E+00  6.510325571E+02  6.510325571E+02  0.000000000E+00  0.00000E+00  9.000E+00
      21    -1     0     0   501   502  0.000000000E+00  0.000000000E+00 -2.240797455E+03  2.240797455E+03  0.000000000E+00  0.00000E+00  9.000E+00
      25     1     1     2     0     0 -6.059726467E+02  5.243762850E+02 -1.457125110E+03  1.667636628E+03  1.250000000E+02  0.00000E+00  9.000E+00
      25     1     1     2     0     0  6.483941805E+02 -5.893426716E+02 -3.812925195E+02  9.637161321E+02  1.250000000E+02  0.00000E+00  9.000E+00
      21     1     1     2   501   511 -4.242153377E+01  6.496638660E+01  2.486527316E+02  2.604772520E+02  3.814697266E-06  0.00000E+00  9.000E+00
#rwgt            1           1   1.5009063937079709E-002           4      125522           0
</event>
<event>
      5   9999  3.19816E-02  7.61713E+01 -1.00000E+00  1.29389E-01
      21    -1     0     0   502   501  0.000000000E+00  0.000000000E+00  6.032897373E+02  6.032897373E+02  0.000000000E+00  0.00000E+00  9.000E+00
      -2    -1     0     0     0   502  0.000000000E+00  0.000000000E+00 -1.016647351E+03  1.016647351E+03  0.000000000E+00  0.00000E+00  9.000E+00
      25     1     1     2     0     0 -2.215182894E+02 -1.428887289E+02 -1.548232507E+02  3.302768238E+02  1.250000000E+02  0.00000E+00  9.000E+00
      25     1     1     2     0     0  2.313830721E+02  6.735893592E+01  4.777235482E+02  5.494726024E+02  1.250000000E+02  0.00000E+00  9.000E+00
      -2     1     1     2     0   501 -9.864782709E+00  7.552979296E+01 -7.362579115E+02  7.401876625E+02  1.078959322E-05  0.00000E+00  9.000E+00
#rwgt            1           1   2.5284647038834183E-002           4      125633           0
</event>
<event>
      5   9999  3.19816E-02  1.03517E+02 -1.00000E+00  1.23156E-01
      21    -1     0     0   502   501  0.000000000E+00  0.000000000E+00  5.546776890E+02  5.546776890E+02  0.000000000E+00  0.00000E+00  9.000E+00
      21    -1     0     0   511   502  0.000000000E+00  0.000000000E+00 -9.293285316E+02  9.293285316E+02  0.000000000E+00  0.00000E+00  9.000E+00
      25     1     1     2     0     0  3.992206901E+02  4.013677348E+02  2.471239997E+02  6.302130506E+02  1.250000000E+02  0.00000E+00  9.000E+00
      25     1     1     2     0     0 -3.220448723E+02 -3.323774874E+02 -5.382494786E+02  7.207809619E+02  1.250000000E+02  0.00000E+00  9.000E+00
      21     1     1     2   511   501 -7.717581781E+01 -6.899024738E+01 -8.352536377E+01  1.330122080E+02  3.162979880E-06  0.00000E+00  9.000E+00
#rwgt            1           1   3.2384045416699363E-002           4      125735           0
</event>
<event>
      5   9999  3.19816E-02  4.83961E+02 -1.00000E+00  9.92559E-02
      21    -1     0     0   502   512  0.000000000E+00  0.000000000E+00  5.649213756E+02  5.649213756E+02  0.000000000E+00  0.00000E+00  9.000E+00
      21    -1     0     0   501   502  0.000000000E+00  0.000000000E+00 -2.373511636E+03  2.373511636E+03  0.000000000E+00  0.00000E+00  9.000E+00
      25     1     1     2     0     0 -4.509464995E+02  6.034925650E+01 -8.050237922E+02  9.331040050E+02  1.250000000E+02  0.00000E+00  9.000E+00
      25     1     1     2     0     0  8.745311738E+02  1.737331636E+02 -1.185211907E+03  1.488401911E+03  1.250000000E+02  0.00000E+00  9.000E+00
      21     1     1     2   501   512 -4.235846743E+02 -2.340824201E+02  1.816454390E+02  5.169270947E+02  1.112165812E-05  0.00000E+00  9.000E+00
#rwgt            2          11   2.5995838355742477E-003           4      125826           0
</event>
<event>
      5   9999  3.19816E-02  1.39427E+02 -1.00000E+00  1.17666E-01
      21    -1     0     0   502   501  0.000000000E+00  0.000000000E+00  1.805950021E+03  1.805950021E+03  0.000000000E+00  0.00000E+00  9.000E+00
      21    -1     0     0   511   502  0.000000000E+00  0.000000000E+00 -1.256967810E+02  1.256967810E+02  0.000000000E+00  0.00000E+00  9.000E+00
      25     1     1     2     0     0 -3.248887015E+02  4.492447681E+01  7.710358365E+02  8.471671253E+02  1.250000000E+02  0.00000E+00  9.000E+00
      25     1     1     2     0     0  3.974494671E+02  7.413414483E+01  8.082439785E+02  9.123295891E+02  1.250000000E+02  0.00000E+00  9.000E+00
      21     1     1     2   511   501 -7.256076560E+01 -1.190586216E+02  1.009734249E+02  1.721500875E+02  4.264961200E-06  0.00000E+00  9.000E+00
#rwgt            1           1   3.0913741355748460E-002           4      125861           0
</event>
<event>
      5   9999  3.19816E-02  3.44725E+01 -1.00000E+00  1.48963E-01
      21    -1     0     0   502   501  0.000000000E+00  0.000000000E+00  2.705101194E+02  2.705101194E+02  0.000000000E+00  0.00000E+00  9.000E+00
      21    -1     0     0   512   502  0.000000000E+00  0.000000000E+00 -6.376806549E+02  6.376806549E+02  0.000000000E+00  0.00000E+00  9.000E+00
      25     1     1     2     0     0 -2.802680388E+02 -1.218007470E+02  6.425291996E+01  3.363614622E+02  1.250000000E+02  0.00000E+00  9.000E+00
      25     1     1     2     0     0  2.604978003E+02  1.500405821E+02 -3.252500384E+02  4.601998128E+02  1.250000000E+02  0.00000E+00  9.000E+00
      21     1     1     2   512   501  1.977023858E+01 -2.823983516E+01 -1.061734171E+02  1.116294993E+02  1.907348633E-06  0.00000E+00  9.000E+00
#rwgt            1           1   3.1142131347131442E-002           4      125909           0
</event>
<event>
      5   9999  4.49740E-02  4.79066E+01 -1.00000E+00  1.40144E-01
      21    -1     0     0   502   511  0.000000000E+00  0.000000000E+00  5.847915533E+02  5.847915533E+02  0.000000000E+00  0.00000E+00  9.000E+00
      21    -1     0     0   501   502  0.000000000E+00  0.000000000E+00 -1.532956276E+02  1.532956276E+02  0.000000000E+00  0.00000E+00  9.000E+00
      25     1     1     2     0     0 -1.170050180E+02 -3.290446503E+01 -7.588858351E+01  1.901498229E+02  1.250000000E+02  0.00000E+00  9.000E+00
      25     1     1     2     0     0  7.414661527E+01  5.431008650E+01  3.380092158E+02  3.719173779E+02  1.250000000E+02  0.00000E+00  9.000E+00
      21     1     1     2   501   511  4.285840273E+01 -2.140562147E+01  1.693752934E+02  1.760199800E+02  2.697398305E-06  0.00000E+00  9.000E+00
#rwgt            1           1   4.2519944239294012E-002           4      126111           0
</event>
<event>
      5   9999  3.19816E-02  4.37140E+01 -1.00000E+00  1.42489E-01
      21    -1     0     0   512   501  0.000000000E+00  0.000000000E+00  3.612687439E+02  3.612687439E+02  0.000000000E+00  0.00000E+00  9.000E+00
      21    -1     0     0   501   502  0.000000000E+00  0.000000000E+00 -1.537491202E+03  1.537491202E+03  0.000000000E+00  0.00000E+00  9.000E+00
      25     1     1     2     0     0 -4.638815524E+02  2.190619220E+02  4.344584134E+01  5.297987934E+02  1.250000000E+02  0.00000E+00  9.000E+00
      25     1     1     2     0     0  4.565979838E+02 -2.621648575E+02 -1.208071867E+03  1.323735157E+03  1.250000000E+02  0.00000E+00  9.000E+00
      21     1     1     2   512   502  7.283568608E+00  4.310293550E+01 -1.159643299E+01  4.522599561E+01  6.743495762E-07  0.00000E+00  9.000E+00
#rwgt            1           1   3.1884480974384150E-002           4      126204           0
</event>
<event>
      5   9999  3.19816E-02  4.27114E+01 -1.00000E+00  1.43095E-01
      21    -1     0     0   502   501  0.000000000E+00  0.000000000E+00  1.587546957E+02  1.587546957E+02  0.000000000E+00  0.00000E+00  9.000E+00
      21    -1     0     0   501   511  0.000000000E+00  0.000000000E+00 -1.943114756E+02  1.943114756E+02  0.000000000E+00  0.00000E+00  9.000E+00
      25     1     1     2     0     0 -3.391867974E+01 -9.773032386E+01 -4.446549943E+01  1.682375513E+02  1.250000000E+02  0.00000E+00  9.000E+00
      25     1     1     2     0     0  2.866104288E+01  5.534377911E+01  1.894213506E+01  1.409545804E+02  1.250000000E+02  0.00000E+00  9.000E+00
      21     1     1     2   502   511  5.257636864E+00  4.238654475E+01 -1.003341547E+01  4.387403955E+01  1.174075341E-06  0.00000E+00  9.000E+00
#rwgt            1           1   4.7386837520194944E-002           4      126343           0
</event>
<event>
      5   9999  3.19816E-02  4.90398E+01 -1.00000E+00  1.39558E-01
      21    -1     0     0   502   501  0.000000000E+00  0.000000000E+00  2.985221981E+02  2.985221981E+02  0.000000000E+00  0.00000E+00  9.000E+00
      21    -1     0     0   512   502  0.000000000E+00  0.000000000E+00 -1.135695299E+03  1.135695299E+03  0.000000000E+00  0.00000E+00  9.000E+00
      25     1     1     2     0     0  1.176138416E+02  2.511224465E+02  1.726106647E+02  3.497355293E+02  1.250000000E+02  0.00000E+00  9.000E+00
      25     1     1     2     0     0 -1.188090490E+02 -3.001476484E+02 -8.694990322E+02  9.358727306E+02  1.250000000E+02  0.00000E+00  9.000E+00
      21     1     1     2   512   501  1.195207342E+00  4.902520190E+01 -1.402847329E+02  1.486092367E+02  2.697398305E-06  0.00000E+00  9.000E+00
#rwgt            2          11   3.2069036807873272E-003           4      126514           0
</event>
<event>
      5   9999  3.19816E-02  3.26218E+02 -1.00000E+00  1.04423E-01
      21    -1     0     0   511   501  0.000000000E+00  0.000000000E+00  1.957437674E+03  1.957437674E+03  0.000000000E+00  0.00000E+00  9.000E+00
      21    -1     0     0   501   502  0.000000000E+00  0.000000000E+00 -1.762120980E+03  1.762120980E+03  0.000000000E+00  0.00000E+00  9.000E+00
      25     1     1     2     0     0  2.107901349E+02  1.570025296E+02 -1.335583319E+03  1.366927239E+03  1.250000000E+02  0.00000E+00  9.000E+00
      25     1     1     2     0     0 -9.046153237E+01 -4.602168682E+02 -2.472962024E+02  5.447598245E+02  1.250000000E+02  0.00000E+00  9.000E+00
      21     1     1     2   511   502 -1.203286026E+02  3.032143386E+02  1.778196215E+03  1.807871591E+03  0.000000000E+00  0.00000E+00  9.000E+00
#rwgt            1           1   2.8708868518818466E-002           4      126549           0
</event>
<event>
      5   9999  3.19816E-02  2.43523E+02  7.55638E-03  1.08621E-01
      -2    -1     0     0     0   501  0.000000000E+00  0.000000000E+00  4.304555991E+02  4.304555991E+02  0.000000000E+00  0.00000E+00  9.000E+00
       2    -1     0     0   502     0  0.000000000E+00  0.000000000E+00 -6.670257281E+02  6.670257281E+02  0.000000000E+00  0.00000E+00  9.000E+00
      25     1     1     2     0     0 -1.693219716E+02 -2.035459973E+02 -2.844665906E+02  4.082243798E+02  1.250000000E+02  0.00000E+00  9.000E+00
      25     1     1     2     0     0  3.738996298E+02  7.144295232E+01 -8.824216101E+01  4.102641924E+02  1.250000000E+02  0.00000E+00  9.000E+00
      21     1     1     2   502   501 -2.045776582E+02  1.321030450E+02  1.361386226E+02  2.789927549E+02  5.046370146E-06  0.00000E+00  9.000E+00
#rwgt            3           4   6.7172062428337136E-006           4      126677           0
</event>
<event>
      5   9999  3.40908E-02  1.42619E+01 -1.00000E+00  1.79473E-01
      21    -1     0     0   502   501  0.000000000E+00  0.000000000E+00  2.173698274E+03  2.173698274E+03  0.000000000E+00  0.00000E+00  9.000E+00
      21    -1     0     0   511   502  0.000000000E+00  0.000000000E+00 -8.894058786E+01  8.894058786E+01  0.000000000E+00  0.00000E+00  9.000E+00
      25     1     1     2     0     0  1.094040447E+02  2.250071134E+02  4.069977414E+02  4.938315579E+02  1.250000000E+02  0.00000E+00  9.000E+00
      25     1     1     2     0     0 -9.657342586E+01 -2.187798844E+02  1.711256226E+03  1.732401205E+03  1.250000000E+02  0.00000E+00  9.000E+00
      21     1     1     2   511   501 -1.283061889E+01 -6.227228957E+00 -3.349628137E+01  3.640609876E+01  1.784161275E-06  0.00000E+00  9.000E+00
#rwgt            1           1   9.4687488470379041E-002           4      126696           0
</event>
<event>
      5   9999  3.19816E-02  8.75048E+01 -1.00000E+00  1.26493E-01
      21    -1     0     0   502   501  0.000000000E+00  0.000000000E+00  1.264107649E+03  1.264107649E+03  0.000000000E+00  0.00000E+00  9.000E+00
      21    -1     0     0   512   502  0.000000000E+00  0.000000000E+00 -2.635776566E+02  2.635776566E+02  0.000000000E+00  0.00000E+00  9.000E+00
      25     1     1     2     0     0 -1.717534513E+02  4.967442848E+02  3.427171178E+02  6.397922752E+02  1.250000000E+02  0.00000E+00  9.000E+00
      25     1     1     2     0     0  2.213218265E+02 -4.246327428E+02  6.180578778E+02  7.917808140E+02  1.250000000E+02  0.00000E+00  9.000E+00
      21     1     1     2   512   501 -4.956837524E+01 -7.211154201E+01  3.975499628E+01  9.611221589E+01  6.743495762E-07  0.00000E+00  9.000E+00
#rwgt            1           1   3.2076057200357895E-002           4      126914           0
</event>
<event>
      5   9999  3.19816E-02  3.52348E+01 -1.00000E+00  1.48342E-01
      -2    -1     0     0     0   501  0.000000000E+00  0.000000000E+00  1.210363985E+03  1.210363985E+03  0.000000000E+00  0.00000E+00  9.000E+00
      21    -1     0     0   501   502  0.000000000E+00  0.000000000E+00 -3.264550008E+02  3.264550008E+02  0.000000000E+00  0.00000E+00  9.000E+00
      25     1     1     2     0     0 -1.899060348E+02 -2.248775288E+02  1.288754795E+02  3.447725254E+02  1.250000000E+02  0.00000E+00  9.000E+00
      25     1     1     2     0     0  2.238903861E+02  2.155740047E+02 -8.952391687E+01  3.467543629E+02  1.250000000E+02  0.00000E+00  9.000E+00
      -2     1     1     2     0   502 -3.398435134E+01  9.303524117E+00  8.445574211E+02  8.452920970E+02  1.525878906E-05  0.00000E+00  9.000E+00
#rwgt            1           1   2.8852570574410784E-002           4      126996           0
</event>
<event>
      5   9999  3.19816E-02  5.90039E+01 -1.00000E+00  1.35093E-01
      21    -1     0     0   502   501  0.000000000E+00  0.000000000E+00  2.870657528E+02  2.870657528E+02  0.000000000E+00  0.00000E+00  9.000E+00
      21    -1     0     0   501   511  0.000000000E+00  0.000000000E+00 -1.190795615E+03  1.190795615E+03  0.000000000E+00  0.00000E+00  9.000E+00
      25     1     1     2     0     0  1.453805877E+02  3.301205307E+02  6.864476946E+01  3.878816629E+02  1.250000000E+02  0.00000E+00  9.000E+00
      25     1     1     2     0     0 -1.916054052E+02 -3.667909925E+02 -8.290571126E+02  9.349914221E+02  1.250000000E+02  0.00000E+00  9.000E+00
      21     1     1     2   502   511  4.622481748E+01  3.667046177E+01 -1.433175190E+02  1.549882827E+02  1.907348633E-06  0.00000E+00  9.000E+00
#rwgt            1           1   2.6681780756200923E-002           4      127081           0
</event>
<event>
      5   9999  3.19816E-02  5.20706E+01 -1.00000E+00  1.38077E-01
      21    -1     0     0   512   501  0.000000000E+00  0.000000000E+00  2.164826675E+02  2.164826675E+02  0.000000000E+00  0.00000E+00  9.000E+00
      21    -1     0     0   501   502  0.000000000E+00  0.000000000E+00 -5.464478221E+02  5.464478221E+02  0.000000000E+00  0.00000E+00  9.000E+00
      25     1     1     2     0     0  2.598200676E+01 -9.806380397E+01  8.246845215E+01  1.808801258E+02  1.250000000E+02  0.00000E+00  9.000E+00
      25     1     1     2     0     0 -7.594687954E+01  8.340576521E+01 -4.730609220E+02  5.021315426E+02  1.250000000E+02  0.00000E+00  9.000E+00
      21     1     1     2   512   502  4.996487278E+01  1.465803876E+01  6.062731529E+01  7.991882114E+01  9.536743164E-07  0.00000E+00  9.000E+00
#rwgt            1           1   2.8664836127028179E-002           4      127194           0
</event>
<event>
      5   9999  3.19816E-02  5.88244E+01 -1.00000E+00  1.35164E-01
       1    -1     0     0   502     0  0.000000000E+00  0.000000000E+00  5.304992644E+02  5.304992644E+02  0.000000000E+00  0.00000E+00  9.000E+00
      21    -1     0     0   501   502  0.000000000E+00  0.000000000E+00 -1.431586518E+03  1.431586518E+03  0.000000000E+00  0.00000E+00  9.000E+00
      25     1     1     2     0     0  4.520705688E+01 -4.527680496E+02 -1.036992405E+03  1.139307172E+03  1.250000000E+02  0.00000E+00  9.000E+00
      25     1     1     2     0     0 -9.273778594E+01  4.874255161E+02 -1.481561152E+02  5.326904966E+02  1.250000000E+02  0.00000E+00  9.000E+00
       1     1     1     2   501     0  4.753072906E+01 -3.465746658E+01  2.840612668E+02  2.900881133E+02  0.000000000E+00  0.00000E+00  9.000E+00
#rwgt            1           1   3.5933815164780773E-002           4      127356           0
</event>
<event>
      5   9999  3.19816E-02  9.67724E+01 -1.00000E+00  1.24472E-01
      21    -1     0     0   511   501  0.000000000E+00  0.000000000E+00  4.885284352E+01  4.885284352E+01  0.000000000E+00  0.00000E+00  9.000E+00
      21    -1     0     0   501   502  0.000000000E+00  0.000000000E+00 -2.069833732E+03  2.069833732E+03  0.000000000E+00  0.00000E+00  9.000E+00
      25     1     1     2     0     0  1.536201334E+02  1.414626867E+01 -5.858245715E+02  6.185585590E+02  1.250000000E+02  0.00000E+00  9.000E+00
      25     1     1     2     0     0 -1.201636347E+02  7.665881653E+01 -1.370943175E+03  1.383989184E+03  1.250000000E+02  0.00000E+00  9.000E+00
      21     1     1     2   511   502 -3.345649870E+01 -9.080508519E+01 -6.421314250E+01  1.161388328E+02  4.370284743E-06  0.00000E+00  9.000E+00
#rwgt            2          11   9.4800439166775712E-003           4      127462           0
</event>
<event>
      5   9999  3.19816E-02  1.07271E+02 -1.00000E+00  1.22472E-01
      21    -1     0     0   502   512  0.000000000E+00  0.000000000E+00  1.429164842E+03  1.429164842E+03  0.000000000E+00  0.00000E+00  9.000E+00
      21    -1     0     0   501   502  0.000000000E+00  0.000000000E+00 -6.909688665E+01  6.909688665E+01  0.000000000E+00  0.00000E+00  9.000E+00
      25     1     1     2     0     0 -1.361171002E+02 -7.897260869E+01  2.105518031E+02  2.910697505E+02  1.250000000E+02  0.00000E+00  9.000E+00
      25     1     1     2     0     0  3.031631923E+01  6.127358441E+01  1.699470127E+02  2.217668111E+02  1.250000000E+02  0.00000E+00  9.000E+00
      21     1     1     2   501   512  1.058007810E+02  1.769902427E+01  9.795691397E+02  9.854251672E+02  1.868812365E-05  0.00000E+00  9.000E+00
#rwgt            1           1   2.6966068072808620E-002           4      127527           0
</event>
<event>
      5   9999  3.19816E-02  1.59803E+01 -1.00000E+00  1.74832E-01
      21    -1     0     0   502   501  0.000000000E+00  0.000000000E+00  8.079099590E+02  8.079099590E+02  0.000000000E+00  0.00000E+00  9.000E+00
      21    -1     0     0   511   502  0.000000000E+00  0.000000000E+00 -7.840043279E+01  7.840043279E+01  0.000000000E+00  0.00000E+00  9.000E+00
      25     1     1     2     0     0  1.820622775E+02  2.884007273E+01  3.101812572E+02  3.818583965E+02  1.250000000E+02  0.00000E+00  9.000E+00
      25     1     1     2     0     0 -1.729473175E+02 -1.571426392E+01  4.332833283E+02  4.832361279E+02  1.250000000E+02  0.00000E+00  9.000E+00
      21     1     1     2   511   501 -9.114960004E+00 -1.312580881E+01 -1.395505924E+01  2.121586744E+01  7.152557373E-07  0.00000E+00  9.000E+00
#rwgt            1           1   3.6898560686285949E-002           4      127573           0
</event>
<event>
      5   9999  3.80521E-02  6.16208E+01 -1.00000E+00  1.34088E-01
      21    -1     0     0   512   501  0.000000000E+00  0.000000000E+00  2.630301146E+03  2.630301146E+03  0.000000000E+00  0.00000E+00  9.000E+00
      21    -1     0     0   501   502  0.000000000E+00  0.000000000E+00 -4.198652560E+01  4.198652560E+01  0.000000000E+00  0.00000E+00  9.000E+00
      25     1     1     2     0     0 -3.905215503E+01 -2.405823559E+02  5.539603804E+02  6.179822359E+02  1.250000000E+02  0.00000E+00  9.000E+00
      25     1     1     2     0     0  1.899401045E+01  1.823174710E+02  1.480187620E+03  1.496723362E+03  1.250000000E+02  0.00000E+00  9.000E+00
      21     1     1     2   512   502  2.005814459E+01  5.826488496E+01  5.541666208E+02  5.575820743E+02  7.629394531E-06  0.00000E+00  9.000E+00
#rwgt            1           1  0.10629343310578315                4      127687           0
</event>
<event>
      5   9999  3.19816E-02  6.90723E+01 -1.00000E+00  1.31515E-01
      21    -1     0     0   502   501  0.000000000E+00  0.000000000E+00  4.186978059E+02  4.186978059E+02  0.000000000E+00  0.00000E+00  9.000E+00
      21    -1     0     0   511   502  0.000000000E+00  0.000000000E+00 -5.551890572E+02  5.551890572E+02  0.000000000E+00  0.00000E+00  9.000E+00
      25     1     1     2     0     0 -6.606827750E+01  1.039619891E+02  3.408214677E+02  3.833502123E+02  1.250000000E+02  0.00000E+00  9.000E+00
      25     1     1     2     0     0  9.902179000E+00 -6.375819362E+01 -3.784271034E+01  1.456716552E+02  1.250000000E+02  0.00000E+00  9.000E+00
      21     1     1     2   511   501  5.616609850E+01 -4.020379546E+01 -4.394700087E+02  4.448649956E+02  0.000000000E+00  0.00000E+00  9.000E+00
#rwgt            1           1   2.6923094160523513E-002           4      127772           0
</event>
<event>
      5   9999  3.19816E-02  1.64840E+02 -1.00000E+00  1.14793E-01
      21    -1     0     0   502   501  0.000000000E+00  0.000000000E+00  1.501585013E+02  1.501585013E+02  0.000000000E+00  0.00000E+00  9.000E+00
      21    -1     0     0   512   502  0.000000000E+00  0.000000000E+00 -1.070047538E+03  1.070047538E+03  0.000000000E+00  0.00000E+00  9.000E+00
      25     1     1     2     0     0  2.052534624E+02 -5.710665897E+01 -2.460926395E+02  3.486785648E+02  1.250000000E+02  0.00000E+00  9.000E+00
      25     1     1     2     0     0 -3.476237970E+02 -2.597778164E+01 -3.568623361E+02  5.142887091E+02  1.250000000E+02  0.00000E+00  9.000E+00
      21     1     1     2   512   501  1.423703346E+02  8.308444061E+01 -3.169340610E+02  3.572387654E+02  3.814697266E-06  0.00000E+00  9.000E+00
#rwgt            1           1   2.7180001041301718E-002           4      127825           0
</event>
<event>
      5   9999  3.19816E-02  1.11624E+03 -1.00000E+00  8.98593E-02
       2    -1     0     0   502     0  0.000000000E+00  0.000000000E+00  5.040777226E+03  5.040777226E+03  0.000000000E+00  0.00000E+00  9.000E+00
      21    -1     0     0   501   502  0.000000000E+00  0.000000000E+00 -7.425594124E+02  7.425594124E+02  0.000000000E+00  0.00000E+00  9.000E+00
      25     1     1     2     0     0 -3.827281172E+02  1.259507490E+03  6.830200642E+01  1.324058191E+03  1.250000000E+02  0.00000E+00  9.000E+00
      25     1     1     2     0     0  8.582682890E+01 -1.834783274E+02  3.598324950E+02  4.314336168E+02  1.250000000E+02  0.00000E+00  9.000E+00
       2     1     1     2   501     0  2.969012883E+02 -1.076029163E+03  3.870083312E+03  4.027844831E+03  7.475249459E-05  0.00000E+00  9.000E+00
#rwgt            2          18   7.4144901395291286E-004           4      127859           0
</event>
<event>
      5   9999  3.19816E-02  2.09177E+02 -1.00000E+00  1.10943E-01
      21    -1     0     0   511   501  0.000000000E+00  0.000000000E+00  9.120665349E+02  9.120665349E+02  0.000000000E+00  0.00000E+00  9.000E+00
      21    -1     0     0   501   502  0.000000000E+00  0.000000000E+00 -2.974852163E+02  2.974852163E+02  0.000000000E+00  0.00000E+00  9.000E+00
      25     1     1     2     0     0 -1.618046644E+02 -2.645733146E+02  2.084789789E+02  3.940409533E+02  1.250000000E+02  0.00000E+00  9.000E+00
      25     1     1     2     0     0  3.289351707E+02  1.387859425E+02  2.292929594E+01  3.789599411E+02  1.250000000E+02  0.00000E+00  9.000E+00
      21     1     1     2   511   502 -1.671305063E+02  1.257873721E+02  3.831730437E+02  4.365508567E+02  0.000000000E+00  0.00000E+00  9.000E+00
#rwgt            1           1   2.8499050166868073E-002           4      127893           0
</event>
<event>
      5   9999  3.19816E-02  7.95743E+01 -1.00000E+00  1.28462E-01
      21    -1     0     0   502   512  0.000000000E+00  0.000000000E+00  8.325769849E+01  8.325769849E+01  0.000000000E+00  0.00000E+00  9.000E+00
      21    -1     0     0   501   502  0.000000000E+00  0.000000000E+00 -8.904275794E+02  8.904275794E+02  0.000000000E+00  0.00000E+00  9.000E+00
      25     1     1     2     0     0  1.460232424E+02 -3.819895153E+01 -4.736208359E+02  5.125657455E+02  1.250000000E+02  0.00000E+00  9.000E+00
      25     1     1     2     0     0 -9.015380812E+01 -1.846385203E+01 -3.472602798E+02  3.803726133E+02  1.250000000E+02  0.00000E+00  9.000E+00
      21     1     1     2   501   512 -5.586943428E+01  5.666280357E+01  1.371123485E+01  8.074691917E+01  3.057898364E-06  0.00000E+00  9.000E+00
#rwgt            1           1   3.1412773904872481E-002           4      127933           0
</event>
<event>
      5   9999  3.19816E-02  1.85757E+02 -1.00000E+00  1.12829E-01
      21    -1     0     0   502   501  0.000000000E+00  0.000000000E+00  4.271541155E+02  4.271541155E+02  0.000000000E+00  0.00000E+00  9.000E+00
      21    -1     0     0   501   511  0.000000000E+00  0.000000000E+00 -5.256377377E+02  5.256377377E+02  0.000000000E+00  0.00000E+00  9.000E+00
      25     1     1     2     0     0 -1.852156166E+02 -1.704405303E+02 -2.931382956E+02  4.060909496E+02  1.250000000E+02  0.00000E+00  9.000E+00
      25     1     1     2     0     0  5.842654907E+01  3.468312927E+01  3.008047383E+02  3.327537704E+02  1.250000000E+02  0.00000E+00  9.000E+00
      21     1     1     2   502   511  1.267890675E+02  1.357574010E+02 -1.061500649E+02  2.139471333E+02  3.814697266E-06  0.00000E+00  9.000E+00
#rwgt            1           1   2.9465680960054381E-002           4      127999           0
</event>
<event>
      5   9999  3.19816E-02  4.45242E+02 -1.00000E+00  1.00304E-01
      21    -1     0     0   512   501  0.000000000E+00  0.000000000E+00  4.488282105E+02  4.488282105E+02  0.000000000E+00  0.00000E+00  9.000E+00
      21    -1     0     0   501   502  0.000000000E+00  0.000000000E+00 -8.457751944E+02  8.457751944E+02  0.000000000E+00  0.00000E+00  9.000E+00
      25     1     1     2     0     0 -4.050791581E+02  3.411422017E+02 -1.078005275E+02  5.547189197E+02  1.250000000E+02  0.00000E+00  9.000E+00
      25     1     1     2     0     0 -1.158327877E+01 -1.841938986E+02 -1.660023878E+02  2.779268922E+02  1.250000000E+02  0.00000E+00  9.000E+00
      21     1     1     2   512   502  4.166624369E+02 -1.569483031E+02 -1.231440686E+02  4.619575930E+02  8.092194914E-06  0.00000E+00  9.000E+00
#rwgt            1           1   2.8729772940767763E-002           4      128061           0
</event>
<event>
      5   9999  3.19816E-02  1.97406E+02 -1.00000E+00  1.11855E-01
      21    -1     0     0   502   501  0.000000000E+00  0.000000000E+00  1.231572072E+03  1.231572072E+03  0.000000000E+00  0.00000E+00  9.000E+00
      21    -1     0     0   511   502  0.000000000E+00  0.000000000E+00 -1.306124387E+03  1.306124387E+03  0.000000000E+00  0.00000E+00  9.000E+00
      25     1     1     2     0     0  4.779876221E+02  3.023816073E+01  1.119446976E+03  1.223998793E+03  1.250000000E+02  0.00000E+00  9.000E+00
      25     1     1     2     0     0 -3.066793312E+02  6.785723080E+01 -8.811573075E+02  9.437796441E+02  1.250000000E+02  0.00000E+00  9.000E+00
      21     1     1     2   511   501 -1.713082908E+02 -9.809539153E+01 -3.128419831E+02  3.699180217E+02  5.394796609E-06  0.00000E+00  9.000E+00
#rwgt            2          11   4.8118297783811340E-003           4      128104           0
</event>
<event>
      5   9999  3.19816E-02  3.16122E+01 -1.00000E+00  1.51477E-01
      21    -1     0     0   502   512  0.000000000E+00  0.000000000E+00  9.860936719E+01  9.860936719E+01  0.000000000E+00  0.00000E+00  9.000E+00
      21    -1     0     0   501   502  0.000000000E+00  0.000000000E+00 -2.750517904E+02  2.750517904E+02  0.000000000E+00  0.00000E+00  9.000E+00
      25     1     1     2     0     0  2.986462560E+01 -5.597218431E+01 -6.063596797E+01  1.527301604E+02  1.250000000E+02  0.00000E+00  9.000E+00
      25     1     1     2     0     0 -8.616525979E+00  7.937838899E+01 -1.175704462E+02  1.892696040E+02  1.250000000E+02  0.00000E+00  9.000E+00
      21     1     1     2   501   512 -2.124809962E+01 -2.340620468E+01  1.763991046E+00  3.166139320E+01  7.366661486E-07  0.00000E+00  9.000E+00
#rwgt            1           1   3.2249325891068055E-002           4      128124           0
</event>
<event>
      5   9999  3.19816E-02  7.23919E+01 -1.00000E+00  1.30486E-01
      21    -1     0     0   511   501  0.000000000E+00  0.000000000E+00  1.019054299E+03  1.019054299E+03  0.000000000E+00  0.00000E+00  9.000E+00
      21    -1     0     0   501   502  0.000000000E+00  0.000000000E+00 -4.749814624E+02  4.749814624E+02  0.000000000E+00  0.00000E+00  9.000E+00
      25     1     1     2     0     0  1.245766863E+02 -3.699887754E+02 -1.999724025E+02  4.560975844E+02  1.250000000E+02  0.00000E+00  9.000E+00
      25     1     1     2     0     0 -1.843179743E+02  4.108735962E+02  2.337726893E+02  5.225561195E+02  1.250000000E+02  0.00000E+00  9.000E+00
      21     1     1     2   511   502  5.974128804E+01 -4.088482084E+01  5.102725494E+02  5.153820571E+02  9.344061824E-06  0.00000E+00  9.000E+00
#rwgt            1           1   3.1065694890102177E-002           4      128203           0
</event>
<event>
      5   9999  3.19816E-02  2.45143E+01 -1.00000E+00  1.59392E-01
      21    -1     0     0   502   512  0.000000000E+00  0.000000000E+00  5.578036111E+02  5.578036111E+02  0.000000000E+00  0.00000E+00  9.000E+00
      21    -1     0     0   501   502  0.000000000E+00  0.000000000E+00 -2.043770953E+02  2.043770953E+02  0.000000000E+00  0.00000E+00  9.000E+00
      25     1     1     2     0     0 -7.769219259E+00  2.066545136E+02  4.032788308E+02  4.701332408E+02  1.250000000E+02  0.00000E+00  9.000E+00
      25     1     1     2     0     0 -8.565786826E+00 -1.883755691E+02 -9.124077517E+01  2.439438599E+02  1.250000000E+02  0.00000E+00  9.000E+00
      21     1     1     2   501   512  1.633500608E+01 -1.827894451E+01  4.138846017E+01  4.810360560E+01  4.768371582E-07  0.00000E+00  9.000E+00
#rwgt            1           1   2.8263871351068219E-002           4      128314           0
</event>
<event>
      5   9999  3.19816E-02  2.10180E+02 -1.00000E+00  1.10869E-01
      21    -1     0     0   502   501  0.000000000E+00  0.000000000E+00  1.989845614E+02  1.989845614E+02  0.000000000E+00  0.00000E+00  9.000E+00
      21    -1     0     0   501   511  0.000000000E+00  0.000000000E+00 -6.735710999E+02  6.735710999E+02  0.000000000E+00  0.00000E+00  9.000E+00
      25     1     1     2     0     0  6.177082654E+01  5.581033772E+01 -5.368771974E+00  1.502805793E+02  1.250000000E+02  0.00000E+00  9.000E+00
      25     1     1     2     0     0  1.352108703E+02 -1.291178884E+02 -1.934647811E+01  2.257270360E+02  1.250000000E+02  0.00000E+00  9.000E+00
      21     1     1     2   502   511 -1.969816968E+02  7.330755073E+01 -4.498712884E+02  4.965480460E+02  7.629394531E-06  0.00000E+00  9.000E+00
#rwgt            1           1   6.6723796217911219E-002           4      128492           0
</event>
<event>
      5   9999  3.19816E-02  1.67003E+02 -1.00000E+00  1.14575E-01
      21    -1     0     0   502   501  0.000000000E+00  0.000000000E+00  1.537021999E+03  1.537021999E+03  0.000000000E+00  0.00000E+00  9.000E+00
       2    -1     0     0   501     0  0.000000000E+00  0.000000000E+00 -3.068603168E+03  3.068603168E+03  0.000000000E+00  0.00000E+00  9.000E+00
      25     1     1     2     0     0 -4.361278722E+02 -4.081235654E+02 -4.857708340E+01  6.121740754E+02  1.250000000E+02  0.00000E+00  9.000E+00
      25     1     1     2     0     0  5.133134456E+02  2.600276050E+02  1.183409669E+03  1.321812579E+03  1.250000000E+02  0.00000E+00  9.000E+00
       2     1     1     2   502     0 -7.718557347E+01  1.480959604E+02 -2.666413755E+03  2.671638512E+03  4.315837288E-05  0.00000E+00  9.000E+00
#rwgt            1           1   2.6429701985098728E-002           4      128522           0
</event>
<event>
      5   9999  3.19816E-02  1.36632E+01 -1.00000E+00  1.81290E-01
      21    -1     0     0   511   501  0.000000000E+00  0.000000000E+00  4.047727641E+02  4.047727641E+02  0.000000000E+00  0.00000E+00  9.000E+00
      21    -1     0     0   501   502  0.000000000E+00  0.000000000E+00 -1.172869329E+03  1.172869329E+03  0.000000000E+00  0.00000E+00  9.000E+00
      25     1     1     2     0     0 -4.659055126E+02 -3.170780097E+02 -4.271658322E+02  7.181239859E+02  1.250000000E+02  0.00000E+00  9.000E+00
      25     1     1     2     0     0  4.607217161E+02  3.297196342E+02 -4.595411218E+02  7.401233542E+02  1.250000000E+02  0.00000E+00  9.000E+00
      21     1     1     2   511   502  5.183796543E+00 -1.264162450E+01  1.186103895E+02  1.193947525E+02  1.907348633E-06  0.00000E+00  9.000E+00
#rwgt            1           1   2.3905459497407924E-002           4      128583           0
</event>
<event>
      5   9999  3.19816E-02  3.68941E+00 -1.00000E+00  2.72026E-01
      21    -1     0     0   502   501  0.000000000E+00  0.000000000E+00  2.072543880E+03  2.072543880E+03  0.000000000E+00  0.00000E+00  9.000E+00
      21    -1     0     0   501   512  0.000000000E+00  0.000000000E+00 -6.163613600E+01  6.163613600E+01  0.000000000E+00  0.00000E+00  9.000E+00
      25     1     1     2     0     0 -2.112350459E+02 -8.293751770E+01  2.776193011E+02  3.797319486E+02  1.250000000E+02  0.00000E+00  9.000E+00
      25     1     1     2     0     0  2.088408586E+02  8.574457717E+01  1.730950289E+03  1.750080153E+03  1.250000000E+02  0.00000E+00  9.000E+00
      21     1     1     2   502   512  2.394187296E+00 -2.807059472E+00  2.338153294E+00  4.367914435E+00  7.300048300E-08  0.00000E+00  9.000E+00
#rwgt            1           1   3.1951028784983064E-002           4      128846           0
</event>
<event>
      5   9999  3.19816E-02  5.67447E+02 -1.00000E+00  9.73155E-02
      21    -1     0     0   502   501  0.000000000E+00  0.000000000E+00  5.641295125E+02  5.641295125E+02  0.000000000E+00  0.00000E+00  9.000E+00
       2    -1     0     0   501     0  0.000000000E+00  0.000000000E+00 -1.467909047E+03  1.467909047E+03  0.000000000E+00  0.00000E+00  9.000E+00
      25     1     1     2     0     0 -2.798944826E+02 -1.859603100E+02  2.854880931E+02  4.583127858E+02  1.250000000E+02  0.00000E+00  9.000E+00
      25     1     1     2     0     0  2.032019900E+02 -3.762803670E+02 -3.814279195E+02  5.865067954E+02  1.250000000E+02  0.00000E+00  9.000E+00
       2     1     1     2   502     0  7.669249258E+01  5.622406770E+02 -8.078397086E+02  9.872189788E+02  1.525878906E-05  0.00000E+00  9.000E+00
#rwgt            2          13   1.2277236977719841E-003           4      129334           0
</event>
<event>
      5   9999  3.19816E-02  8.29368E+01 -1.00000E+00  1.27596E-01
      21    -1     0     0   502   501  0.000000000E+00  0.000000000E+00  7.083720137E+01  7.083720137E+01  0.000000000E+00  0.00000E+00  9.000E+00
       2    -1     0     0   501     0  0.000000000E+00  0.000000000E+00 -1.181713678E+03  1.181713678E+03  0.000000000E+00  0.00000E+00  9.000E+00
      25     1     1     2     0     0  6.346220879E+01 -6.455247297E+01 -2.552304814E+02  2.982651041E+02  1.250000000E+02  0.00000E+00  9.000E+00
      25     1     1     2     0     0 -1.291796349E+02  1.395871065E+01 -1.260488575E+02  2.199898592E+02  1.250000000E+02  0.00000E+00  9.000E+00
       2     1     1     2   502     0  6.571742611E+01  5.059376232E+01 -7.295971377E+02  7.342959160E+02  1.525878906E-05  0.00000E+00  9.000E+00
#rwgt            1           1   3.6955586005074627E-002           4      129398           0
</event>
<event>
      5   9999  3.19816E-02  1.15328E+02 -1.00000E+00  1.21105E-01
      21    -1     0     0   511   501  0.000000000E+00  0.000000000E+00  2.772151746E+02  2.772151746E+02  0.000000000E+00  0.00000E+00  9.000E+00
      21    -1     0     0   501   502  0.000000000E+00  0.000000000E+00 -2.464924350E+02  2.464924350E+02  0.000000000E+00  0.00000E+00  9.000E+00
      25     1     1     2     0     0  3.272502834E+01  7.043459125E+01 -5.515775099E+01  1.571602259E+02  1.250000000E+02  0.00000E+00  9.000E+00
      25     1     1     2     0     0 -1.259371305E+02 -1.383463454E+02  3.869376858E+00  2.250329847E+02  1.250000000E+02  0.00000E+00  9.000E+00
      21     1     1     2   511   502  9.321210217E+01  6.791175416E+01  8.201111365E+01  1.415143989E+02  2.132480600E-06  0.00000E+00  9.000E+00
#rwgt            1           1   2.3044521625212321E-002           4      129443           0
</event>
<event>
      5   9999  3.19816E-02  1.01687E+02 -1.00000E+00  1.23502E-01
       2    -1     0     0   502     0  0.000000000E+00  0.000000000E+00  3.288157339E+03  3.288157339E+03  0.000000000E+00  0.00000E+00  9.000E+00
      21    -1     0     0   501   502  0.000000000E+00  0.000000000E+00 -1.118141094E+02  1.118141094E+02  0.000000000E+00  0.00000E+00  9.000E+00
      25     1     1     2     0     0  8.744440624E+01 -4.772225227E+02  9.590818755E+02  1.082058642E+03  1.250000000E+02  0.00000E+00  9.000E+00
      25     1     1     2     0     0  1.392923778E+01  4.851942112E+02  1.271924804E+03  1.367122948E+03  1.250000000E+02  0.00000E+00  9.000E+00
       2     1     1     2   501     0 -1.013736440E+02 -7.971688525E+00  9.453365498E+02  9.507898590E+02  1.078959322E-05  0.00000E+00  9.000E+00
#rwgt            1           1   2.8756841418903663E-002           4      129490           0
</event>
<event>
      5   9999  3.19816E-02  1.69017E+02 -1.00000E+00  1.14376E-01
      21    -1     0     0   502   501  0.000000000E+00  0.000000000E+00  3.510845693E+02  3.510845693E+02  0.000000000E+00  0.00000E+00  9.000E+00
      21    -1     0     0   511   502  0.000000000E+00  0.000000000E+00 -5.461369508E+02  5.461369508E+02  0.000000000E+00  0.00000E+00  9.000E+00
      25     1     1     2     0     0  2.263854600E+02 -1.934293300E+02 -3.250829772E+02  4.582239892E+02  1.250000000E+02  0.00000E+00  9.000E+00
      25     1     1     2     0     0 -8.298893282E+01  1.039633903E+02  1.863366954E+02  2.608484494E+02  1.250000000E+02  0.00000E+00  9.000E+00
      21     1     1     2   511   501 -1.433965272E+02  8.946593969E+01 -5.630609968E+01  1.781490815E+02  5.091227652E-06  0.00000E+00  9.000E+00
#rwgt            1           1   3.2846027490459700E-002           4      129545           0
</event>
<event>
      5   9999  3.19816E-02  1.01450E+02 -1.00000E+00  1.23547E-01
      21    -1     0     0   502   501  0.000000000E+00  0.000000000E+00  3.409174210E+02  3.409174210E+02  0.000000000E+00  0.00000E+00  9.000E+00
      21    -1     0     0   501   512  0.000000000E+00  0.000000000E+00 -9.742692615E+02  9.742692615E+02  0.000000000E+00  0.00000E+00  9.000E+00
      25     1     1     2     0     0  1.537079897E+02 -1.568298202E+02  1.964893044E+02  3.200855907E+02  1.250000000E+02  0.00000E+00  9.000E+00
      25     1     1     2     0     0 -2.524457560E+02  1.335275885E+02 -2.317006793E+02  3.884181785E+02  1.250000000E+02  0.00000E+00  9.000E+00
      21     1     1     2   502   512  9.873776633E+01  2.330223180E+01 -5.981404657E+02  6.066829133E+02  7.629394531E-06  0.00000E+00  9.000E+00
#rwgt            1           1   3.1135523023357804E-002           4      129625           0
</event>
<event>
      5   9999  3.19816E-02  1.35389E+03 -1.00000E+00  8.79401E-02
      21    -1     0     0   502   501  0.000000000E+00  0.000000000E+00  2.260772051E+03  2.260772051E+03  0.000000000E+00  0.00000E+00  9.000E+00
       3    -1     0     0   501     0  0.000000000E+00  0.000000000E+00 -3.196240415E+03  3.196240415E+03  0.000000000E+00  0.00000E+00  9.000E+00
      25     1     1     2     0     0  1.849733503E+02  2.257966410E+03  6.238443162E+02  2.353175339E+03  1.250000000E+02  0.00000E+00  9.000E+00
      25     1     1     2     0     0 -3.602615465E+02 -9.154711543E+02  5.948606056E+01  9.934985695E+02  1.250000000E+02  0.00000E+00  9.000E+00
       3     1     1     2   502     0  1.752881962E+02 -1.342495255E+03 -1.618798741E+03  2.110338557E+03  4.315837288E-05  0.00000E+00  9.000E+00
#rwgt            2          14   2.2517572271180386E-005           4      129797           0
</event>
<event>
      5   9999  3.19816E-02  2.39287E+02 -1.00000E+00  1.08884E-01
      21    -1     0     0   502   501  0.000000000E+00  0.000000000E+00  1.328306166E+03  1.328306166E+03  0.000000000E+00  0.00000E+00  9.000E+00
      21    -1     0     0   501   511  0.000000000E+00  0.000000000E+00 -1.172593455E+03  1.172593455E+03  0.000000000E+00  0.00000E+00  9.000E+00
      25     1     1     2     0     0  4.269460220E+02  4.292239631E+02  1.024528742E+03  1.196578563E+03  1.250000000E+02  0.00000E+00  9.000E+00
      25     1     1     2     0     0 -6.354254711E+02 -3.117730051E+02 -7.438695972E+02  1.034376582E+03  1.250000000E+02  0.00000E+00  9.000E+00
      21     1     1     2   502   511  2.084794490E+02 -1.174509580E+02 -1.249464334E+02  2.699444747E+02  3.814697266E-06  0.00000E+00  9.000E+00
#rwgt            1           1   3.3406837738535471E-002           4      129846           0
</event>
<event>
      5   9999  3.19816E-02  5.24131E+01 -1.00000E+00  1.37918E-01
      21    -1     0     0   502   512  0.000000000E+00  0.000000000E+00  2.186094837E+03  2.186094837E+03  0.000000000E+00  0.00000E+00  9.000E+00
      21    -1     0     0   501   502  0.000000000E+00  0.000000000E+00 -8.741368067E+02  8.741368067E+02  0.000000000E+00  0.00000E+00  9.000E+00
      25     1     1     2     0     0  1.928834254E+02 -8.502906713E+00 -3.618414469E+02  4.287546477E+02  1.250000000E+02  0.00000E+00  9.000E+00
      25     1     1     2     0     0 -2.450186878E+02  1.389279480E+01 -4.388846889E+02  5.181427769E+02  1.250000000E+02  0.00000E+00  9.000E+00
      21     1     1     2   501   512  5.213526240E+01 -5.389888085E+00  2.112684166E+03  2.113334219E+03  0.000000000E+00  0.00000E+00  9.000E+00
#rwgt            1           1   2.8692381392101843E-002           4      129939           0
</event>
<event>
      5   9999  3.19816E-02  1.23033E+02 -1.00000E+00  1.19910E-01
      21    -1     0     0   502   501  0.000000000E+00  0.000000000E+00  7.896105125E+02  7.896105125E+02  0.000000000E+00  0.00000E+00  9.000E+00
      21    -1     0     0   501   511  0.000000000E+00  0.000000000E+00 -1.506650123E+02  1.506650123E+02  0.000000000E+00  0.00000E+00  9.000E+00
      25     1     1     2     0     0  9.567787248E+01 -1.020465946E+02  6.488685895E+02  6.754429726E+02  1.250000000E+02  0.00000E+00  9.000E+00
      25     1     1     2     0     0  7.423126128E+00  3.491041259E+01 -4.387659864E+01  1.372005671E+02  1.250000000E+02  0.00000E+00  9.000E+00
      21     1     1     2   502   511 -1.031009986E+02  6.713618199E+01  3.395350930E+01  1.276319852E+02  2.023048729E-06  0.00000E+00  9.000E+00
#rwgt            1           1   2.6764648419341171E-002           4      130043           0
</event>
<event>
      5   9999  3.19816E-02  5.98066E+02 -1.00000E+00  9.66915E-02
      21    -1     0     0   502   501  0.000000000E+00  0.000000000E+00  5.339661220E+02  5.339661220E+02  0.000000000E+00  0.00000E+00  9.000E+00
       2    -1     0     0   501     0  0.000000000E+00  0.000000000E+00 -4.452792881E+03  4.452792881E+03  0.000000000E+00  0.00000E+00  9.000E+00
      25     1     1     2     0     0 -2.995376712E+02  3.445257751E+02  1.430364391E+02  4.944747204E+02  1.250000000E+02  0.00000E+00  9.000E+00
      25     1     1     2     0     0 -1.651042587E+02  3.202522608E+01  1.374449924E+02  2.506015908E+02  1.250000000E+02  0.00000E+00  9.000E+00
       2     1     1     2   502     0  4.646419299E+02 -3.765510012E+02 -4.199308191E+03  4.241682692E+03  6.103515625E-05  0.00000E+00  9.000E+00
#rwgt            2          13   3.0185348999748913E-003           4      130116           0
</event>
<event>
      5   9999  3.19816E-02  4.39295E+01 -1.00000E+00  1.42361E-01
      21    -1     0     0   502   501  0.000000000E+00  0.000000000E+00  1.408001162E+03  1.408001162E+03  0.000000000E+00  0.00000E+00  9.000E+00
      21    -1     0     0   501   511  0.000000000E+00  0.000000000E+00 -1.690716769E+02  1.690716769E+02  0.000000000E+00  0.00000E+00  9.000E+00
      25     1     1     2     0     0  2.295770633E+02  1.087637405E+02  1.218135564E+03  1.250605626E+03  1.250000000E+02  0.00000E+00  9.000E+00
      25     1     1     2     0     0 -2.105968717E+02 -6.914620220E+01 -3.345285042E+01  2.566638518E+02  1.250000000E+02  0.00000E+00  9.000E+00
      21     1     1     2   502   511 -1.898019159E+01 -3.961753833E+01  5.424677159E+01  6.980336126E+01  6.743495762E-07  0.00000E+00  9.000E+00
#rwgt            1           1   3.0791557527548339E-002           4      130150           0
</event>
<event>
      5   9999  3.19816E-02  1.37788E+02 -1.00000E+00  1.17874E-01
      21    -1     0     0   502   512  0.000000000E+00  0.000000000E+00  4.575009468E+02  4.575009468E+02  0.000000000E+00  0.00000E+00  9.000E+00
      21    -1     0     0   501   502  0.000000000E+00  0.000000000E+00 -7.811516556E+02  7.811516556E+02  0.000000000E+00  0.00000E+00  9.000E+00
      25     1     1     2     0     0 -7.337142402E+01 -7.367428578E+01  3.271628032E+02  3.653378793E+02  1.250000000E+02  0.00000E+00  9.000E+00
      25     1     1     2     0     0  2.100947540E+02  5.658221372E+01 -6.865485053E+02  7.309686742E+02  1.250000000E+02  0.00000E+00  9.000E+00
      21     1     1     2   501   512 -1.367233300E+02  1.709207205E+01  3.573499324E+01  1.423460489E+02  1.966049969E-06  0.00000E+00  9.000E+00
#rwgt            1           1   2.5845910854193088E-002           4      130229           0
</event>
<event>
      5   9999  3.19816E-02  4.76070E+01 -1.00000E+00  1.40302E-01
      21    -1     0     0   502   501  0.000000000E+00  0.000000000E+00  3.197980392E+02  3.197980392E+02  0.000000000E+00  0.00000E+00  9.000E+00
      21    -1     0     0   501   511  0.000000000E+00  0.000000000E+00 -3.158868744E+02  3.158868744E+02  0.000000000E+00  0.00000E+00  9.000E+00
      25     1     1     2     0     0 -1.623040872E+02 -1.122670160E+01 -1.877064577E+02  2.780779923E+02  1.250000000E+02  0.00000E+00  9.000E+00
      25     1     1     2     0     0  1.855456418E+02 -3.032149929E+01  2.082803363E+02  3.071681576E+02  1.250000000E+02  0.00000E+00  9.000E+00
      21     1     1     2   502   511 -2.324155468E+01  4.154820089E+01 -1.666271386E+01  5.043876381E+01  9.233911863E-07  0.00000E+00  9.000E+00
#rwgt            1           1   2.8600638184209090E-002           4      130320           0
</event>
<event>
      5   9999  3.19816E-02  7.00403E+01 -1.00000E+00  1.31208E-01
      21    -1     0     0   502   512  0.000000000E+00  0.000000000E+00  9.988545191E+02  9.988545191E+02  0.000000000E+00  0.00000E+00  9.000E+00
      21    -1     0     0   501   502  0.000000000E+00  0.000000000E+00 -4.542470358E+01  4.542470358E+01  0.000000000E+00  0.00000E+00  9.000E+00
      25     1     1     2     0     0  3.616333497E+01 -9.486738339E+01  3.651367501E+02  3.990707375E+02  1.250000000E+02  0.00000E+00  9.000E+00
      25     1     1     2     0     0  2.686567933E+01  1.254123044E+02  3.078867296E+02  3.561870985E+02  1.250000000E+02  0.00000E+00  9.000E+00
      21     1     1     2   501   512 -6.302901430E+01 -3.054492105E+01  2.804063358E+02  2.890213867E+02  0.000000000E+00  0.00000E+00  9.000E+00
#rwgt            1           1   3.2373374588717245E-002           4      130411           0
</event>
<event>
      5   9999  3.19816E-02  6.54359E+01 -1.00000E+00  1.32721E-01
      21    -1     0     0   502   501  0.000000000E+00  0.000000000E+00  1.111345474E+03  1.111345474E+03  0.000000000E+00  0.00000E+00  9.000E+00
      21    -1     0     0   511   502  0.000000000E+00  0.000000000E+00 -3.099530839E+02  3.099530839E+02  0.000000000E+00  0.00000E+00  9.000E+00
      25     1     1     2     0     0 -1.177609567E+02  2.829547344E+02  3.337919430E+02  4.700777445E+02  1.250000000E+02  0.00000E+00  9.000E+00
      25     1     1     2     0     0  1.529679823E+02 -2.277974510E+02  6.720303233E+02  7.365735793E+02  1.250000000E+02  0.00000E+00  9.000E+00
      21     1     1     2   511   501 -3.520702562E+01 -5.515728333E+01 -2.044298766E+02  2.146472338E+02  4.672030912E-06  0.00000E+00  9.000E+00
#rwgt            1           1   2.7940642570095899E-002           4      130445           0
</event>
<event>
      5   9999  3.19816E-02  1.30906E+02 -1.00000E+00  1.18786E-01
      21    -1     0     0   512   501  0.000000000E+00  0.000000000E+00  1.864836638E+03  1.864836638E+03  0.000000000E+00  0.00000E+00  9.000E+00
      21    -1     0     0   501   502  0.000000000E+00  0.000000000E+00 -5.082862663E+01  5.082862663E+01  0.000000000E+00  0.00000E+00  9.000E+00
      25     1     1     2     0     0  4.847774801E+01  1.921225924E+02  6.322156900E+02  6.742276035E+02  1.250000000E+02  0.00000E+00  9.000E+00
      25     1     1     2     0     0 -1.640888877E+02 -1.307193522E+02  6.682790351E+02  7.115016380E+02  1.250000000E+02  0.00000E+00  9.000E+00
      21     1     1     2   512   502  1.156111397E+02 -6.140324017E+01  5.135132857E+02  5.299360227E+02  0.000000000E+00  0.00000E+00  9.000E+00
#rwgt            1           1   2.8461890794111256E-002           4      130514           0
</event>
<event>
      5   9999  3.19816E-02  3.89131E+02 -1.00000E+00  1.02047E-01
       2    -1     0     0   502     0  0.000000000E+00  0.000000000E+00  1.731681689E+03  1.731681689E+03  0.000000000E+00  0.00000E+00  9.000E+00
      21    -1     0     0   501   502  0.000000000E+00  0.000000000E+00 -2.403565952E+03  2.403565952E+03  0.000000000E+00  0.00000E+00  9.000E+00
      25     1     1     2     0     0  3.089868761E+02 -1.733977259E+02  3.927057116E+02  5.434909722E+02  1.250000000E+02  0.00000E+00  9.000E+00
      25     1     1     2     0     0 -1.229741501E+02 -1.683945867E+02 -2.291631295E+03  2.304490914E+03  1.250000000E+02  0.00000E+00  9.000E+00
       2     1     1     2   501     0 -1.860127261E+02  3.417923126E+02  1.227041321E+03  1.287265754E+03  2.157918644E-05  0.00000E+00  9.000E+00
#rwgt            1           1   2.8758292426724969E-002           4      130568           0
</event>
<event>
      5   9999  3.19816E-02  1.78337E+01 -1.00000E+00  1.70585E-01
      21    -1     0     0   502   501  0.000000000E+00  0.000000000E+00  6.815435020E+01  6.815435020E+01  0.000000000E+00  0.00000E+00  9.000E+00
      21    -1     0     0   511   502  0.000000000E+00  0.000000000E+00 -1.186494398E+03  1.186494398E+03  0.000000000E+00  0.00000E+00  9.000E+00
      25     1     1     2     0     0 -1.643176078E+00  2.017611998E+02 -4.507757092E+02  5.094448172E+02  1.250000000E+02  0.00000E+00  9.000E+00
      25     1     1     2     0     0 -1.615447155E+01 -2.006276932E+02 -3.251118631E+02  4.022874119E+02  1.250000000E+02  0.00000E+00  9.000E+00
      21     1     1     2   511   501  1.779764763E+01 -1.133506594E+00 -3.424524751E+02  3.429165187E+02  3.814697266E-06  0.00000E+00  9.000E+00
#rwgt            1           1   2.6589355131709652E-002           4      130618           0
</event>
<event>
      5   9999  3.19816E-02  9.22746E+01 -1.00000E+00  1.25419E-01
      21    -1     0     0   502   501  0.000000000E+00  0.000000000E+00  2.046351177E+02  2.046351177E+02  0.000000000E+00  0.00000E+00  9.000E+00
      21    -1     0     0   501   512  0.000000000E+00  0.000000000E+00 -5.723363430E+02  5.723363430E+02  0.000000000E+00  0.00000E+00  9.000E+00
      25     1     1     2     0     0 -1.724963945E+02 -6.526821062E+01 -1.029348892E+02  2.454292910E+02  1.250000000E+02  0.00000E+00  9.000E+00
      25     1     1     2     0     0  8.644013591E+01  3.196770850E+01  7.996110780E+01  1.746785913E+02  1.250000000E+02  0.00000E+00  9.000E+00
      21     1     1     2   502   512  8.605625861E+01  3.330050212E+01 -3.447274439E+02  3.568635785E+02  5.394796609E-06  0.00000E+00  9.000E+00
#rwgt            1           1   2.3291663470578868E-002           4      130851           0
</event>
<event>
      5   9999  3.19816E-02  1.04168E+01 -1.00000E+00  1.93729E-01
      21    -1     0     0   502   501  0.000000000E+00  0.000000000E+00  1.815912051E+02  1.815912051E+02  0.000000000E+00  0.00000E+00  9.000E+00
      21    -1     0     0   511   502  0.000000000E+00  0.000000000E+00 -2.281242372E+02  2.281242372E+02  0.000000000E+00  0.00000E+00  9.000E+00
      25     1     1     2     0     0 -8.104263169E+01 -1.250428854E+02  2.479055521E+01  1.960693830E+02  1.250000000E+02  0.00000E+00  9.000E+00
      25     1     1     2     0     0  8.601410252E+01  1.158889533E+02 -6.663112673E+01  2.022211225E+02  1.250000000E+02  0.00000E+00  9.000E+00
      21     1     1     2   511   501 -4.971470830E+00  9.153932104E+00 -4.692460513E+00  1.142493680E+01  0.000000000E+00  0.00000E+00  9.000E+00
#rwgt            1           1   3.0853000633128853E-002           4      130907           0
</event>
<event>
      5   9999  3.19816E-02  5.45765E+01 -1.00000E+00  1.36940E-01
      21    -1     0     0   502   512  0.000000000E+00  0.000000000E+00  6.093378829E+01  6.093378829E+01  0.000000000E+00  0.00000E+00  9.000E+00
      21    -1     0     0   501   502  0.000000000E+00  0.000000000E+00 -1.707370789E+03  1.707370789E+03  0.000000000E+00  0.00000E+00  9.000E+00
      25     1     1     2     0     0  9.131646838E+01  1.649187089E+02 -4.713237895E+02  5.227886691E+02  1.250000000E+02  0.00000E+00  9.000E+00
      25     1     1     2     0     0 -8.808625848E+01 -2.193995333E+02 -1.157761479E+03  1.188247443E+03  1.250000000E+02  0.00000E+00  9.000E+00
      21     1     1     2   501   512 -3.230209901E+00  5.448082439E+01 -1.735173234E+01  5.726846513E+01  8.920806376E-07  0.00000E+00  9.000E+00
#rwgt            1           1   3.1119887244661172E-002           4      131078           0
</event>
<event>
      5   9999  3.19816E-02  4.07491E+01 -1.00000E+00  1.44342E-01
      21    -1     0     0   502   501  0.000000000E+00  0.000000000E+00  1.016759319E+03  1.016759319E+03  0.000000000E+00  0.00000E+00  9.000E+00
      21    -1     0     0   501   511  0.000000000E+00  0.000000000E+00 -1.643670712E+02  1.643670712E+02  0.000000000E+00  0.00000E+00  9.000E+00
      25     1     1     2     0     0 -1.046657621E+02  3.025113348E+02  5.689229730E+02  6.646550825E+02  1.250000000E+02  0.00000E+00  9.000E+00
      25     1     1     2     0     0  1.381115721E+02 -2.792332382E+02  3.185080350E+02  4.627292687E+02  1.250000000E+02  0.00000E+00  9.000E+00
      21     1     1     2   502   511 -3.344580999E+01 -2.327809656E+01 -3.503876052E+01  5.374203870E+01  6.743495762E-07  0.00000E+00  9.000E+00
#rwgt            1           1   2.9627034028425935E-002           4      131155           0
</event>
<event>
      5   9999  3.19816E-02  4.74400E+01 -1.00000E+00  1.40390E-01
      21    -1     0     0   502   501  0.000000000E+00  0.000000000E+00  1.213762371E+03  1.213762371E+03  0.000000000E+00  0.00000E+00  9.000E+00
      21    -1     0     0   501   512  0.000000000E+00  0.000000000E+00 -4.567237462E+01  4.567237462E+01  0.000000000E+00  0.00000E+00  9.000E+00
      25     1     1     2     0     0  1.355345143E+02  3.329328822E+01  6.406485415E+02  6.674830345E+02  1.250000000E+02  0.00000E+00  9.000E+00
      25     1     1     2     0     0 -1.682723932E+02  1.040125401E+00  4.847418943E+02  5.281253490E+02  1.250000000E+02  0.00000E+00  9.000E+00
      21     1     1     2   502   512  3.273787893E+01 -3.433341362E+01  4.269956012E+01  6.382636165E+01  1.784161275E-06  0.00000E+00  9.000E+00
#rwgt            1           1   3.6906410705596387E-002           4      131316           0
</event>
<event>
      5   9999  3.19816E-02  3.06685E+01 -1.00000E+00  1.52378E-01
      21    -1     0     0   511   501  0.000000000E+00  0.000000000E+00  6.191225447E+02  6.191225447E+02  0.000000000E+00  0.00000E+00  9.000E+00
      21    -1     0     0   501   502  0.000000000E+00  0.000000000E+00 -8.784477857E+02  8.784477857E+02  0.000000000E+00  0.00000E+00  9.000E+00
      25     1     1     2     0     0 -1.477150718E+02 -5.312120178E+01 -2.963357071E+02  3.578846962E+02  1.250000000E+02  0.00000E+00  9.000E+00
      25     1     1     2     0     0  1.207609098E+02  3.849133201E+01 -5.365477251E+02  5.653080941E+02  1.250000000E+02  0.00000E+00  9.000E+00
      21     1     1     2   511   502  2.695416201E+01  1.462986977E+01  5.735581912E+02  5.743775401E+02  7.629394531E-06  0.00000E+00  9.000E+00
#rwgt            1           1   2.5096312523743700E-002           4      131399           0
</event>
<event>
      5   9999  3.19816E-02  7.55639E+01 -1.00000E+00  1.29560E-01
      21    -1     0     0   502   512  0.000000000E+00  0.000000000E+00  1.238159753E+03  1.238159753E+03  0.000000000E+00  0.00000E+00  9.000E+00
      21    -1     0     0   501   502  0.000000000E+00  0.000000000E+00 -9.737811373E+01  9.737811373E+01  0.000000000E+00  0.00000E+00  9.000E+00
      25     1     1     2     0     0 -1.116727718E+02 -2.194483435E+02  4.041270754E+02  4.894610061E+02  1.250000000E+02  0.00000E+00  9.000E+00
      25     1     1     2     0     0  1.117824554E+02  2.950121929E+02  5.757336250E+02  6.682976270E+02  1.250000000E+02  0.00000E+00  9.000E+00
      21     1     1     2   501   512 -1.096835796E-01 -7.556384938E+01  1.609209393E+02  1.777792341E+02  2.697398305E-06  0.00000E+00  9.000E+00
#rwgt            1           1   3.2392638410326045E-002           4      131461           0
</event>
<event>
      5   9999  3.19816E-02  3.63013E+01 -1.00000E+00  1.47503E-01
      21    -1     0     0   502   501  0.000000000E+00  0.000000000E+00  3.160871934E+02  3.160871934E+02  0.000000000E+00  0.00000E+00  9.000E+00
      21    -1     0     0   511   502  0.000000000E+00  0.000000000E+00 -2.615234851E+02  2.615234851E+02  0.000000000E+00  0.00000E+00  9.000E+00
      25     1     1     2     0     0  1.913004010E+02 -8.673258241E+01  3.372911990E+01  2.467408312E+02  1.250000000E+02  0.00000E+00  9.000E+00
      25     1     1     2     0     0 -2.203707013E+02  1.084743587E+02  5.498383561E+01  2.810305227E+02  1.250000000E+02  0.00000E+00  9.000E+00
      21     1     1     2   511   501  2.907030033E+01 -2.174177630E+01 -3.414924722E+01  4.983932467E+01  8.259061849E-07  0.00000E+00  9.000E+00
#rwgt            1           1   2.5336764663777708E-002           4      131613           0
</event>
<event>
      5   9999  3.19816E-02  5.69690E+01 -1.00000E+00  1.35918E-01
      21    -1     0     0   512   501  0.000000000E+00  0.000000000E+00  8.889619139E+02  8.889619139E+02  0.000000000E+00  0.00000E+00  9.000E+00
      21    -1     0     0   501   502  0.000000000E+00  0.000000000E+00 -4.569543801E+02  4.569543801E+02  0.000000000E+00  0.00000E+00  9.000E+00
      25     1     1     2     0     0  9.483594037E+01 -4.455180326E+01  7.515676464E+02  7.690628361E+02  1.250000000E+02  0.00000E+00  9.000E+00
      25     1     1     2     0     0 -1.285349671E+02  9.048478030E+01 -4.176457771E+02  4.634239187E+02  1.250000000E+02  0.00000E+00  9.000E+00
      21     1     1     2   512   502  3.369902669E+01 -4.593297704E+01  9.808566455E+01  1.134295392E+02  0.000000000E+00  0.00000E+00  9.000E+00
#rwgt            1           1   3.1332735048880907E-002           4      131764           0
</event>
<event>
      5   9999  3.19816E-02  1.00815E+02 -1.00000E+00  1.23670E-01
      21    -1     0     0   502   501  0.000000000E+00  0.000000000E+00  9.147592907E+01  9.147592907E+01  0.000000000E+00  0.00000E+00  9.000E+00
      21    -1     0     0   501   511  0.000000000E+00  0.000000000E+00 -8.193255614E+02  8.193255614E+02  0.000000000E+00  0.00000E+00  9.000E+00
      25     1     1     2     0     0 -1.443399229E+02  3.157167375E+01 -1.864360510E+02  2.687269712E+02  1.250000000E+02  0.00000E+00  9.000E+00
      25     1     1     2     0     0  1.338785037E+02 -1.318420518E+02 -2.662668060E+02  3.490398148E+02  1.250000000E+02  0.00000E+00  9.000E+00
      21     1     1     2   502   511  1.046141924E+01  1.002703781E+02 -2.751467754E+02  2.930347044E+02  3.814697266E-06  0.00000E+00  9.000E+00
#rwgt            1           1   1.6475222560596449E-002           4      131860           0
</event>
<event>
      5   9999  3.19816E-02  4.42396E+01 -1.00000E+00  1.42178E-01
      21    -1     0     0   502   501  0.000000000E+00  0.000000000E+00  1.452038492E+03  1.452038492E+03  0.000000000E+00  0.00000E+00  9.000E+00
      21    -1     0     0   501   512  0.000000000E+00  0.000000000E+00 -1.958828368E+02  1.958828368E+02  0.000000000E+00  0.00000E+00  9.000E+00
      25     1     1     2     0     0 -4.432248593E+02 -6.433213573E+01  9.328010596E+02  1.042271422E+03  1.250000000E+02  0.00000E+00  9.000E+00
      25     1     1     2     0     0  4.371847959E+02  1.081575124E+02  3.025071937E+02  5.567442820E+02  1.250000000E+02  0.00000E+00  9.000E+00
      21     1     1     2   502   512  6.040063365E+00 -4.382537669E+01  2.084740175E+01  4.890562511E+01  5.331201500E-07  0.00000E+00  9.000E+00
#rwgt            1           1   3.1199420686683802E-002           4      131906           0
</event>
<event>
      5   9999  3.19816E-02  2.97828E+02 -1.00000E+00  1.05695E-01
      21    -1     0     0   511   501  0.000000000E+00  0.000000000E+00  3.301533318E+02  3.301533318E+02  0.000000000E+00  0.00000E+00  9.000E+00
      21    -1     0     0   501   502  0.000000000E+00  0.000000000E+00 -1.476077026E+03  1.476077026E+03  0.000000000E+00  0.00000E+00  9.000E+00
      25     1     1     2     0     0 -3.802206556E+02  4.276732292E+01 -4.784539246E+02  6.252519083E+02  1.250000000E+02  0.00000E+00  9.000E+00
      25     1     1     2     0     0  6.347904628E+02 -1.973491075E+02 -4.592720528E+02  8.175948999E+02  1.250000000E+02  0.00000E+00  9.000E+00
      21     1     1     2   511   502 -2.545698072E+02  1.545817846E+02 -2.081977169E+02  3.633835497E+02  3.814697266E-06  0.00000E+00  9.000E+00
#rwgt            1           1   2.7587799012935472E-002           4      132014           0
</event>
<event>
      5   9999  3.19816E-02  1.37323E+02 -1.00000E+00  1.17934E-01
      21    -1     0     0   512   501  0.000000000E+00  0.000000000E+00  3.921134466E+02  3.921134466E+02  0.000000000E+00  0.00000E+00  9.000E+00
      21    -1     0     0   501   502  0.000000000E+00  0.000000000E+00 -1.322550719E+03  1.322550719E+03  0.000000000E+00  0.00000E+00  9.000E+00
      25     1     1     2     0     0 -2.744379496E+02  3.378896498E+02 -1.077438576E+03  1.168753391E+03  1.250000000E+02  0.00000E+00  9.000E+00
      25     1     1     2     0     0  2.284615037E+02 -2.084917391E+02  2.106647892E+02  3.945479912E+02  1.250000000E+02  0.00000E+00  9.000E+00
      21     1     1     2   512   502  4.597644589E+01 -1.293979107E+02 -6.366348568E+01  1.513627837E+02  2.939421655E-06  0.00000E+00  9.000E+00
#rwgt            1           1   1.8036160398490708E-002           4      132050           0
</event>
<event>
      5   9999  3.28407E-02  2.45586E+01 -1.00000E+00  1.59333E-01
      21    -1     0     0   502   511  0.000000000E+00  0.000000000E+00  3.785323867E+03  3.785323867E+03  0.000000000E+00  0.00000E+00  9.000E+00
      21    -1     0     0   501   502  0.000000000E+00  0.000000000E+00 -7.825674424E+01  7.825674424E+01  0.000000000E+00  0.00000E+00  9.000E+00
      25     1     1     2     0     0 -1.152220108E+02  3.892261359E+02  1.469718866E+03  1.529860007E+03  1.250000000E+02  0.00000E+00  9.000E+00
      25     1     1     2     0     0  9.100672099E+01 -3.851341292E+02  8.475326918E+02  9.436880758E+02  1.250000000E+02  0.00000E+00  9.000E+00
      21     1     1     2   501   511  2.421528982E+01 -4.092006728E+00  1.389815565E+03  1.390032528E+03  2.157918644E-05  0.00000E+00  9.000E+00
#rwgt            1           1   8.9958201427438197E-002           4      132120           0
</event>
<event>
      5   9999  3.19816E-02  1.41321E+01 -1.00000E+00  1.79857E-01
      21    -1     0     0   502   512  0.000000000E+00  0.000000000E+00  8.855961229E+01  8.855961229E+01  0.000000000E+00  0.00000E+00  9.000E+00
      21    -1     0     0   501   502  0.000000000E+00  0.000000000E+00 -7.822262658E+02  7.822262658E+02  0.000000000E+00  0.00000E+00  9.000E+00
      25     1     1     2     0     0 -1.013179460E+02 -1.626804393E+02 -3.018457833E+02  3.787692284E+02  1.250000000E+02  0.00000E+00  9.000E+00
      25     1     1     2     0     0  1.114561472E+02  1.528349963E+02 -4.102855240E+02  4.687645678E+02  1.250000000E+02  0.00000E+00  9.000E+00
      21     1     1     2   501   512 -1.013820116E+01  9.845442982E+00  1.846465376E+01  2.325208182E+01  4.768371582E-07  0.00000E+00  9.000E+00
#rwgt            1           1   2.7168409989792707E-002           4      132305           0
</event>
<event>
      5   9999  3.19816E-02  1.15362E+02 -1.00000E+00  1.21099E-01
      21    -1     0     0   502   501  0.000000000E+00  0.000000000E+00  3.366205256E+02  3.366205256E+02  0.000000000E+00  0.00000E+00  9.000E+00
      21    -1     0     0   511   502  0.000000000E+00  0.000000000E+00 -9.523052208E+02  9.523052208E+02  0.000000000E+00  0.00000E+00  9.000E+00
      25     1     1     2     0     0  5.132669616E+00  3.112174372E+02  8.587996905E+01  3.462412549E+02  1.250000000E+02  0.00000E+00  9.000E+00
      25     1     1     2     0     0  8.590871604E+01 -2.403665479E+02 -5.955578724E+01  2.903933137E+02  1.250000000E+02  0.00000E+00  9.000E+00
      21     1     1     2   511   501 -9.104138566E+01 -7.085088935E+01 -6.420088770E+02  6.522911777E+02  1.078959322E-05  0.00000E+00  9.000E+00
#rwgt            1           1   2.7370619832924461E-002           4      132531           0
</event>
<event>
      5   9999  3.19816E-02  1.34813E+02 -1.00000E+00  1.18261E-01
      21    -1     0     0   502   501  0.000000000E+00  0.000000000E+00  1.459990413E+03  1.459990413E+03  0.000000000E+00  0.00000E+00  9.000E+00
       2    -1     0     0   501     0  0.000000000E+00  0.000000000E+00 -6.764871825E+02  6.764871825E+02  0.000000000E+00  0.00000E+00  9.000E+00
      25     1     1     2     0     0 -7.771807365E+01 -6.901467265E+02 -2.863990039E+02  7.615720534E+02  1.250000000E+02  0.00000E+00  9.000E+00
      25     1     1     2     0     0  1.951589594E+02  6.239489886E+02  1.043231483E+03  1.237479813E+03  1.250000000E+02  0.00000E+00  9.000E+00
       2     1     1     2   502     0 -1.174408858E+02  6.619773791E+01  2.667075147E+01  1.374257295E+02  2.958696758E-06  0.00000E+00  9.000E+00
#rwgt            1           1   3.5262598040086565E-002           4      132656           0
</event>
<event>
      5   9999  3.19816E-02  1.49960E+01 -1.00000E+00  1.77394E-01
      21    -1     0     0   502   511  0.000000000E+00  0.000000000E+00  3.339551849E+01  3.339551849E+01  0.000000000E+00  0.00000E+00  9.000E+00
      21    -1     0     0   501   502  0.000000000E+00  0.000000000E+00 -1.155309272E+03  1.155309272E+03  0.000000000E+00  0.00000E+00  9.000E+00
      25     1     1     2     0     0 -2.842109085E+01  9.279050039E+01 -8.748793881E+02  8.890763629E+02  1.250000000E+02  0.00000E+00  9.000E+00
      25     1     1     2     0     0  1.490706251E+01 -8.629040593E+01 -2.094050155E+02  2.591210435E+02  1.250000000E+02  0.00000E+00  9.000E+00
      21     1     1     2   501   511  1.351402834E+01 -6.500094458E+00 -3.762934972E+01  4.050738390E+01  4.768371582E-07  0.00000E+00  9.000E+00
#rwgt            1           1   3.7871670779242278E-002           4      132764           0
</event>
<event>
      5   9999  3.19816E-02  1.42448E+03 -1.00000E+00  8.74485E-02
      21    -1     0     0   502   501  0.000000000E+00  0.000000000E+00  8.396220463E+02  8.396220463E+02  0.000000000E+00  0.00000E+00  9.000E+00
       2    -1     0     0   501     0  0.000000000E+00  0.000000000E+00 -4.428508468E+03  4.428508468E+03  0.000000000E+00  0.00000E+00  9.000E+00
      25     1     1     2     0     0  8.116306239E+01 -5.185539057E+01  1.504583888E+02  2.180347472E+02  1.250000000E+02  0.00000E+00  9.000E+00
      25     1     1     2     0     0 -9.912960963E+02 -1.043953567E+03 -5.306015848E+02  1.539373263E+03  1.250000000E+02  0.00000E+00  9.000E+00
       2     1     1     2   502     0  9.101330339E+02  1.095808958E+03 -3.208743226E+03  3.510722504E+03  4.315837288E-05  0.00000E+00  9.000E+00
#rwgt            2          13   1.3135494198271537E-003           4      133200           0
</event>
<event>
      5   9999  3.19816E-02  9.54226E+01 -1.00000E+00  1.24750E-01
      21    -1     0     0   502   501  0.000000000E+00  0.000000000E+00  7.313937239E+02  7.313937239E+02  0.000000000E+00  0.00000E+00  9.000E+00
      21    -1     0     0   501   511  0.000000000E+00  0.000000000E+00 -9.542478189E+02  9.542478189E+02  0.000000000E+00  0.00000E+00  9.000E+00
      25     1     1     2     0     0 -6.101597854E+02 -3.117194647E+02 -3.624309372E+02  7.851402248E+02  1.250000000E+02  0.00000E+00  9.000E+00
      25     1     1     2     0     0  6.918091528E+02  2.623347431E+02  2.131037029E+02  7.800369283E+02  1.250000000E+02  0.00000E+00  9.000E+00
      21     1     1     2   502   511 -8.164936746E+01  4.938472162E+01 -7.352686064E+01  1.204643896E+02  1.348699152E-06  0.00000E+00  9.000E+00
#rwgt            1           1   2.4872171268671844E-002           4      133234           0
</event>
<event>
      5   9999  3.19816E-02  4.05465E+01 -1.00000E+00  1.44476E-01
       3    -1     0     0   502     0  0.000000000E+00  0.000000000E+00  1.057274052E+03  1.057274052E+03  0.000000000E+00  0.00000E+00  9.000E+00
      21    -1     0     0   501   502  0.000000000E+00  0.000000000E+00 -2.760514887E+02  2.760514887E+02  0.000000000E+00  0.00000E+00  9.000E+00
      25     1     1     2     0     0 -3.024185427E+02  1.317173316E+02 -2.864461872E+00  3.527600254E+02  1.250000000E+02  0.00000E+00  9.000E+00
      25     1     1     2     0     0  2.844592159E+02 -9.536517567E+01  1.731088991E+02  3.682434700E+02  1.250000000E+02  0.00000E+00  9.000E+00
       3     1     1     2   501     0  1.795932674E+01 -3.635215596E+01  6.109781265E+02  6.123220457E+02  7.629394531E-06  0.00000E+00  9.000E+00
#rwgt            1           1   3.0482965863635140E-002           4      133345           0
</event>
<event>
      5   9999  3.19816E-02  6.71316E+01 -1.00000E+00  1.32148E-01
      21    -1     0     0   502   501  0.000000000E+00  0.000000000E+00  1.563001419E+03  1.563001419E+03  0.000000000E+00  0.00000E+00  9.000E+00
       2    -1     0     0   501     0  0.000000000E+00  0.000000000E+00 -9.519301211E+02  9.519301211E+02  0.000000000E+00  0.00000E+00  9.000E+00
      25     1     1     2     0     0 -1.279678318E+02 -1.148890860E+02 -5.323198657E+01  2.191664035E+02  1.250000000E+02  0.00000E+00  9.000E+00
      25     1     1     2     0     0  7.033559112E+01  1.493154680E+02  1.471392920E+03  1.485888397E+03  1.250000000E+02  0.00000E+00  9.000E+00
       2     1     1     2   502     0  5.763224067E+01 -3.442638200E+01 -8.070896362E+02  8.098767386E+02  1.078959322E-05  0.00000E+00  9.000E+00
#rwgt            1           1   3.0315881435017726E-002           4      133460           0
</event>
<event>
      5   9999  3.19816E-02  1.91273E+01 -1.00000E+00  1.67984E-01
      21    -1     0     0   502   501  0.000000000E+00  0.000000000E+00  2.346072498E+02  2.346072498E+02  0.000000000E+00  0.00000E+00  9.000E+00
      21    -1     0     0   501   511  0.000000000E+00  0.000000000E+00 -1.499622844E+03  1.499622844E+03  0.000000000E+00  0.00000E+00  9.000E+00
      25     1     1     2     0     0 -3.479137057E+02 -3.226747977E+02 -2.610519453E+02  5.558201956E+02  1.250000000E+02  0.00000E+00  9.000E+00
      25     1     1     2     0     0  3.657266798E+02  3.296427896E+02 -6.548782751E+02  8.288008978E+02  1.250000000E+02  0.00000E+00  9.000E+00
      21     1     1     2   502   511 -1.781297412E+01 -6.967991908E+00 -3.490853742E+02  3.496090007E+02  0.000000000E+00  0.00000E+00  9.000E+00
#rwgt            1           1   2.9249005074541250E-002           4      133547           0
</event>
<event>
      5   9999  3.19816E-02  1.16086E+02 -1.00000E+00  1.20983E-01
      21    -1     0     0   502   501  0.000000000E+00  0.000000000E+00  6.311617093E+02  6.311617093E+02  0.000000000E+00  0.00000E+00  9.000E+00
      21    -1     0     0   512   502  0.000000000E+00  0.000000000E+00 -3.216214103E+02  3.216214103E+02  0.000000000E+00  0.00000E+00  9.000E+00
      25     1     1     2     0     0  2.586690817E+02  1.382247628E+02  2.128196535E+02  3.833183844E+02  1.250000000E+02  0.00000E+00  9.000E+00
      25     1     1     2     0     0 -3.601191730E+02 -1.946503256E+02  1.323848677E+02  4.480237953E+02  1.250000000E+02  0.00000E+00  9.000E+00
      21     1     1     2   512   501  1.014500912E+02  5.642556287E+01 -3.566422217E+01  1.214409400E+02  1.907348633E-06  0.00000E+00  9.000E+00
#rwgt            1           1   2.8927469729929697E-002           4      133690           0
</event>
<event>
      5   9999  3.19816E-02  2.73025E+02 -1.00000E+00  1.06939E-01
      21    -1     0     0   502   501  0.000000000E+00  0.000000000E+00  5.713056197E+02  5.713056197E+02  0.000000000E+00  0.00000E+00  9.000E+00
       2    -1     0     0   501     0  0.000000000E+00  0.000000000E+00 -2.334455164E+03  2.334455164E+03  0.000000000E+00  0.00000E+00  9.000E+00
      25     1     1     2     0     0 -3.984864724E+02  1.010661225E+02 -1.848475031E+02  4.677600124E+02  1.250000000E+02  0.00000E+00  9.000E+00
      25     1     1     2     0     0  2.200191625E+02  1.055546435E+02  3.756489958E+02  4.650670734E+02  1.250000000E+02  0.00000E+00  9.000E+00
       2     1     1     2   502     0  1.784673099E+02 -2.066207660E+02 -1.953951037E+03  1.972933698E+03  0.000000000E+00  0.00000E+00  9.000E+00
#rwgt            1           1   3.0658995751253113E-002           4      133748           0
</event>
<event>
      5   9999  3.19816E-02  3.19222E+01 -1.00000E+00  1.51190E-01
      21    -1     0     0   502   501  0.000000000E+00  0.000000000E+00  3.646651107E+02  3.646651107E+02  0.000000000E+00  0.00000E+00  9.000E+00
      21    -1     0     0   511   502  0.000000000E+00  0.000000000E+00 -3.520686973E+03  3.520686973E+03  0.000000000E+00  0.00000E+00  9.000E+00
      25     1     1     2     0     0  8.843377615E+02  3.143810653E+02 -5.224432208E+02  1.081416039E+03  1.250000000E+02  0.00000E+00  9.000E+00
      25     1     1     2     0     0 -8.673265633E+02 -2.873690714E+02 -2.454369636E+03  2.621906112E+03  1.250000000E+02  0.00000E+00  9.000E+00
      21     1     1     2   511   501 -1.701119816E+01 -2.701199391E+01 -1.792090052E+02  1.820299322E+02  3.303624740E-06  0.00000E+00  9.000E+00
#rwgt            1           1   6.2695934174977333E-002           4      133835           0
</event>
<event>
      5   9999  3.19816E-02  5.82028E+01 -1.00000E+00  1.35413E-01
      21    -1     0     0   502   501  0.000000000E+00  0.000000000E+00  2.645246430E+02  2.645246430E+02  0.000000000E+00  0.00000E+00  9.000E+00
      21    -1     0     0   501   512  0.000000000E+00  0.000000000E+00 -3.209498667E+02  3.209498667E+02  0.000000000E+00  0.00000E+00  9.000E+00
      25     1     1     2     0     0 -3.553879651E+01  8.220555499E+01 -1.555304038E+02  2.187132045E+02  1.250000000E+02  0.00000E+00  9.000E+00
      25     1     1     2     0     0  2.392630761E+01 -1.392381160E+02  1.842065603E+02  2.636603459E+02  1.250000000E+02  0.00000E+00  9.000E+00
      21     1     1     2   502   512  1.161248891E+01  5.703256104E+01 -8.510138013E+01  1.031009593E+02  1.907348633E-06  0.00000E+00  9.000E+00
#rwgt            1           1   2.5076694062733683E-002           4      134022           0
</event>
<event>
      5   9999  3.19816E-02  6.27456E+02 -1.00000E+00  9.61290E-02
      21    -1     0     0   502   501  0.000000000E+00  0.000000000E+00  2.196275410E+03  2.196275410E+03  0.000000000E+00  0.00000E+00  9.000E+00
       2    -1     0     0   501     0  0.000000000E+00  0.000000000E+00 -1.542420310E+03  1.542420310E+03  0.000000000E+00  0.00000E+00  9.000E+00
      25     1     1     2     0     0 -3.613552963E+01  1.054221911E+03 -5.920414294E+02  1.216070585E+03  1.250000000E+02  0.00000E+00  9.000E+00
      25     1     1     2     0     0 -5.792586306E+02 -9.317822176E+02  1.485505076E+03  1.850975147E+03  1.250000000E+02  0.00000E+00  9.000E+00
       2     1     1     2   502     0  6.153941602E+02 -1.224396932E+02 -2.396085469E+02  6.716499882E+02  8.529922400E-06  0.00000E+00  9.000E+00
#rwgt            1           1   4.7041526470798012E-002           4      134132           0
</event>
<event>
      5   9999  3.19816E-02  8.52253E+01 -1.00000E+00  1.27033E-01
      21    -1     0     0   502   501  0.000000000E+00  0.000000000E+00  3.067309848E+02  3.067309848E+02  0.000000000E+00  0.00000E+00  9.000E+00
      21    -1     0     0   501   511  0.000000000E+00  0.000000000E+00 -1.256320639E+03  1.256320639E+03  0.000000000E+00  0.00000E+00  9.000E+00
      25     1     1     2     0     0  4.762878020E+02 -4.890778133E+01 -7.416931106E+02  8.916141047E+02  1.250000000E+02  0.00000E+00  9.000E+00
      25     1     1     2     0     0 -4.760362101E+02  1.341327295E+02 -7.796348823E+01  5.160478349E+02  1.250000000E+02  0.00000E+00  9.000E+00
      21     1     1     2   502   511 -2.515919412E-01 -8.522494816E+01 -1.299330554E+02  1.553896843E+02  0.000000000E+00  0.00000E+00  9.000E+00
#rwgt            1           1   3.0978186675551807E-002           4      134195           0
</event>
<event>
      5   9999  3.19816E-02  2.14504E+01 -1.00000E+00  1.63899E-01
      21    -1     0     0   502   512  0.000000000E+00  0.000000000E+00  7.857245916E+01  7.857245916E+01  0.000000000E+00  0.00000E+00  9.000E+00
      21    -1     0     0   501   502  0.000000000E+00  0.000000000E+00 -4.496309848E+02  4.496309848E+02  0.000000000E+00  0.00000E+00  9.000E+00
      25     1     1     2     0     0  3.629660681E+01  1.035985768E+02 -2.054437961E+02  2.643525338E+02  1.250000000E+02  0.00000E+00  9.000E+00
      25     1     1     2     0     0 -3.171728177E+01 -1.245545199E+02 -1.628767178E+02  2.422264222E+02  1.250000000E+02  0.00000E+00  9.000E+00
      21     1     1     2   501   512 -4.579325047E+00  2.095594311E+01 -2.738011717E+00  2.162448792E+01  2.747638362E-07  0.00000E+00  9.000E+00
#rwgt            1           1   2.6608654220629309E-002           4      134289           0
</event>
<event>
      5   9999  3.19816E-02  3.17349E+01 -1.00000E+00  1.51363E-01
      21    -1     0     0   511   501  0.000000000E+00  0.000000000E+00  1.353652061E+02  1.353652061E+02  0.000000000E+00  0.00000E+00  9.000E+00
      21    -1     0     0   501   502  0.000000000E+00  0.000000000E+00 -9.349717142E+02  9.349717142E+02  0.000000000E+00  0.00000E+00  9.000E+00
      25     1     1     2     0     0  2.682495676E+02 -1.190787643E+02 -4.537435369E+02  5.546582551E+02  1.250000000E+02  0.00000E+00  9.000E+00
      25     1     1     2     0     0 -2.996608943E+02  1.235986821E+02 -3.336190758E+02  4.816637556E+02  1.250000000E+02  0.00000E+00  9.000E+00
      21     1     1     2   511   502  3.141132663E+01 -4.519917865E+00 -1.224389549E+01  3.401490959E+01  4.768371582E-07  0.00000E+00  9.000E+00
#rwgt            1           1   2.8288489456006025E-002           4      134446           0
</event>
<event>
      5   9999  3.19816E-02  5.46007E+01 -1.00000E+00  1.36929E-01
      21    -1     0     0   502   512  0.000000000E+00  0.000000000E+00  1.309379017E+03  1.309379017E+03  0.000000000E+00  0.00000E+00  9.000E+00
      21    -1     0     0   501   502  0.000000000E+00  0.000000000E+00 -7.201536391E+01  7.201536391E+01  0.000000000E+00  0.00000E+00  9.000E+00
      25     1     1     2     0     0  1.101589563E+02 -1.904835221E+02  2.523118734E+02  3.573587124E+02  1.250000000E+02  0.00000E+00  9.000E+00
      25     1     1     2     0     0 -1.238412733E+02  1.376249723E+02  8.347457378E+02  8.641196333E+02  1.250000000E+02  0.00000E+00  9.000E+00
      21     1     1     2   501   512  1.368231703E+01  5.285854982E+01  1.503060424E+02  1.599160357E+02  0.000000000E+00  0.00000E+00  9.000E+00
#rwgt            1           1   2.9250590678609141E-002           4      134559           0
</event>
<event>
      5   9999  3.19816E-02  2.45060E+02 -1.00000E+00  1.08527E-01
      21    -1     0     0   502   501  0.000000000E+00  0.000000000E+00  9.989501080E+02  9.989501080E+02  0.000000000E+00  0.00000E+00  9.000E+00
      21    -1     0     0   501   511  0.000000000E+00  0.000000000E+00 -2.432210515E+02  2.432210515E+02  0.000000000E+00  0.00000E+00  9.000E+00
      25     1     1     2     0     0 -2.205708363E+01  1.231036840E+02 -8.931518315E+01  1.980990507E+02  1.250000000E+02  0.00000E+00  9.000E+00
      25     1     1     2     0     0 -1.100328173E+02  8.331011846E+01  7.633820594E+02  7.857639374E+02  1.250000000E+02  0.00000E+00  9.000E+00
      21     1     1     2   502   511  1.320899009E+02 -2.064138024E+02  8.166218021E+01  2.583081714E+02  3.693564745E-06  0.00000E+00  9.000E+00
#rwgt            2          11   3.7722686073891703E-003           4      134777           0
</event>
<event>
      5   9999  3.19816E-02  4.13045E+01 -1.00000E+00  1.43981E-01
      21    -1     0     0   502   501  0.000000000E+00  0.000000000E+00  1.984457023E+02  1.984457023E+02  0.000000000E+00  0.00000E+00  9.000E+00
      21    -1     0     0   512   502  0.000000000E+00  0.000000000E+00 -1.101328196E+03  1.101328196E+03  0.000000000E+00  0.00000E+00  9.000E+00
      25     1     1     2     0     0 -3.061486222E+02  1.555624816E+02 -9.058014512E+01  3.765055474E+02  1.250000000E+02  0.00000E+00  9.000E+00
      25     1     1     2     0     0  3.244591931E+02 -1.925866311E+02 -7.404808428E+02  8.404167163E+02  1.250000000E+02  0.00000E+00  9.000E+00
      21     1     1     2   512   501 -1.831057097E+01  3.702414946E+01 -7.182150611E+01  8.285163482E+01  0.000000000E+00  0.00000E+00  9.000E+00
#rwgt            1           1   2.8713542772757870E-002           4      134797           0
</event>
<event>
      5   9999  3.19816E-02  5.66572E+01 -1.00000E+00  1.36047E-01
      21    -1     0     0   502   511  0.000000000E+00  0.000000000E+00  6.558174105E+02  6.558174105E+02  0.000000000E+00  0.00000E+00  9.000E+00
      21    -1     0     0   501   502  0.000000000E+00  0.000000000E+00 -1.433455211E+03  1.433455211E+03  0.000000000E+00  0.00000E+00  9.000E+00
      25     1     1     2     0     0 -5.977642722E+02  1.314865347E+02 -1.130590666E+03  1.291693109E+03  1.250000000E+02  0.00000E+00  9.000E+00
      25     1     1     2     0     0  5.676747760E+02 -1.794934352E+02  2.096247461E+02  6.434594616E+02  1.250000000E+02  0.00000E+00  9.000E+00
      21     1     1     2   501   511  3.008949626E+01  4.800690052E+01  1.433281193E+02  1.541200508E+02  1.907348633E-06  0.00000E+00  9.000E+00
#rwgt            1           1   3.3523070151884951E-002           4      134916           0
</event>
<event>
      5   9999  3.19816E-02  2.18038E+02 -1.00000E+00  1.10300E-01
      21    -1     0     0   512   501  0.000000000E+00  0.000000000E+00  7.064594254E+02  7.064594254E+02  0.000000000E+00  0.00000E+00  9.000E+00
      21    -1     0     0   501   502  0.000000000E+00  0.000000000E+00 -3.212682680E+02  3.212682680E+02  0.000000000E+00  0.00000E+00  9.000E+00
      25     1     1     2     0     0 -5.202635248E+01 -8.363763988E+01 -1.838862342E+02  2.431895213E+02  1.250000000E+02  0.00000E+00  9.000E+00
      25     1     1     2     0     0 -7.441211059E+01  2.612720674E+02  4.373046172E+02  5.297740874E+02  1.250000000E+02  0.00000E+00  9.000E+00
      21     1     1     2   512   502  1.264384631E+02 -1.776344275E+02  1.317727743E+02  2.547640847E+02  3.814697266E-06  0.00000E+00  9.000E+00
#rwgt            2          11   3.8497571882172717E-003           4      135127           0
</event>
<event>
      5   9999  3.19816E-02  6.70548E+01 -1.00000E+00  1.32173E-01
      21    -1     0     0   511   501  0.000000000E+00  0.000000000E+00  2.197558950E+02  2.197558950E+02  0.000000000E+00  0.00000E+00  9.000E+00
      21    -1     0     0   501   502  0.000000000E+00  0.000000000E+00 -1.426016239E+03  1.426016239E+03  0.000000000E+00  0.00000E+00  9.000E+00
      25     1     1     2     0     0 -8.106733456E+01 -1.055591408E+02 -2.434535513E+02  3.043177231E+02  1.250000000E+02  0.00000E+00  9.000E+00
      25     1     1     2     0     0  1.335873524E+02  6.386983720E+01 -1.137732630E+03  1.154116750E+03  1.250000000E+02  0.00000E+00  9.000E+00
      21     1     1     2   511   502 -5.252001782E+01  4.168930365E+01  1.749258374E+02  1.873376601E+02  6.031565972E-06  0.00000E+00  9.000E+00
#rwgt            1           1   4.0516000579812389E-002           4      135147           0
</event>
<event>
      5   9999  3.19816E-02  6.53023E+01 -1.00000E+00  1.32767E-01
      21    -1     0     0   502   501  0.000000000E+00  0.000000000E+00  4.515400277E+02  4.515400277E+02  0.000000000E+00  0.00000E+00  9.000E+00
      21    -1     0     0   501   512  0.000000000E+00  0.000000000E+00 -1.734896292E+02  1.734896292E+02  0.000000000E+00  0.00000E+00  9.000E+00
      25     1     1     2     0     0  1.496801231E+02  3.810618544E+01  2.320832369E+02  3.055222569E+02  1.250000000E+02  0.00000E+00  9.000E+00
      25     1     1     2     0     0 -2.023951986E+02 -7.664852238E+01  2.629894046E+01  2.513074744E+02  1.250000000E+02  0.00000E+00  9.000E+00
      21     1     1     2   502   512  5.271507554E+01  3.854233694E+01  1.966822115E+01  6.819992558E+01  1.305872339E-06  0.00000E+00  9.000E+00
#rwgt            1           1   2.6882545074462402E-002           4      135207           0
</event>
<event>
      5   9999  3.19816E-02  5.33610E+01 -1.00000E+00  1.37482E-01
      21    -1     0     0   502   501  0.000000000E+00  0.000000000E+00  4.870352776E+02  4.870352776E+02  0.000000000E+00  0.00000E+00  9.000E+00
      21    -1     0     0   501   511  0.000000000E+00  0.000000000E+00 -3.121575777E+02  3.121575777E+02  0.000000000E+00  0.00000E+00  9.000E+00
      25     1     1     2     0     0 -1.336717722E+01 -1.944703550E+02  1.075107883E+02  2.553056404E+02  1.250000000E+02  0.00000E+00  9.000E+00
      25     1     1     2     0     0 -3.985684339E+01  1.906489593E+02  2.576114538E+02  3.463008154E+02  1.250000000E+02  0.00000E+00  9.000E+00
      21     1     1     2   502   511  5.322402062E+01  3.821395763E+00 -1.902445422E+02  1.975863995E+02  3.814697266E-06  0.00000E+00  9.000E+00
#rwgt            1           1   2.8870404141335671E-002           4      135295           0
</event>
<event>
      5   9999  3.19816E-02  2.92891E+02 -1.00000E+00  1.05931E-01
      21    -1     0     0   502   501  0.000000000E+00  0.000000000E+00  2.518336204E+02  2.518336204E+02  0.000000000E+00  0.00000E+00  9.000E+00
       2    -1     0     0   501     0  0.000000000E+00  0.000000000E+00 -2.161304633E+03  2.161304633E+03  0.000000000E+00  0.00000E+00  9.000E+00
      25     1     1     2     0     0  1.032637161E+02 -1.481027214E+02 -3.241720996E+02  3.915486704E+02  1.250000000E+02  0.00000E+00  9.000E+00
      25     1     1     2     0     0  6.532599543E+00 -1.234303102E+02  1.684977691E+02  2.435040339E+02  1.250000000E+02  0.00000E+00  9.000E+00
       2     1     1     2   502     0 -1.097963157E+02  2.715330316E+02 -1.753796682E+03  1.778085549E+03  3.051757812E-05  0.00000E+00  9.000E+00
#rwgt            2          13   2.9952106565731078E-003           4      135386           0
</event>
<event>
      5   9999  3.19816E-02  5.62882E+00 -1.00000E+00  2.29867E-01
      21    -1     0     0   502   501  0.000000000E+00  0.000000000E+00  2.823365653E+02  2.823365653E+02  0.000000000E+00  0.00000E+00  9.000E+00
      21    -1     0     0   511   502  0.000000000E+00  0.000000000E+00 -2.231948043E+02  2.231948043E+02  0.000000000E+00  0.00000E+00  9.000E+00
      25     1     1     2     0     0 -1.762757668E+02 -3.932900185E+01  1.371649039E+02  2.589577711E+02  1.250000000E+02  0.00000E+00  9.000E+00
      25     1     1     2     0     0  1.818717834E+02  3.993582424E+01 -6.678252447E+01  2.340023958E+02  1.250000000E+02  0.00000E+00  9.000E+00
      21     1     1     2   511   501 -5.596016580E+00 -6.068223897E-01 -1.124061842E+01  1.257120271E+01  1.192092896E-07  0.00000E+00  9.000E+00
#rwgt            1           1   2.7579380533898221E-002           4      135405           0
</event>
<event>
      5   9999  3.19816E-02  1.49709E+02 -1.00000E+00  1.16427E-01
      21    -1     0     0   502   512  0.000000000E+00  0.000000000E+00  5.660703862E+02  5.660703862E+02  0.000000000E+00  0.00000E+00  9.000E+00
      21    -1     0     0   501   502  0.000000000E+00  0.000000000E+00 -1.782605930E+02  1.782605930E+02  0.000000000E+00  0.00000E+00  9.000E+00
      25     1     1     2     0     0  2.902606218E+01  1.037293507E+02 -3.134364096E+01  1.679574777E+02  1.250000000E+02  0.00000E+00  9.000E+00
      25     1     1     2     0     0  1.089467155E+02 -1.618345240E+02  3.263414016E+02  4.002293222E+02  1.250000000E+02  0.00000E+00  9.000E+00
      21     1     1     2   501   512 -1.379727777E+02  5.810517327E+01  9.281203259E+01  1.761441794E+02  3.568322551E-06  0.00000E+00  9.000E+00
#rwgt            1           1   2.8996117156466349E-002           4      135746           0
</event>
<event>
      5   9999  3.19816E-02  1.35146E+02 -1.00000E+00  1.18217E-01
      21    -1     0     0   502   501  0.000000000E+00  0.000000000E+00  4.609602498E+02  4.609602498E+02  0.000000000E+00  0.00000E+00  9.000E+00
      21    -1     0     0   511   502  0.000000000E+00  0.000000000E+00 -6.604703771E+02  6.604703771E+02  0.000000000E+00  0.00000E+00  9.000E+00
      25     1     1     2     0     0 -1.928169634E+02 -1.960204216E+02 -3.979042625E+02  4.995549912E+02  1.250000000E+02  0.00000E+00  9.000E+00
      25     1     1     2     0     0  2.152624518E+02  3.292898501E+02  2.436745965E+02  4.793454260E+02  1.250000000E+02  0.00000E+00  9.000E+00
      21     1     1     2   511   501 -2.244548843E+01 -1.332694284E+02 -4.528046131E+01  1.425302097E+02  2.023048729E-06  0.00000E+00  9.000E+00
#rwgt            1           1   3.0271554282487304E-002           4      135798           0
</event>
<event>
      5   9999  3.19816E-02  7.92087E+01 -1.00000E+00  1.28559E-01
      21    -1     0     0   512   501  0.000000000E+00  0.000000000E+00  1.091341434E+03  1.091341434E+03  0.000000000E+00  0.00000E+00  9.000E+00
      21    -1     0     0   501   502  0.000000000E+00  0.000000000E+00 -1.296381561E+02  1.296381561E+02  0.000000000E+00  0.00000E+00  9.000E+00
      25     1     1     2     0     0 -1.984378195E+02 -1.850223408E+02  1.624819984E+02  3.400532820E+02  1.250000000E+02  0.00000E+00  9.000E+00
      25     1     1     2     0     0  2.087778107E+02  1.064913938E+02  4.474794573E+02  5.203762638E+02  1.250000000E+02  0.00000E+00  9.000E+00
      21     1     1     2   512   502 -1.033999117E+01  7.853094696E+01  3.517418220E+02  3.605500443E+02  5.394796609E-06  0.00000E+00  9.000E+00
#rwgt            1           1   2.6696729155189430E-002           4      135862           0
</event>
<event>
      5   9999  3.19816E-02  2.64917E+01 -1.00000E+00  1.56888E-01
      21    -1     0     0   502   501  0.000000000E+00  0.000000000E+00  2.096439058E+03  2.096439058E+03  0.000000000E+00  0.00000E+00  9.000E+00
      21    -1     0     0   501   511  0.000000000E+00  0.000000000E+00 -5.276123912E+02  5.276123912E+02  0.000000000E+00  0.00000E+00  9.000E+00
      25     1     1     2     0     0 -5.135710860E+02 -8.617872833E+02  5.313969002E+02  1.142120943E+03  1.250000000E+02  0.00000E+00  9.000E+00
      25     1     1     2     0     0  5.291611740E+02  8.403686741E+02  1.051674140E+03  1.451852111E+03  1.250000000E+02  0.00000E+00  9.000E+00
      21     1     1     2   502   511 -1.559008805E+01  2.141860924E+01 -1.424437354E+01  3.007839498E+01  3.769728732E-07  0.00000E+00  9.000E+00
#rwgt            1           1   3.1819536561446184E-002           4      135910           0
</event>
<event>
      5   9999  3.19816E-02  9.13095E+01 -1.00000E+00  1.25630E-01
      21    -1     0     0   512   501  0.000000000E+00  0.000000000E+00  1.403226235E+02  1.403226235E+02  0.000000000E+00  0.00000E+00  9.000E+00
      21    -1     0     0   501   502  0.000000000E+00  0.000000000E+00 -3.881653308E+02  3.881653308E+02  0.000000000E+00  0.00000E+00  9.000E+00
      25     1     1     2     0     0 -5.603562908E+01  7.057077306E+01 -5.804479260E+01  1.646645793E+02  1.250000000E+02  0.00000E+00  9.000E+00
      25     1     1     2     0     0  1.383778907E+02 -1.100319328E+02 -1.542192155E+02  2.658270740E+02  1.250000000E+02  0.00000E+00  9.000E+00
      21     1     1     2   512   502 -8.234226157E+01  3.946115974E+01 -3.557869923E+01  9.799630099E+01  1.719260824E-06  0.00000E+00  9.000E+00
#rwgt            1           1   2.6334652912780421E-002           4      136103           0
</event>
<event>
      5   9999  3.19816E-02  1.57443E+02 -1.00000E+00  1.15566E-01
       1    -1     0     0   502     0  0.000000000E+00  0.000000000E+00  4.597515381E+03  4.597515381E+03  0.000000000E+00  0.00000E+00  9.000E+00
      21    -1     0     0   501   502  0.000000000E+00  0.000000000E+00 -1.178177548E+03  1.178177548E+03  0.000000000E+00  0.00000E+00  9.000E+00
      25     1     1     2     0     0  1.523196451E+03  1.493579198E+03  9.846075757E+02  2.352867044E+03  1.250000000E+02  0.00000E+00  9.000E+00
      25     1     1     2     0     0 -1.559748904E+03 -1.340437565E+03  1.699315757E+03  2.670746816E+03  1.250000000E+02  0.00000E+00  9.000E+00
       1     1     1     2   501     0  3.655245310E+01 -1.531416327E+02  7.354144997E+02  7.520790702E+02  1.525878906E-05  0.00000E+00  9.000E+00
#rwgt            1           1   8.5805663680413435E-003           4      136187           0
</event>
<event>
      5   9999  3.19816E-02  2.58170E+02 -1.00000E+00  1.07755E-01
      21    -1     0     0   511   501  0.000000000E+00  0.000000000E+00  1.575854075E+03  1.575854075E+03  0.000000000E+00  0.00000E+00  9.000E+00
      21    -1     0     0   501   502  0.000000000E+00  0.000000000E+00 -4.479606190E+02  4.479606190E+02  0.000000000E+00  0.00000E+00  9.000E+00
      25     1     1     2     0     0  7.218432952E+00  3.270916208E+02 -2.788728633E+02  4.477009137E+02  1.250000000E+02  0.00000E+00  9.000E+00
      25     1     1     2     0     0 -2.501891437E+02 -2.398175384E+02  1.167022879E+03  1.223795105E+03  1.250000000E+02  0.00000E+00  9.000E+00
      21     1     1     2   511   502  2.429707107E+02 -8.727408241E+01  2.397434403E+02  3.523186752E+02  3.814697266E-06  0.00000E+00  9.000E+00
#rwgt            1           1   2.2516911051709200E-002           4      136282           0
</event>
<event>
      5   9999  3.19816E-02  2.06044E+01 -1.00000E+00  1.65309E-01
      21    -1     0     0   502   501  0.000000000E+00  0.000000000E+00  3.778592052E+03  3.778592052E+03  0.000000000E+00  0.00000E+00  9.000E+00
      21    -1     0     0   501   512  0.000000000E+00  0.000000000E+00 -4.792584814E+01  4.792584814E+01  0.000000000E+00  0.00000E+00  9.000E+00
      25     1     1     2     0     0  7.975253400E+01 -3.695755242E+02  2.164682319E+03  2.201004561E+03  1.250000000E+02  0.00000E+00  9.000E+00
      25     1     1     2     0     0 -7.322779515E+01  3.891195718E+02  1.486055946E+03  1.542972335E+03  1.250000000E+02  0.00000E+00  9.000E+00
      21     1     1     2   502   512 -6.524738844E+00 -1.954404761E+01  7.992793814E+01  8.254100380E+01  1.651812370E-06  0.00000E+00  9.000E+00
#rwgt            1           1   1.4442216426245337E-002           4      136322           0
</event>
<event>
      5   9999  3.19816E-02  1.05845E+02 -1.00000E+00  1.22728E-01
      21    -1     0     0   502   501  0.000000000E+00  0.000000000E+00  9.817377198E+01  9.817377198E+01  0.000000000E+00  0.00000E+00  9.000E+00
       1    -1     0     0   501     0  0.000000000E+00  0.000000000E+00 -1.990377716E+03  1.990377716E+03  0.000000000E+00  0.00000E+00  9.000E+00
      25     1     1     2     0     0 -1.665259092E+02 -6.375648633E+01 -6.048958228E+01  2.260083130E+02  1.250000000E+02  0.00000E+00  9.000E+00
      25     1     1     2     0     0  1.033500155E+02  1.486796630E+02 -1.442899304E+03  1.459578799E+03  1.250000000E+02  0.00000E+00  9.000E+00
       1     1     1     2   502     0  6.317589370E+01 -8.492317667E+01 -3.888150581E+02  4.029643767E+02  5.394796609E-06  0.00000E+00  9.000E+00
#rwgt            1           1   2.9782580659058241E-002           4      136504           0
</event>
<event>
      5   9999  3.19816E-02  1.79178E+01 -1.00000E+00  1.70407E-01
      21    -1     0     0   511   501  0.000000000E+00  0.000000000E+00  1.276533475E+02  1.276533475E+02  0.000000000E+00  0.00000E+00  9.000E+00
      21    -1     0     0   501   502  0.000000000E+00  0.000000000E+00 -5.440982813E+02  5.440982813E+02  0.000000000E+00  0.00000E+00  9.000E+00
      25     1     1     2     0     0 -2.546122340E+01 -2.345120361E+00  7.394341370E+01  1.474666129E+02  1.250000000E+02  0.00000E+00  9.000E+00
      25     1     1     2     0     0  7.560167244E+00  1.570069922E+00 -4.906336802E+02  5.063655097E+02  1.250000000E+02  0.00000E+00  9.000E+00
      21     1     1     2   511   502  1.790105615E+01  7.750504398E-01  2.453327322E-01  1.791950621E+01  1.981770408E-07  0.00000E+00  9.000E+00
#rwgt            1           1   2.7438127208252280E-002           4      136598           0
</event>
<event>
      5   9999  3.19816E-02  3.21710E+01 -1.00000E+00  1.50962E-01
       2    -1     0     0   502     0  0.000000000E+00  0.000000000E+00  1.863690726E+03  1.863690726E+03  0.000000000E+00  0.00000E+00  9.000E+00
      21    -1     0     0   501   502  0.000000000E+00  0.000000000E+00 -5.944100273E+02  5.944100273E+02  0.000000000E+00  0.00000E+00  9.000E+00
      25     1     1     2     0     0  2.206818504E+02  1.009993958E+02  3.597156333E+00  2.730188576E+02  1.250000000E+02  0.00000E+00  9.000E+00
      25     1     1     2     0     0 -1.923484894E+02 -1.162373847E+02 -4.235680829E+02  4.955239568E+02  1.250000000E+02  0.00000E+00  9.000E+00
       2     1     1     2   501     0 -2.833336103E+01  1.523798892E+01  1.689251625E+03  1.689557938E+03  0.000000000E+00  0.00000E+00  9.000E+00
#rwgt            1           1   2.8148899839128869E-002           4      136788           0
</event>
<event>
      5   9999  3.19816E-02  4.55493E+01 -1.00000E+00  1.41426E-01
      21    -1     0     0   502   501  0.000000000E+00  0.000000000E+00  6.151396124E+02  6.151396124E+02  0.000000000E+00  0.00000E+00  9.000E+00
      21    -1     0     0   501   511  0.000000000E+00  0.000000000E+00 -1.373150230E+03  1.373150230E+03  0.000000000E+00  0.00000E+00  9.000E+00
      25     1     1     2     0     0 -2.921655169E+02  6.497471492E+02  2.225047671E+02  7.567466013E+02  1.250000000E+02  0.00000E+00  9.000E+00
      25     1     1     2     0     0  3.163936199E+02 -6.111759888E+02 -9.144314479E+02  1.151282279E+03  1.250000000E+02  0.00000E+00  9.000E+00
      21     1     1     2   502   511 -2.422810306E+01 -3.857116038E+01 -6.608393662E+01  8.026096231E+01  9.536743164E-07  0.00000E+00  9.000E+00
#rwgt            1           1   3.1662621345355267E-002           4      136875           0
</event>
<event>
      5   9999  3.19816E-02  7.93379E+01 -1.00000E+00  1.28524E-01
      21    -1     0     0   502   501  0.000000000E+00  0.000000000E+00  4.484368386E+02  4.484368386E+02  0.000000000E+00  0.00000E+00  9.000E+00
      21    -1     0     0   512   502  0.000000000E+00  0.000000000E+00 -5.454308058E+02  5.454308058E+02  0.000000000E+00  0.00000E+00  9.000E+00
      25     1     1     2     0     0  1.506888647E+02  3.906815107E+02 -1.738289173E+02  4.702984895E+02  1.250000000E+02  0.00000E+00  9.000E+00
      25     1     1     2     0     0 -1.625243459E+02 -3.122313504E+02  1.620216621E+02  4.071591804E+02  1.250000000E+02  0.00000E+00  9.000E+00
      21     1     1     2   512   501  1.183548114E+01 -7.845016025E+01 -8.518671203E+01  1.164099745E+02  1.907348633E-06  0.00000E+00  9.000E+00
#rwgt            1           1   2.6164107039742545E-002           4      137004           0
</event>
<event>
      5   9999  3.19816E-02  6.42206E+01 -1.00000E+00  1.33144E-01
      21    -1     0     0   511   501  0.000000000E+00  0.000000000E+00  1.004050198E+03  1.004050198E+03  0.000000000E+00  0.00000E+00  9.000E+00
      21    -1     0     0   501   502  0.000000000E+00  0.000000000E+00 -5.130648813E+02  5.130648813E+02  0.000000000E+00  0.00000E+00  9.000E+00
      25     1     1     2     0     0 -3.098773895E+02 -4.918312307E+02  1.896827056E+02  6.241205692E+02  1.250000000E+02  0.00000E+00  9.000E+00
      25     1     1     2     0     0  2.995307450E+02  5.552128340E+02  6.301097137E+01  6.462006970E+02  1.250000000E+02  0.00000E+00  9.000E+00
      21     1     1     2   511   502  1.034664445E+01 -6.338160331E+01  2.382916400E+02  2.467938135E+02  0.000000000E+00  0.00000E+00  9.000E+00
#rwgt            1           1   3.1491627485009561E-002           4      137102           0
</event>
<event>
      5   9999  3.19816E-02  4.46769E+01 -1.00000E+00  1.41923E-01
      21    -1     0     0   502   501  0.000000000E+00  0.000000000E+00  2.857294079E+02  2.857294079E+02  0.000000000E+00  0.00000E+00  9.000E+00
      21    -1     0     0   512   502  0.000000000E+00  0.000000000E+00 -2.537571479E+02  2.537571479E+02  0.000000000E+00  0.00000E+00  9.000E+00
      25     1     1     2     0     0  9.378153745E+01  1.286957644E+02  1.312632460E+02  2.412729083E+02  1.250000000E+02  0.00000E+00  9.000E+00
      25     1     1     2     0     0 -1.370372105E+02 -1.398748706E+02 -1.014199227E+02  2.534860494E+02  1.250000000E+02  0.00000E+00  9.000E+00
      21     1     1     2   512   501  4.325567303E+01  1.117910624E+01  2.128936675E+00  4.472759815E+01  6.931843370E-07  0.00000E+00  9.000E+00
#rwgt            2          11   2.7321680639871789E-003           4      137239           0
</event>
<event>
      5   9999  3.19816E-02  4.94827E+02 -1.00000E+00  9.89805E-02
      21    -1     0     0   502   501  0.000000000E+00  0.000000000E+00  6.883823229E+02  6.883823229E+02  0.000000000E+00  0.00000E+00  9.000E+00
      21    -1     0     0   511   502  0.000000000E+00  0.000000000E+00 -7.962560231E+02  7.962560231E+02  0.000000000E+00  0.00000E+00  9.000E+00
      25     1     1     2     0     0 -1.380005757E+02 -3.435653505E+02  4.382186039E+02  5.871472164E+02  1.250000000E+02  0.00000E+00  9.000E+00
      25     1     1     2     0     0 -1.667781596E+02 -4.625960338E+01 -1.226463345E+02  2.462154114E+02  1.250000000E+02  0.00000E+00  9.000E+00
      21     1     1     2   511   501  3.047787353E+02  3.898249539E+02 -4.234459695E+02  6.512757183E+02  7.629394531E-06  0.00000E+00  9.000E+00
#rwgt            2          11   3.1885579588790459E-003           4      137259           0
</event>
<event>
      5   9999  3.19816E-02  1.51134E+02 -1.00000E+00  1.16264E-01
       2    -1     0     0   502     0  0.000000000E+00  0.000000000E+00  3.684773231E+02  3.684773231E+02  0.000000000E+00  0.00000E+00  9.000E+00
      21    -1     0     0   501   502  0.000000000E+00  0.000000000E+00 -9.671317057E+02  9.671317057E+02  0.000000000E+00  0.00000E+00  9.000E+00
      25     1     1     2     0     0  1.094504979E+02  1.554570877E+02 -1.327803875E+02  2.634424964E+02  1.250000000E+02  0.00000E+00  9.000E+00
      25     1     1     2     0     0 -6.469039643E+01 -2.998105859E+02 -7.109068004E+02  7.842733667E+02  1.250000000E+02  0.00000E+00  9.000E+00
       2     1     1     2   501     0 -4.476010151E+01  1.443534982E+02  2.450328054E+02  2.878931656E+02  2.697398305E-06  0.00000E+00  9.000E+00
#rwgt            1           1   2.7599424958206380E-002           4      137279           0
</event>
<event>
      5   9999  3.19816E-02  1.63116E+02 -1.00000E+00  1.14969E-01
      21    -1     0     0   502   501  0.000000000E+00  0.000000000E+00  1.271733025E+02  1.271733025E+02  0.000000000E+00  0.00000E+00  9.000E+00
       2    -1     0     0   501     0  0.000000000E+00  0.000000000E+00 -1.479487137E+03  1.479487137E+03  0.000000000E+00  0.00000E+00  9.000E+00
      25     1     1     2     0     0 -1.294687677E+02 -3.424068186E+01  1.819600850E+01  1.840942173E+02  1.250000000E+02  0.00000E+00  9.000E+00
      25     1     1     2     0     0  7.330682076E+00  1.423561908E+02 -4.596167086E+02  4.971836107E+02  1.250000000E+02  0.00000E+00  9.000E+00
       2     1     1     2   502     0  1.221380856E+02 -1.081155089E+02 -9.108931343E+02  9.253826113E+02  0.000000000E+00  0.00000E+00  9.000E+00
#rwgt            1           1   2.7214784435887832E-002           4      137327           0
</event>
<event>
      5   9999  3.19816E-02  1.30247E+01 -1.00000E+00  1.83363E-01
      21    -1     0     0   511   501  0.000000000E+00  0.000000000E+00  3.544338664E+02  3.544338664E+02  0.000000000E+00  0.00000E+00  9.000E+00
      21    -1     0     0   501   502  0.000000000E+00  0.000000000E+00 -3.712389186E+02  3.712389186E+02  0.000000000E+00  0.00000E+00  9.000E+00
      25     1     1     2     0     0  1.614750192E+02  5.875948599E+01  2.748069419E+02  3.473769053E+02  1.250000000E+02  0.00000E+00  9.000E+00
      25     1     1     2     0     0 -1.572773662E+02 -4.642976410E+01 -2.990884902E+02  3.632778797E+02  1.250000000E+02  0.00000E+00  9.000E+00
      21     1     1     2   511   502 -4.197652996E+00 -1.232972189E+01  7.476496093E+00  1.501800008E+01  2.528810911E-07  0.00000E+00  9.000E+00
#rwgt            1           1   3.0170225756286348E-002           4      137358           0
</event>
<event>
      5   9999  3.19816E-02  6.47869E+01 -1.00000E+00  1.32946E-01
      21    -1     0     0   502   501  0.000000000E+00  0.000000000E+00  1.239178975E+03  1.239178975E+03  0.000000000E+00  0.00000E+00  9.000E+00
      21    -1     0     0   512   502  0.000000000E+00  0.000000000E+00 -6.928316590E+01  6.928316590E+01  0.000000000E+00  0.00000E+00  9.000E+00
      25     1     1     2     0     0 -6.382062578E+00  1.272415367E+02  2.906409568E+02  3.410693553E+02  1.250000000E+02  0.00000E+00  9.000E+00
      25     1     1     2     0     0  5.868923083E+01 -8.901462691E+01  8.870517243E+02  9.021384546E+02  1.250000000E+02  0.00000E+00  9.000E+00
      21     1     1     2   512   501 -5.230716825E+01 -3.822690979E+01 -7.796872120E+00  6.525433087E+01  1.526623782E-06  0.00000E+00  9.000E+00
#rwgt            1           1   2.8964637398536486E-002           4      137596           0
</event>
<event>
      5   9999  3.19816E-02  2.27060E+02 -1.00000E+00  1.09678E-01
      21    -1     0     0   502   501  0.000000000E+00  0.000000000E+00  2.797369847E+02  2.797369847E+02  0.000000000E+00  0.00000E+00  9.000E+00
      21    -1     0     0   511   502  0.000000000E+00  0.000000000E+00 -9.423089120E+02  9.423089120E+02  0.000000000E+00  0.00000E+00  9.000E+00
      25     1     1     2     0     0  1.341638689E+02 -5.398538021E+01 -3.705862143E+02  4.169814231E+02  1.250000000E+02  0.00000E+00  9.000E+00
      25     1     1     2     0     0 -3.381658990E+02 -4.571195884E+01  7.731130254E+01  3.715478380E+02  1.250000000E+02  0.00000E+00  9.000E+00
      21     1     1     2   511   501  2.040020301E+02  9.969733905E+01 -3.692970154E+02  4.335166356E+02  5.394796609E-06  0.00000E+00  9.000E+00
#rwgt            2          11   2.8587713202559888E-003           4      137707           0
</event>
<event>
      5   9999  3.19816E-02  4.24118E+01 -1.00000E+00  1.43281E-01
      21    -1     0     0   502   501  0.000000000E+00  0.000000000E+00  2.409891790E+02  2.409891790E+02  0.000000000E+00  0.00000E+00  9.000E+00
      21    -1     0     0   501   512  0.000000000E+00  0.000000000E+00 -2.685950227E+02  2.685950227E+02  0.000000000E+00  0.00000E+00  9.000E+00
      25     1     1     2     0     0 -2.260144523E+01 -9.340864901E+01 -3.723504928E+01  1.620106476E+02  1.250000000E+02  0.00000E+00  9.000E+00
      25     1     1     2     0     0  6.384827443E+01  1.032809088E+02  1.316423917E+02  2.183993305E+02  1.250000000E+02  0.00000E+00  9.000E+00
      21     1     1     2   502   512 -4.124682920E+01 -9.872259828E+00 -1.220131861E+02  1.291742235E+02  1.348699152E-06  0.00000E+00  9.000E+00
#rwgt            1           1   2.4965083135682870E-002           4      137727           0
</event>
<event>
      5   9999  3.19816E-02  5.47450E+01 -1.00000E+00  1.36866E-01
      21    -1     0     0   511   501  0.000000000E+00  0.000000000E+00  3.426249959E+02  3.426249959E+02  0.000000000E+00  0.00000E+00  9.000E+00
      21    -1     0     0   501   502  0.000000000E+00  0.000000000E+00 -2.317835411E+02  2.317835411E+02  0.000000000E+00  0.00000E+00  9.000E+00
      25     1     1     2     0     0  1.370345612E+02 -9.454501707E+01 -6.728703559E+01  2.187916277E+02  1.250000000E+02  0.00000E+00  9.000E+00
      25     1     1     2     0     0 -1.620688969E+02  1.432306889E+02  1.250428136E+02  2.793600952E+02  1.250000000E+02  0.00000E+00  9.000E+00
      21     1     1     2   511   502  2.503433569E+01 -4.868567180E+01  5.308567685E+01  7.625681405E+01  6.743495762E-07  0.00000E+00  9.000E+00
#rwgt            1           1   2.8570003242870377E-002           4      137812           0
</event>
<event>
      5   9999  3.19816E-02  4.12537E+01 -1.00000E+00  1.44014E-01
      21    -1     0     0   502   501  0.000000000E+00  0.000000000E+00  5.887185242E+02  5.887185242E+02  0.000000000E+00  0.00000E+00  9.000E+00
       2    -1     0     0   501     0  0.000000000E+00  0.000000000E+00 -1.014422491E+03  1.014422491E+03  0.000000000E+00  0.00000E+00  9.000E+00
      25     1     1     2     0     0  4.048600203E+02  4.748727536E+01  2.936282061E+02  5.176960505E+02  1.250000000E+02  0.00000E+00  9.000E+00
      25     1     1     2     0     0 -4.425483937E+02 -3.071055858E+01 -1.088452137E+02  4.735657290E+02  1.250000000E+02  0.00000E+00  9.000E+00
       2     1     1     2   502     0  3.768837342E+01 -1.677671679E+01 -6.104869594E+02  6.118792359E+02  0.000000000E+00  0.00000E+00  9.000E+00
#rwgt            1           1   3.2000662727572834E-002           4      137884           0
</event>
<event>
      5   9999  3.19816E-02  3.35616E+02 -1.00000E+00  1.04033E-01
      21    -1     0     0   502   501  0.000000000E+00  0.000000000E+00  5.548385045E+02  5.548385045E+02  0.000000000E+00  0.00000E+00  9.000E+00
      21    -1     0     0   501   511  0.000000000E+00  0.000000000E+00 -7.438262399E+02  7.438262399E+02  0.000000000E+00  0.00000E+00  9.000E+00
      25     1     1     2     0     0  4.924529020E+01 -1.842794450E+02  1.101837286E+02  2.532774497E+02  1.250000000E+02  0.00000E+00  9.000E+00
      25     1     1     2     0     0 -4.815838062E+01 -1.513351554E+02  2.981749363E+02  3.602150073E+02  1.250000000E+02  0.00000E+00  9.000E+00
      21     1     1     2   502   511 -1.086909580E+00  3.356146004E+02 -5.973464004E+02  6.851722874E+02  7.629394531E-06  0.00000E+00  9.000E+00
#rwgt            1           1   7.6458403974147660E-002           4      137995           0
</event>
<event>
      5   9999  3.19816E-02  2.65877E+02 -1.00000E+00  1.07324E-01
      21    -1     0     0   502   501  0.000000000E+00  0.000000000E+00  1.713498243E+03  1.713498243E+03  0.000000000E+00  0.00000E+00  9.000E+00
      21    -1     0     0   512   502  0.000000000E+00  0.000000000E+00 -1.168131397E+03  1.168131397E+03  0.000000000E+00  0.00000E+00  9.000E+00
      25     1     1     2     0     0 -9.975668980E+02  2.187626544E+02  6.900887539E+02  1.238888334E+03  1.250000000E+02  0.00000E+00  9.000E+00
      25     1     1     2     0     0  9.767371093E+02  4.629757552E+01  3.784068462E+02  1.055924044E+03  1.250000000E+02  0.00000E+00  9.000E+00
      21     1     1     2   512   501  2.082978868E+01 -2.650602299E+02 -5.231287541E+02  5.868172620E+02  1.078959322E-05  0.00000E+00  9.000E+00
#rwgt            1           1   3.2653173012147457E-002           4      138065           0
</event>
<event>
      5   9999  3.19816E-02  8.98926E+01 -1.00000E+00  1.25946E-01
      21    -1     0     0   502   501  0.000000000E+00  0.000000000E+00  2.667602710E+03  2.667602710E+03  0.000000000E+00  0.00000E+00  9.000E+00
      21    -1     0     0   511   502  0.000000000E+00  0.000000000E+00 -3.129211701E+02  3.129211701E+02  0.000000000E+00  0.00000E+00  9.000E+00
      25     1     1     2     0     0 -5.894492604E+02 -2.697948301E+02  1.934664008E+03  2.044208773E+03  1.250000000E+02  0.00000E+00  9.000E+00
      25     1     1     2     0     0  6.545696235E+02  3.317627078E+02  3.511749106E+02  8.230897303E+02  1.250000000E+02  0.00000E+00  9.000E+00
      21     1     1     2   511   501 -6.512036303E+01 -6.196787776E+01  6.884262057E+01  1.132253768E+02  2.336015456E-06  0.00000E+00  9.000E+00
#rwgt            2          11   1.2133178853444941E-002           4      138261           0
</event>
<event>
      5   9999  3.19816E-02  2.32840E+01 -1.00000E+00  1.61099E-01
      21    -1     0     0   502   512  0.000000000E+00  0.000000000E+00  3.155308863E+02  3.155308863E+02  0.000000000E+00  0.00000E+00  9.000E+00
      21    -1     0     0   501   502  0.000000000E+00  0.000000000E+00 -2.465648908E+03  2.465648908E+03  0.000000000E+00  0.00000E+00  9.000E+00
      25     1     1     2     0     0 -5.931419223E+02  4.017084501E+02 -1.717473649E+03  1.865081165E+03  1.250000000E+02  0.00000E+00  9.000E+00
      25     1     1     2     0     0  6.139707037E+02 -4.121154034E+02 -4.603024796E+02  8.799446025E+02  1.250000000E+02  0.00000E+00  9.000E+00
      21     1     1     2   501   512 -2.082878142E+01  1.040695336E+01  2.765810631E+01  3.615402686E+01  5.840038640E-07  0.00000E+00  9.000E+00
#rwgt            1           1   2.5837849389964078E-002           4      138281           0
</event>
<event>
      5   9999  3.19816E-02  8.87823E+01 -1.00000E+00  1.26198E-01
      21    -1     0     0   502   501  0.000000000E+00  0.000000000E+00  1.348783406E+02  1.348783406E+02  0.000000000E+00  0.00000E+00  9.000E+00
      21    -1     0     0   511   502  0.000000000E+00  0.000000000E+00 -1.316974328E+03  1.316974328E+03  0.000000000E+00  0.00000E+00  9.000E+00
      25     1     1     2     0     0  2.413453653E+02  8.658608192E+01 -1.154167444E+02  3.077186374E+02  1.250000000E+02  0.00000E+00  9.000E+00
      25     1     1     2     0     0 -1.526888112E+02 -8.186166141E+01 -2.786590884E+02  3.511283130E+02  1.250000000E+02  0.00000E+00  9.000E+00
      21     1     1     2   511   501 -8.865655411E+01 -4.724420512E+00 -7.880201545E+02  7.930057179E+02  0.000000000E+00  0.00000E+00  9.000E+00
#rwgt            1           1   2.7934379187677827E-002           4      138432           0
</event>
<event>
      5   9999  3.19816E-02  1.70175E+01 -1.00000E+00  1.72372E-01
      21    -1     0     0   502   501  0.000000000E+00  0.000000000E+00  1.488827630E+03  1.488827630E+03  0.000000000E+00  0.00000E+00  9.000E+00
      21    -1     0     0   501   512  0.000000000E+00  0.000000000E+00 -1.745606633E+02  1.745606633E+02  0.000000000E+00  0.00000E+00  9.000E+00
      25     1     1     2     0     0 -6.953015508E+01  4.222345902E+02  1.012271547E+03  1.106090040E+03  1.250000000E+02  0.00000E+00  9.000E+00
      25     1     1     2     0     0  8.632598838E+01 -4.249721436E+02  2.893852621E+02  5.361178313E+02  1.250000000E+02  0.00000E+00  9.000E+00
      21     1     1     2   502   512 -1.679583330E+01  2.737553403E+00  1.261015818E+01  2.118042266E+01  3.371747881E-07  0.00000E+00  9.000E+00
#rwgt            1           1   2.8253151373457488E-002           4      138502           0
</event>
<event>
      5   9999  3.19816E-02  3.89014E+01 -1.00000E+00  1.45594E-01
      21    -1     0     0   502   501  0.000000000E+00  0.000000000E+00  1.350271282E+03  1.350271282E+03  0.000000000E+00  0.00000E+00  9.000E+00
      21    -1     0     0   511   502  0.000000000E+00  0.000000000E+00 -1.868776438E+02  1.868776438E+02  0.000000000E+00  0.00000E+00  9.000E+00
      25     1     1     2     0     0  2.973188887E+02  3.124180334E+02  6.952075161E+02  8.276122520E+02  1.250000000E+02  0.00000E+00  9.000E+00
      25     1     1     2     0     0 -3.174594491E+02 -3.456997813E+02  4.616301449E+02  6.700867342E+02  1.250000000E+02  0.00000E+00  9.000E+00
      21     1     1     2   511   501  2.014056042E+01  3.328174790E+01  6.555977416E+00  3.944993988E+01  9.973764736E-07  0.00000E+00  9.000E+00
#rwgt            1           1   3.5357295846276275E-002           4      138765           0
</event>
<event>
      5   9999  3.19816E-02  3.79977E+01 -1.00000E+00  1.46237E-01
      21    -1     0     0   502   501  0.000000000E+00  0.000000000E+00  7.271564124E+01  7.271564124E+01  0.000000000E+00  0.00000E+00  9.000E+00
      21    -1     0     0   501   512  0.000000000E+00  0.000000000E+00 -2.299094042E+03  2.299094042E+03  0.000000000E+00  0.00000E+00  9.000E+00
      25     1     1     2     0     0 -1.543737290E+02  2.835708003E+02 -5.056410411E+02  6.128144168E+02  1.250000000E+02  0.00000E+00  9.000E+00
      25     1     1     2     0     0  1.646150456E+02 -2.469792801E+02 -1.610694124E+03  1.642576464E+03  1.250000000E+02  0.00000E+00  9.000E+00
      21     1     1     2   502   512 -1.024131656E+01 -3.659152020E+01 -1.100432359E+02  1.164188030E+02  1.907348633E-06  0.00000E+00  9.000E+00
#rwgt            1           1   1.9654271669487872E-002           4      138927           0
</event>
<event>
      5   9999  3.19816E-02  8.85902E+01 -1.00000E+00  1.26242E-01
      21    -1     0     0   502   501  0.000000000E+00  0.000000000E+00  2.669519686E+02  2.669519686E+02  0.000000000E+00  0.00000E+00  9.000E+00
       2    -1     0     0   501     0  0.000000000E+00  0.000000000E+00 -2.019717075E+03  2.019717075E+03  0.000000000E+00  0.00000E+00  9.000E+00
      25     1     1     2     0     0  1.747458781E+02  2.619910906E+02  9.378420447E+01  3.515621289E+02  1.250000000E+02  0.00000E+00  9.000E+00
      25     1     1     2     0     0 -1.857089254E+02 -1.740818823E+02 -4.257418824E+02  5.115402791E+02  1.250000000E+02  0.00000E+00  9.000E+00
       2     1     1     2   502     0  1.096304735E+01 -8.790920836E+01 -1.420807428E+03  1.423566635E+03  2.157918644E-05  0.00000E+00  9.000E+00
#rwgt            1           1   3.1539077489123372E-002           4      139040           0
</event>
<event>
      5   9999  3.19816E-02  9.59660E+01 -1.00000E+00  1.24638E-01
      21    -1     0     0   502   501  0.000000000E+00  0.000000000E+00  7.326208064E+02  7.326208064E+02  0.000000000E+00  0.00000E+00  9.000E+00
      21    -1     0     0   501   511  0.000000000E+00  0.000000000E+00 -1.474784243E+03  1.474784243E+03  0.000000000E+00  0.00000E+00  9.000E+00
      25     1     1     2     0     0 -8.552410432E+02  3.747593531E+01 -8.214968578E+01  8.690312184E+02  1.250000000E+02  0.00000E+00  9.000E+00
      25     1     1     2     0     0  7.865518125E+02 -1.044927582E+02 -1.471580800E+02  8.166167955E+02  1.250000000E+02  0.00000E+00  9.000E+00
      21     1     1     2   502   511  6.868923074E+01  6.701682289E+01 -5.128556709E+02  5.217570355E+02  7.629394531E-06  0.00000E+00  9.000E+00
#rwgt            1           1   3.2132276029961583E-002           4      139161           0
</event>
<event>
      5   9999  3.19816E-02  7.22949E+01 -1.00000E+00  1.30515E-01
      21    -1     0     0   502   501  0.000000000E+00  0.000000000E+00  5.698455637E+02  5.698455637E+02  0.000000000E+00  0.00000E+00  9.000E+00
      21    -1     0     0   501   512  0.000000000E+00  0.000000000E+00 -1.345128777E+03  1.345128777E+03  0.000000000E+00  0.00000E+00  9.000E+00
      25     1     1     2     0     0 -1.787209650E+02 -6.359653691E+02 -1.619646018E+02  6.915566978E+02  1.250000000E+02  0.00000E+00  9.000E+00
      25     1     1     2     0     0  1.631637651E+02  5.653642093E+02  4.298810043E+00  6.015833967E+02  1.250000000E+02  0.00000E+00  9.000E+00
      21     1     1     2   502   512  1.555719984E+01  7.060115979E+01 -6.176174218E+02  6.218342463E+02  7.629394531E-06  0.00000E+00  9.000E+00
#rwgt            1           1   2.7707591171116597E-002           4      139251           0
</event>
<event>
      5   9999  3.19816E-02  6.51601E+01 -1.00000E+00  1.32816E-01
      21    -1     0     0   502   511  0.000000000E+00  0.000000000E+00  6.101488624E+02  6.101488624E+02  0.000000000E+00  0.00000E+00  9.000E+00
      21    -1     0     0   501   502  0.000000000E+00  0.000000000E+00 -3.345493988E+02  3.345493988E+02  0.000000000E+00  0.00000E+00  9.000E+00
      25     1     1     2     0     0  1.626621606E+02  2.885537065E+02 -1.260427907E+02  3.758111296E+02  1.250000000E+02  0.00000E+00  9.000E+00
      25     1     1     2     0     0 -2.038963357E+02 -2.380999496E+02  3.291184478E+02  4.713907661E+02  1.250000000E+02  0.00000E+00  9.000E+00
      21     1     1     2   501   511  4.123417506E+01 -5.045375683E+01  7.252380649E+01  9.749636546E+01  0.000000000E+00  0.00000E+00  9.000E+00
#rwgt            1           1   2.9095379579648105E-002           4      139353           0
</event>
<event>
      5   9999  3.19816E-02  7.23464E+01 -1.00000E+00  1.30500E-01
      21    -1     0     0   502   501  0.000000000E+00  0.000000000E+00  1.699339665E+02  1.699339665E+02  0.000000000E+00  0.00000E+00  9.000E+00
      21    -1     0     0   501   512  0.000000000E+00  0.000000000E+00 -1.407776940E+03  1.407776940E+03  0.000000000E+00  0.00000E+00  9.000E+00
      25     1     1     2     0     0 -9.836543277E+01 -5.430805705E+01 -9.644736263E+02  9.790094480E+02  1.250000000E+02  0.00000E+00  9.000E+00
      25     1     1     2     0     0  4.577121058E+01  4.630642556E+00  1.316459162E+02  1.872754491E+02  1.250000000E+02  0.00000E+00  9.000E+00
      21     1     1     2   502   512  5.259422219E+01  4.967741449E+01 -4.050152638E+02  4.114260099E+02  5.394796609E-06  0.00000E+00  9.000E+00
#rwgt            1           1   2.9793545497239657E-002           4      139465           0
</event>
<event>
      5   9999  3.19816E-02  4.43973E+02 -1.00000E+00  1.00341E-01
      21    -1     0     0   502   501  0.000000000E+00  0.000000000E+00  2.914753279E+03  2.914753279E+03  0.000000000E+00  0.00000E+00  9.000E+00
      21    -1     0     0   501   511  0.000000000E+00  0.000000000E+00 -3.341788136E+02  3.341788136E+02  0.000000000E+00  0.00000E+00  9.000E+00
      25     1     1     2     0     0 -6.209202120E+02  1.750928030E+01  2.148354424E+03  2.239843793E+03  1.250000000E+02  0.00000E+00  9.000E+00
      25     1     1     2     0     0  2.791414918E+02 -3.008809605E+02  3.583593469E+02  5.590131898E+02  1.250000000E+02  0.00000E+00  9.000E+00
      21     1     1     2   502   511  3.417787202E+02  2.833716802E+02  7.386069466E+01  4.500751103E+02  6.675720215E-06  0.00000E+00  9.000E+00
#rwgt            2          11   9.7462996561499850E-003           4      139557           0
</event>
<event>
      5   9999  3.19816E-02  1.94144E+01 -1.00000E+00  1.67441E-01
       2    -1     0     0   502     0  0.000000000E+00  0.000000000E+00  1.106957045E+03  1.106957045E+03  0.000000000E+00  0.00000E+00  9.000E+00
      21    -1     0     0   501   502  0.000000000E+00  0.000000000E+00 -1.158114768E+02  1.158114768E+02  0.000000000E+00  0.00000E+00  9.000E+00
      25     1     1     2     0     0 -1.097352281E+02 -1.469655259E+02  5.045145157E+02  5.511810797E+02  1.250000000E+02  0.00000E+00  9.000E+00
      25     1     1     2     0     0  9.467097102E+01  1.347185597E+02  2.351160565E+01  2.080612378E+02  1.250000000E+02  0.00000E+00  9.000E+00
       2     1     1     2   501     0  1.506425710E+01  1.224696621E+01  4.631194470E+02  4.635262045E+02  5.394796609E-06  0.00000E+00  9.000E+00
#rwgt            1           1   3.1380508638364925E-002           4      139622           0
</event>
<event>
      5   9999  3.19816E-02  1.91136E+01 -1.00000E+00  1.68010E-01
      21    -1     0     0   502   501  0.000000000E+00  0.000000000E+00  2.965295449E+02  2.965295449E+02  0.000000000E+00  0.00000E+00  9.000E+00
      21    -1     0     0   511   502  0.000000000E+00  0.000000000E+00 -8.409469492E+02  8.409469492E+02  0.000000000E+00  0.00000E+00  9.000E+00
      25     1     1     2     0     0 -8.519568728E+00 -7.205616439E+01 -5.423348022E+02  5.612634957E+02  1.250000000E+02  0.00000E+00  9.000E+00
      25     1     1     2     0     0  2.761089299E+01  7.297781571E+01  2.677953365E+02  3.056590670E+02  1.250000000E+02  0.00000E+00  9.000E+00
      21     1     1     2   511   501 -1.909132427E+01 -9.216513186E-01 -2.698779385E+02  2.705539314E+02  3.814697266E-06  0.00000E+00  9.000E+00
#rwgt            1           1   3.2384955670364549E-002           4      139745           0
</event>
<event>
      5   9999  3.19816E-02  1.85177E+02 -1.00000E+00  1.12879E-01
      21    -1     0     0   502   501  0.000000000E+00  0.000000000E+00  1.381235682E+03  1.381235682E+03  0.000000000E+00  0.00000E+00  9.000E+00
      21    -1     0     0   501   512  0.000000000E+00  0.000000000E+00 -3.207231547E+02  3.207231547E+02  0.000000000E+00  0.00000E+00  9.000E+00
      25     1     1     2     0     0 -5.325623499E+01 -1.489354746E+02  1.268158630E+03  1.284083063E+03  1.250000000E+02  0.00000E+00  9.000E+00
      25     1     1     2     0     0 -1.091103792E+02  5.989908792E+01 -8.540272017E+01  1.959887757E+02  1.250000000E+02  0.00000E+00  9.000E+00
      21     1     1     2   502   512  1.623666142E+02  8.903638668E+01 -1.222433821E+02  2.218869983E+02  4.046097457E-06  0.00000E+00  9.000E+00
#rwgt            1           1   2.8154568748665849E-002           4      139928           0
</event>
<event>
      5   9999  3.19816E-02  2.90370E+01 -1.00000E+00  1.54031E-01
      21    -1     0     0   511   501  0.000000000E+00  0.000000000E+00  6.604602397E+02  6.604602397E+02  0.000000000E+00  0.00000E+00  9.000E+00
      21    -1     0     0   501   502  0.000000000E+00  0.000000000E+00 -5.528206481E+01  5.528206481E+01  0.000000000E+00  0.00000E+00  9.000E+00
      25     1     1     2     0     0  1.112373458E+02  6.432870609E+01  3.230329987E+02  3.694418057E+02  1.250000000E+02  0.00000E+00  9.000E+00
      25     1     1     2     0     0 -1.091634999E+02 -3.536585489E+01  2.211531460E+02  2.787492195E+02  1.250000000E+02  0.00000E+00  9.000E+00
      21     1     1     2   511   502 -2.073845879E+00 -2.896285120E+01  6.099203020E+01  6.755127930E+01  6.743495762E-07  0.00000E+00  9.000E+00
#rwgt            1           1   2.7260271955121918E-002           4      140008           0
</event>
<event>
      5   9999  3.19816E-02  4.58447E+01 -1.00000E+00  1.41260E-01
      21    -1     0     0   502   501  0.000000000E+00  0.000000000E+00  2.742297824E+02  2.742297824E+02  0.000000000E+00  0.00000E+00  9.000E+00
      21    -1     0     0   512   502  0.000000000E+00  0.000000000E+00 -1.365607226E+03  1.365607226E+03  0.000000000E+00  0.00000E+00  9.000E+00
      25     1     1     2     0     0 -3.300956290E+02 -9.997860950E+01 -6.753977204E+02  7.685999788E+02  1.250000000E+02  0.00000E+00  9.000E+00
      25     1     1     2     0     0  3.252745645E+02  1.455691401E+02  6.916535269E+01  3.839306745E+02  1.250000000E+02  0.00000E+00  9.000E+00
      21     1     1     2   512   501  4.821064517E+00 -4.559053056E+01 -4.851450757E+02  4.873063550E+02  5.394796609E-06  0.00000E+00  9.000E+00
#rwgt            1           1   2.6038344789536257E-002           4      140094           0
</event>
<event>
      5   9999  3.19816E-02  7.24127E+01 -1.00000E+00  1.30480E-01
      21    -1     0     0   502   501  0.000000000E+00  0.000000000E+00  1.211409619E+03  1.211409619E+03  0.000000000E+00  0.00000E+00  9.000E+00
      21    -1     0     0   501   511  0.000000000E+00  0.000000000E+00 -1.130307154E+02  1.130307154E+02  0.000000000E+00  0.00000E+00  9.000E+00
      25     1     1     2     0     0 -2.037545679E+02 -2.404018082E+02  4.629824297E+02  5.738350665E+02  1.250000000E+02  0.00000E+00  9.000E+00
      25     1     1     2     0     0  1.909111766E+02  1.691371816E+02  6.116723417E+02  6.744053063E+02  1.250000000E+02  0.00000E+00  9.000E+00
      21     1     1     2   502   511  1.284339137E+01  7.126462662E+01  2.372413237E+01  7.619996172E+01  1.545128989E-06  0.00000E+00  9.000E+00
#rwgt            1           1   3.4232900908563457E-002           4      140199           0
</event>
<event>
      5   9999  3.19816E-02  1.73109E+02 -1.00000E+00  1.13980E-01
      21    -1     0     0   502   501  0.000000000E+00  0.000000000E+00  6.321000684E+02  6.321000684E+02  0.000000000E+00  0.00000E+00  9.000E+00
      21    -1     0     0   501   512  0.000000000E+00  0.000000000E+00 -2.024582495E+02  2.024582495E+02  0.000000000E+00  0.00000E+00  9.000E+00
      25     1     1     2     0     0  1.813983668E+02 -8.061942809E+01  1.938999746E+02  3.043469399E+02  1.250000000E+02  0.00000E+00  9.000E+00
      25     1     1     2     0     0 -1.250864489E+02  2.443133265E+02  1.420646225E+02  3.333811305E+02  1.250000000E+02  0.00000E+00  9.000E+00
      21     1     1     2   502   512 -5.631191790E+01 -1.636938984E+02  9.367722180E+01  1.968302476E+02  1.907348633E-06  0.00000E+00  9.000E+00
#rwgt            1           1   2.8670175283596375E-002           4      140302           0
</event>
<event>
      5   9999  3.19816E-02  1.31125E+01 -1.00000E+00  1.83069E-01
      21    -1     0     0   502   501  0.000000000E+00  0.000000000E+00  6.054397120E+01  6.054397120E+01  0.000000000E+00  0.00000E+00  9.000E+00
      21    -1     0     0   511   502  0.000000000E+00  0.000000000E+00 -6.007192157E+02  6.007192157E+02  0.000000000E+00  0.00000E+00  9.000E+00
      25     1     1     2     0     0  8.899899149E+01  6.424832630E+01 -1.438923185E+02  2.199515111E+02  1.250000000E+02  0.00000E+00  9.000E+00
      25     1     1     2     0     0 -8.669768890E+01 -5.133935705E+01 -2.683771635E+02  3.127355444E+02  1.250000000E+02  0.00000E+00  9.000E+00
      21     1     1     2   511   501 -2.301302589E+00 -1.290896925E+01 -1.279057625E+02  1.285761314E+02  1.907348633E-06  0.00000E+00  9.000E+00
#rwgt            1           1   2.9419916809520105E-002           4      140346           0
</event>
<event>
      5   9999  3.19816E-02  4.94538E+02 -1.00000E+00  9.89877E-02
      21    -1     0     0   502   501  0.000000000E+00  0.000000000E+00  1.281626249E+03  1.281626249E+03  0.000000000E+00  0.00000E+00  9.000E+00
       1    -1     0     0   501     0  0.000000000E+00  0.000000000E+00 -1.132899991E+03  1.132899991E+03  0.000000000E+00  0.00000E+00  9.000E+00
      25     1     1     2     0     0 -1.980433414E+02 -1.514214932E+02  6.109890237E+02  6.716265486E+02  1.250000000E+02  0.00000E+00  9.000E+00
      25     1     1     2     0     0  2.633677397E+02 -3.387834614E+02  4.940898696E+02  6.662481514E+02  1.250000000E+02  0.00000E+00  9.000E+00
       1     1     1     2   502     0 -6.532439829E+01  4.902049545E+02 -9.563526351E+02  1.076651539E+03  2.157918644E-05  0.00000E+00  9.000E+00
#rwgt            1           1   2.7358182953749359E-002           4      140474           0
</event>
<event>
      5   9999  3.19816E-02  9.64709E+01 -1.00000E+00  1.24534E-01
       1    -1     0     0   502     0  0.000000000E+00  0.000000000E+00  3.321949414E+02  3.321949414E+02  0.000000000E+00  0.00000E+00  9.000E+00
      21    -1     0     0   501   502  0.000000000E+00  0.000000000E+00 -3.891610801E+02  3.891610801E+02  0.000000000E+00  0.00000E+00  9.000E+00
      25     1     1     2     0     0 -1.804936143E+02 -3.464843970E+01 -1.296991060E+02  2.573428011E+02  1.250000000E+02  0.00000E+00  9.000E+00
      25     1     1     2     0     0  1.073083145E+02 -2.820488319E+01 -1.479188878E+02  2.231940572E+02  1.250000000E+02  0.00000E+00  9.000E+00
       1     1     1     2   501     0  7.318529977E+01  6.285332289E+01  2.206518550E+02  2.408191633E+02  4.672030912E-06  0.00000E+00  9.000E+00
#rwgt            1           1   2.0840062239526939E-002           4      140565           0
</event>
<event>
      5   9999  3.19816E-02  1.97579E+02 -1.00000E+00  1.11841E-01
      21    -1     0     0   502   501  0.000000000E+00  0.000000000E+00  6.476841172E+02  6.476841172E+02  0.000000000E+00  0.00000E+00  9.000E+00
       1    -1     0     0   501     0  0.000000000E+00  0.000000000E+00 -1.118561977E+03  1.118561977E+03  0.000000000E+00  0.00000E+00  9.000E+00
      25     1     1     2     0     0  3.983035339E+01  1.792470467E+02 -2.888240784E+01  2.239981122E+02  1.250000000E+02  0.00000E+00  9.000E+00
      25     1     1     2     0     0  2.629128447E+01  6.939798934E+00  5.326405882E+02  5.477868095E+02  1.250000000E+02  0.00000E+00  9.000E+00
       1     1     1     2   502     0 -6.612163785E+01 -1.861868456E+02 -9.746360400E+02  9.944611722E+02  0.000000000E+00  0.00000E+00  9.000E+00
#rwgt            1           1   2.6270770331802650E-002           4      140632           0
</event>
<event>
      5   9999  3.19816E-02  1.00048E+02 -1.00000E+00  1.23818E-01
      21    -1     0     0   502   511  0.000000000E+00  0.000000000E+00  1.646809947E+02  1.646809947E+02  0.000000000E+00  0.00000E+00  9.000E+00
      21    -1     0     0   501   502  0.000000000E+00  0.000000000E+00 -1.706134399E+03  1.706134399E+03  0.000000000E+00  0.00000E+00  9.000E+00
      25     1     1     2     0     0  1.211088395E+02 -1.998938779E+02  3.062214577E-01  2.650471792E+02  1.250000000E+02  0.00000E+00  9.000E+00
      25     1     1     2     0     0 -2.076775498E+02  1.497385377E+02 -1.419398014E+03  1.447711061E+03  1.250000000E+02  0.00000E+00  9.000E+00
      21     1     1     2   501   511  8.656871032E+01  5.015534019E+01 -1.223616122E+02  1.580571539E+02  2.697398305E-06  0.00000E+00  9.000E+00
#rwgt            1           1   2.6882869512295762E-002           4      140682           0
</event>
<event>
      5   9999  3.19816E-02  4.17130E+01 -1.00000E+00  1.43720E-01
      21    -1     0     0   512   501  0.000000000E+00  0.000000000E+00  2.139067277E+02  2.139067277E+02  0.000000000E+00  0.00000E+00  9.000E+00
      21    -1     0     0   501   502  0.000000000E+00  0.000000000E+00 -1.168810392E+03  1.168810392E+03  0.000000000E+00  0.00000E+00  9.000E+00
      25     1     1     2     0     0 -1.150497419E+02 -2.133566380E+02 -8.809695739E+02  9.222200866E+02  1.250000000E+02  0.00000E+00  9.000E+00
      25     1     1     2     0     0  1.544725028E+02  2.269882354E+02 -1.766785143E+02  3.496079383E+02  1.250000000E+02  0.00000E+00  9.000E+00
      21     1     1     2   512   502 -3.942276085E+01 -1.363159743E+01  1.027444243E+02  1.108890944E+02  3.015782986E-06  0.00000E+00  9.000E+00
#rwgt            1           1   3.4856868321771969E-002           4      140752           0
</event>
<event>
      5   9999  3.19816E-02  1.40149E+02 -1.00000E+00  1.17575E-01
      21    -1     0     0   502   501  0.000000000E+00  0.000000000E+00  3.362737692E+02  3.362737692E+02  0.000000000E+00  0.00000E+00  9.000E+00
      21    -1     0     0   501   511  0.000000000E+00  0.000000000E+00 -1.862641114E+03  1.862641114E+03  0.000000000E+00  0.00000E+00  9.000E+00
      25     1     1     2     0     0 -8.900867610E+00  4.228205514E+02 -4.076817005E+01  4.428808957E+02  1.250000000E+02  0.00000E+00  9.000E+00
      25     1     1     2     0     0 -1.312208067E+02 -4.256057001E+02 -2.766709332E+02  5.390091997E+02  1.250000000E+02  0.00000E+00  9.000E+00
      21     1     1     2   502   511  1.401216743E+02  2.785148719E+00 -1.208928241E+03  1.217024787E+03  2.157918644E-05  0.00000E+00  9.000E+00
#rwgt            2          11   1.2859995280118169E-003           4      140853           0
</event>
<event>
      5   9999  3.19816E-02  4.28691E+02 -1.00000E+00  1.00788E-01
      21    -1     0     0   502   501  0.000000000E+00  0.000000000E+00  5.233379403E+02  5.233379403E+02  0.000000000E+00  0.00000E+00  9.000E+00
       1    -1     0     0   501     0  0.000000000E+00  0.000000000E+00 -2.205500041E+03  2.205500041E+03  0.000000000E+00  0.00000E+00  9.000E+00
      25     1     1     2     0     0 -2.092964143E+01 -3.697714000E+02 -1.761555518E+02  4.287478473E+02  1.250000000E+02  0.00000E+00  9.000E+00
      25     1     1     2     0     0 -8.327245513E+01 -4.606220740E+01  3.561315327E+02  3.892437506E+02  1.250000000E+02  0.00000E+00  9.000E+00
       1     1     1     2   502     0  1.042020966E+02  4.158336074E+02 -1.862138081E+03  1.910846383E+03  3.051757812E-05  0.00000E+00  9.000E+00
#rwgt            2          12   1.4479736437309255E-003           4      140888           0
</event>
<event>
      5   9999  3.19816E-02  1.32293E+02 -1.00000E+00  1.18598E-01
      21    -1     0     0   511   501  0.000000000E+00  0.000000000E+00  2.459069831E+02  2.459069831E+02  0.000000000E+00  0.00000E+00  9.000E+00
      21    -1     0     0   501   502  0.000000000E+00  0.000000000E+00 -2.240108735E+03  2.240108735E+03  0.000000000E+00  0.00000E+00  9.000E+00
      25     1     1     2     0     0 -3.746025004E+02 -2.215914257E+02 -9.955793883E+01  4.636448818E+02  1.250000000E+02  0.00000E+00  9.000E+00
      25     1     1     2     0     0  3.825309661E+02  3.536462010E+02 -1.730609907E+03  1.811637720E+03  1.250000000E+02  0.00000E+00  9.000E+00
      21     1     1     2   511   502 -7.928465697E+00 -1.320547753E+02 -1.640339061E+02  2.107331170E+02  3.814697266E-06  0.00000E+00  9.000E+00
#rwgt            1           1   2.7470141674852407E-002           4      140907           0
</event>
<event>
      5   9999  3.19816E-02  1.47069E+02 -1.00000E+00  1.16734E-01
      21    -1     0     0   502   512  0.000000000E+00  0.000000000E+00  2.327268589E+02  2.327268589E+02  0.000000000E+00  0.00000E+00  9.000E+00
      21    -1     0     0   501   502  0.000000000E+00  0.000000000E+00 -3.250906163E+02  3.250906163E+02  0.000000000E+00  0.00000E+00  9.000E+00
      25     1     1     2     0     0 -3.255272421E+01  1.170701971E+02 -1.081535925E+02  2.051519205E+02  1.250000000E+02  0.00000E+00  9.000E+00
      25     1     1     2     0     0 -1.139892934E+02 -1.046301487E+02 -2.387943807E+01  2.003403469E+02  1.250000000E+02  0.00000E+00  9.000E+00
      21     1     1     2   501   512  1.465420176E+02 -1.244004834E+01  3.966927314E+01  1.523252079E+02  3.126830351E-06  0.00000E+00  9.000E+00
#rwgt            1           1   3.5250819024716155E-002           4      141010           0
</event>
<event>
      5   9999  3.19816E-02  9.09738E+01 -1.00000E+00  1.25704E-01
      21    -1     0     0   502   501  0.000000000E+00  0.000000000E+00  2.570306837E+02  2.570306837E+02  0.000000000E+00  0.00000E+00  9.000E+00
      21    -1     0     0   511   502  0.000000000E+00  0.000000000E+00 -3.472171610E+02  3.472171610E+02  0.000000000E+00  0.00000E+00  9.000E+00
      25     1     1     2     0     0 -1.261880876E+02  6.664822806E+01 -1.904820922E+02  2.688379572E+02  1.250000000E+02  0.00000E+00  9.000E+00
      25     1     1     2     0     0  7.569465320E+01 -1.423228205E+02  1.273781767E+02  2.404904689E+02  1.250000000E+02  0.00000E+00  9.000E+00
      21     1     1     2   511   501  5.049343445E+01  7.567459247E+01 -2.708256170E+01  9.491941854E+01  8.259061849E-07  0.00000E+00  9.000E+00
#rwgt            1           1   2.7357014003067556E-002           4      141048           0
</event>
<event>
      5   9999  3.19816E-02  3.31507E+01 -1.00000E+00  1.50087E-01
      21    -1     0     0   502   512  0.000000000E+00  0.000000000E+00  1.167946435E+03  1.167946435E+03  0.000000000E+00  0.00000E+00  9.000E+00
      21    -1     0     0   501   502  0.000000000E+00  0.000000000E+00 -8.239968631E+01  8.239968631E+01  0.000000000E+00  0.00000E+00  9.000E+00
      25     1     1     2     0     0 -1.720778917E+02  1.524897031E+02  7.927724531E+02  8.348515274E+02  1.250000000E+02  0.00000E+00  9.000E+00
      25     1     1     2     0     0  1.686852762E+02 -1.195130595E+02  1.895285351E+02  3.070572575E+02  1.250000000E+02  0.00000E+00  9.000E+00
      21     1     1     2   501   512  3.392615495E+00 -3.297664357E+01  1.032457606E+02  1.084373364E+02  1.907348633E-06  0.00000E+00  9.000E+00
#rwgt            1           1   3.3972727558942178E-002           4      141147           0
</event>
<event>
      5   9999  3.19816E-02  2.91451E+01 -1.00000E+00  1.53917E-01
      21    -1     0     0   502   511  0.000000000E+00  0.000000000E+00  6.041833361E+02  6.041833361E+02  0.000000000E+00  0.00000E+00  9.000E+00
      21    -1     0     0   501   502  0.000000000E+00  0.000000000E+00 -4.840047682E+02  4.840047682E+02  0.000000000E+00  0.00000E+00  9.000E+00
      25     1     1     2     0     0  1.502798202E+02  2.960893591E+02  3.806007598E+02  5.203218920E+02  1.250000000E+02  0.00000E+00  9.000E+00
      25     1     1     2     0     0 -1.766379750E+02 -2.836522161E+02 -3.340081331E+02  4.887187196E+02  1.250000000E+02  0.00000E+00  9.000E+00
      21     1     1     2   501   511  2.635815479E+01 -1.243714295E+01  7.358594122E+01  7.914749266E+01  1.651812370E-06  0.00000E+00  9.000E+00
#rwgt            1           1   3.0698305207343745E-002           4      141280           0
</event>
<event>
      5   9999  3.19816E-02  1.61781E+01 -1.00000E+00  1.74345E-01
      21    -1     0     0   502   501  0.000000000E+00  0.000000000E+00  1.070259042E+03  1.070259042E+03  0.000000000E+00  0.00000E+00  9.000E+00
       2    -1     0     0   501     0  0.000000000E+00  0.000000000E+00 -1.269720157E+02  1.269720157E+02  0.000000000E+00  0.00000E+00  9.000E+00
      25     1     1     2     0     0  1.958246518E+02  4.346980941E+00  2.185016945E+02  3.189579612E+02  1.250000000E+02  0.00000E+00  9.000E+00
      25     1     1     2     0     0 -1.911846908E+02  1.115150552E+01  7.841111085E+02  8.167809820E+02  1.250000000E+02  0.00000E+00  9.000E+00
       2     1     1     2   502     0 -4.639961070E+00 -1.549848646E+01 -5.932577688E+01  6.149211433E+01  1.168007728E-06  0.00000E+00  9.000E+00
#rwgt            1           1   2.9601588954480788E-002           4      141469           0
</event>
<event>
      5   9999  3.19816E-02  6.44242E+01 -1.00000E+00  1.33073E-01
      21    -1     0     0   502   501  0.000000000E+00  0.000000000E+00  5.233139704E+02  5.233139704E+02  0.000000000E+00  0.00000E+00  9.000E+00
       2    -1     0     0   501     0  0.000000000E+00  0.000000000E+00 -2.569206811E+03  2.569206811E+03  0.000000000E+00  0.00000E+00  9.000E+00
      25     1     1     2     0     0  3.472450914E+02 -4.669710481E+02  1.283139214E+02  6.088764864E+02  1.250000000E+02  0.00000E+00  9.000E+00
      25     1     1     2     0     0 -3.472604389E+02  4.025468284E+02 -3.295384980E+02  6.378513801E+02  1.250000000E+02  0.00000E+00  9.000E+00
       2     1     1     2   502     0  1.534755579E-02  6.442421975E+01 -1.844668264E+03  1.845792915E+03  2.157918644E-05  0.00000E+00  9.000E+00
#rwgt            1           1   3.0151031968616734E-002           4      141636           0
</event>
<event>
      5   9999  3.19816E-02  5.53746E+01 -1.00000E+00  1.36592E-01
      21    -1     0     0   502   501  0.000000000E+00  0.000000000E+00  4.090927197E+02  4.090927197E+02  0.000000000E+00  0.00000E+00  9.000E+00
      21    -1     0     0   501   511  0.000000000E+00  0.000000000E+00 -4.311119644E+02  4.311119644E+02  0.000000000E+00  0.00000E+00  9.000E+00
      25     1     1     2     0     0 -2.231923044E+02 -1.994931022E+02  2.020134910E+02  3.821606378E+02  1.250000000E+02  0.00000E+00  9.000E+00
      25     1     1     2     0     0  2.004442621E+02  2.499794795E+02 -1.878056101E+02  3.918719045E+02  1.250000000E+02  0.00000E+00  9.000E+00
      21     1     1     2   502   511  2.274804229E+01 -5.048637728E+01 -3.622712563E+01  6.617214180E+01  1.066240300E-06  0.00000E+00  9.000E+00
#rwgt            1           1   2.9132050882400888E-002           4      141733           0
</event>
<event>
      5   9999  3.19816E-02  8.58784E+01 -1.00000E+00  1.26877E-01
      21    -1     0     0   502   501  0.000000000E+00  0.000000000E+00  1.445535922E+03  1.445535922E+03  0.000000000E+00  0.00000E+00  9.000E+00
      21    -1     0     0   512   502  0.000000000E+00  0.000000000E+00 -6.175674060E+01  6.175674060E+01  0.000000000E+00  0.00000E+00  9.000E+00
      25     1     1     2     0     0  1.125870776E+02 -8.198681767E+01  1.833023455E+02  2.619588482E+02  1.250000000E+02  0.00000E+00  9.000E+00
      25     1     1     2     0     0 -1.735925578E+02  2.154323321E+01  1.052569670E+03  1.074302749E+03  1.250000000E+02  0.00000E+00  9.000E+00
      21     1     1     2   512   501  6.100548016E+01  6.044358446E+01  1.479071668E+02  1.710310659E+02  1.907348633E-06  0.00000E+00  9.000E+00
#rwgt            1           1   3.1370507268075956E-002           4      141815           0
</event>
<event>
      5   9999  3.19816E-02  8.69634E+01 -1.00000E+00  1.26619E-01
      21    -1     0     0   502   501  0.000000000E+00  0.000000000E+00  6.569068566E+02  6.569068566E+02  0.000000000E+00  0.00000E+00  9.000E+00
      21    -1     0     0   501   511  0.000000000E+00  0.000000000E+00 -1.891396747E+02  1.891396747E+02  0.000000000E+00  0.00000E+00  9.000E+00
      25     1     1     2     0     0 -1.135439902E+02 -3.633077441E+01  5.507361538E+02  5.771892878E+02  1.250000000E+02  0.00000E+00  9.000E+00
      25     1     1     2     0     0  6.802952665E+01 -3.777096064E+01 -1.029074444E+02  1.796374239E+02  1.250000000E+02  0.00000E+00  9.000E+00
      21     1     1     2   502   511  4.551446352E+01  7.410173505E+01  1.993847240E+01  8.921981959E+01  1.599360450E-06  0.00000E+00  9.000E+00
#rwgt            1           1   2.7367603772466494E-002           4      141899           0
</event>
<event>
      5   9999  3.19816E-02  2.88039E+01 -1.00000E+00  1.54277E-01
      21    -1     0     0   502   501  0.000000000E+00  0.000000000E+00  1.999707829E+02  1.999707829E+02  0.000000000E+00  0.00000E+00  9.000E+00
      21    -1     0     0   501   512  0.000000000E+00  0.000000000E+00 -5.854506001E+02  5.854506001E+02  0.000000000E+00  0.00000E+00  9.000E+00
      25     1     1     2     0     0  1.265986211E+02 -5.980614243E+01 -4.883860754E+02  5.232111851E+02  1.250000000E+02  0.00000E+00  9.000E+00
      25     1     1     2     0     0 -1.107377483E+02  8.384978797E+01  1.259281326E+02  2.253364827E+02  1.250000000E+02  0.00000E+00  9.000E+00
      21     1     1     2   502   512 -1.586087279E+01 -2.404364555E+01 -2.302187434E+01  3.687371523E+01  6.743495762E-07  0.00000E+00  9.000E+00
#rwgt            1           1   2.7971683113938370E-002           4      141967           0
</event>
<event>
      5   9999  3.19816E-02  9.40566E+01 -1.00000E+00  1.25037E-01
      21    -1     0     0   502   501  0.000000000E+00  0.000000000E+00  1.473513927E+03  1.473513927E+03  0.000000000E+00  0.00000E+00  9.000E+00
      21    -1     0     0   511   502  0.000000000E+00  0.000000000E+00 -2.660114333E+03  2.660114333E+03  0.000000000E+00  0.00000E+00  9.000E+00
      25     1     1     2     0     0  3.506037419E+02  4.355011086E+02  7.111014666E+02  9.131672876E+02  1.250000000E+02  0.00000E+00  9.000E+00
      25     1     1     2     0     0 -4.225421760E+02 -4.960939925E+02  4.937987611E+02  8.271114534E+02  1.250000000E+02  0.00000E+00  9.000E+00
      21     1     1     2   511   501  7.193843416E+01  6.059288389E+01 -2.391500634E+03  2.393349519E+03  3.051757812E-05  0.00000E+00  9.000E+00
#rwgt            1           1   2.8971159212983023E-002           4      142134           0
</event>
<event>
      5   9999  3.19816E-02  2.27371E+01 -1.00000E+00  1.61900E-01
      21    -1     0     0   502   501  0.000000000E+00  0.000000000E+00  8.106493214E+02  8.106493214E+02  0.000000000E+00  0.00000E+00  9.000E+00
      21    -1     0     0   512   502  0.000000000E+00  0.000000000E+00 -1.027843969E+02  1.027843969E+02  0.000000000E+00  0.00000E+00  9.000E+00
      25     1     1     2     0     0  1.686206346E+02 -1.074625894E+02  4.806900225E+02  5.354148151E+02  1.250000000E+02  0.00000E+00  9.000E+00
      25     1     1     2     0     0 -1.652621983E+02  1.299502709E+02  2.471771429E+02  3.477358294E+02  1.250000000E+02  0.00000E+00  9.000E+00
      21     1     1     2   512   501 -3.358436339E+00 -2.248768148E+01 -2.000224090E+01  3.028307372E+01  8.920806376E-07  0.00000E+00  9.000E+00
#rwgt            1           1   2.7718626453370893E-002           4      142195           0
</event>
<event>
      5   9999  3.19816E-02  1.57353E+02 -1.00000E+00  1.15576E-01
      21    -1     0     0   502   501  0.000000000E+00  0.000000000E+00  4.993417883E+02  4.993417883E+02  0.000000000E+00  0.00000E+00  9.000E+00
      21    -1     0     0   511   502  0.000000000E+00  0.000000000E+00 -1.180656610E+03  1.180656610E+03  0.000000000E+00  0.00000E+00  9.000E+00
      25     1     1     2     0     0 -4.906542736E+01 -1.040142968E+02  2.769271646E+02  3.248692731E+02  1.250000000E+02  0.00000E+00  9.000E+00
      25     1     1     2     0     0  2.023958954E+02  1.393640888E+02  9.392456306E+01  2.912615170E+02  1.250000000E+02  0.00000E+00  9.000E+00
      21     1     1     2   511   501 -1.533304680E+02 -3.534979195E+01 -1.052166550E+03  1.063867609E+03  2.157918644E-05  0.00000E+00  9.000E+00
#rwgt            1           1   2.8478518220908768E-002           4      142320           0
</event>
<event>
      5   9999  3.19816E-02  1.05730E+02 -1.00000E+00  1.22749E-01
      21    -1     0     0   512   501  0.000000000E+00  0.000000000E+00  9.748616898E+02  9.748616898E+02  0.000000000E+00  0.00000E+00  9.000E+00
      21    -1     0     0   501   502  0.000000000E+00  0.000000000E+00 -3.646636085E+02  3.646636085E+02  0.000000000E+00  0.00000E+00  9.000E+00
      25     1     1     2     0     0  2.056135317E+02 -3.948621053E+02  4.133647361E+02  6.202325465E+02  1.250000000E+02  0.00000E+00  9.000E+00
      25     1     1     2     0     0 -2.879324075E+02  3.285115445E+02 -4.378230342E+01  4.564721199E+02  1.250000000E+02  0.00000E+00  9.000E+00
      21     1     1     2   512   502  8.231887580E+01  6.635056083E+01  2.406156485E+02  2.628206319E+02  2.697398305E-06  0.00000E+00  9.000E+00
#rwgt            1           1   2.8943147759069591E-002           4      142348           0
</event>
<event>
      5   9999  3.19816E-02  3.11561E+01 -1.00000E+00  1.51908E-01
      21    -1     0     0   511   501  0.000000000E+00  0.000000000E+00  4.151129393E+02  4.151129393E+02  0.000000000E+00  0.00000E+00  9.000E+00
      21    -1     0     0   501   502  0.000000000E+00  0.000000000E+00 -2.809493097E+03  2.809493097E+03  0.000000000E+00  0.00000E+00  9.000E+00
      25     1     1     2     0     0  1.637132069E+01 -3.319017558E+02 -1.751701241E+03  1.787318951E+03  1.250000000E+02  0.00000E+00  9.000E+00
      25     1     1     2     0     0  2.388537469E+00  3.070266280E+02 -1.012894273E+03  1.065763043E+03  1.250000000E+02  0.00000E+00  9.000E+00
      21     1     1     2   511   502 -1.875985816E+01  2.487512789E+01  3.702153560E+02  3.715240424E+02  1.078959322E-05  0.00000E+00  9.000E+00
#rwgt            1           1   6.2813560215300435E-002           4      142439           0
</event>
<event>
      5   9999  3.19816E-02  7.96852E+01 -1.00000E+00  1.28432E-01
      21    -1     0     0   502   501  0.000000000E+00  0.000000000E+00  5.043426782E+02  5.043426782E+02  0.000000000E+00  0.00000E+00  9.000E+00
      21    -1     0     0   501   512  0.000000000E+00  0.000000000E+00 -1.393057742E+03  1.393057742E+03  0.000000000E+00  0.00000E+00  9.000E+00
      25     1     1     2     0     0 -1.926718367E+02 -5.145483727E+02  2.539593671E+02  6.180637707E+02  1.250000000E+02  0.00000E+00  9.000E+00
      25     1     1     2     0     0  1.626321981E+02  4.407422472E+02 -1.050247763E+03  1.157302175E+03  1.250000000E+02  0.00000E+00  9.000E+00
      21     1     1     2   502   512  3.003963857E+01  7.380612547E+01 -9.242666745E+01  1.220344742E+02  1.907348633E-06  0.00000E+00  9.000E+00
#rwgt            1           1   2.5887731947969440E-002           4      142565           0
</event>
<event>
      5   9999  3.19816E-02  6.50748E+01 -1.00000E+00  1.32846E-01
      21    -1     0     0   502   501  0.000000000E+00  0.000000000E+00  2.847455534E+03  2.847455534E+03  0.000000000E+00  0.00000E+00  9.000E+00
      21    -1     0     0   511   502  0.000000000E+00  0.000000000E+00 -6.625508722E+02  6.625508722E+02  0.000000000E+00  0.00000E+00  9.000E+00
      25     1     1     2     0     0  7.179987518E+02  1.418297518E+02 -8.454944554E+01  7.472693590E+02  1.250000000E+02  0.00000E+00  9.000E+00
      25     1     1     2     0     0 -6.529252988E+02 -1.414178020E+02  2.464824747E+03  2.556813734E+03  1.250000000E+02  0.00000E+00  9.000E+00
      21     1     1     2   511   501 -6.507345301E+01 -4.119497634E-01 -1.953706394E+02  2.059233127E+02  3.814697266E-06  0.00000E+00  9.000E+00
#rwgt            1           1   6.7270308435349063E-002           4      142672           0
</event>
<event>
      5   9999  3.19816E-02  2.25212E+01 -1.00000E+00  1.62224E-01
      21    -1     0     0   502   501  0.000000000E+00  0.000000000E+00  1.115533766E+03  1.115533766E+03  0.000000000E+00  0.00000E+00  9.000E+00
      21    -1     0     0   512   502  0.000000000E+00  0.000000000E+00 -1.048917886E+02  1.048917886E+02  0.000000000E+00  0.00000E+00  9.000E+00
      25     1     1     2     0     0  2.224392497E+02  1.997192825E+02  6.059925477E+02  6.871819115E+02  1.250000000E+02  0.00000E+00  9.000E+00
      25     1     1     2     0     0 -2.351849793E+02 -1.811518290E+02  3.921766379E+02  5.074992364E+02  1.250000000E+02  0.00000E+00  9.000E+00
      21     1     1     2   512   501  1.274572956E+01 -1.856745353E+01  1.247279237E+01  2.574440720E+01  2.920019320E-07  0.00000E+00  9.000E+00
#rwgt            1           1   2.7923167219099484E-002           4      142797           0
</event>
<event>
      5   9999  3.19816E-02  1.62848E+02 -1.00000E+00  1.14996E-01
      21    -1     0     0   511   501  0.000000000E+00  0.000000000E+00  5.186150027E+02  5.186150027E+02  0.000000000E+00  0.00000E+00  9.000E+00
      21    -1     0     0   501   502  0.000000000E+00  0.000000000E+00 -2.439559733E+02  2.439559733E+02  0.000000000E+00  0.00000E+00  9.000E+00
      25     1     1     2     0     0  1.052691815E+02  6.212844024E+01 -6.381925993E+01  1.861167418E+02  1.250000000E+02  0.00000E+00  9.000E+00
      25     1     1     2     0     0 -8.831544965E+01 -2.240918919E+02  1.032333331E+02  2.903427556E+02  1.250000000E+02  0.00000E+00  9.000E+00
      21     1     1     2   511   502 -1.695373183E+01  1.619634517E+02  2.352449562E+02  2.861114785E+02  4.672030912E-06  0.00000E+00  9.000E+00
#rwgt            1           1   2.3568359456789468E-002           4      142992           0
</event>
<event>
      5   9999  3.19816E-02  4.40078E+01 -1.00000E+00  1.42314E-01
      21    -1     0     0   512   501  0.000000000E+00  0.000000000E+00  4.753757564E+02  4.753757564E+02  0.000000000E+00  0.00000E+00  9.000E+00
      21    -1     0     0   501   502  0.000000000E+00  0.000000000E+00 -7.269094182E+02  7.269094182E+02  0.000000000E+00  0.00000E+00  9.000E+00
      25     1     1     2     0     0  1.726986541E+02 -2.589888331E+00 -4.142342775E+02  4.658825703E+02  1.250000000E+02  0.00000E+00  9.000E+00
      25     1     1     2     0     0 -2.112275478E+02 -1.867532416E+01 -2.325972950E+02  3.386625848E+02  1.250000000E+02  0.00000E+00  9.000E+00
      21     1     1     2   512   502  3.852889365E+01  2.126521249E+01  3.952979107E+02  3.977400195E+02  9.344061824E-06  0.00000E+00  9.000E+00
#rwgt            1           1   2.7817275124012684E-002           4      143041           0
</event>
<event>
      5   9999  3.19816E-02  9.25271E+01 -1.00000E+00  1.25364E-01
      21    -1     0     0   502   501  0.000000000E+00  0.000000000E+00  1.094603293E+02  1.094603293E+02  0.000000000E+00  0.00000E+00  9.000E+00
      21    -1     0     0   511   502  0.000000000E+00  0.000000000E+00 -3.949712400E+03  3.949712400E+03  0.000000000E+00  0.00000E+00  9.000E+00
      25     1     1     2     0     0  8.121536760E+01  6.744874998E+01 -1.278276541E+03  1.288705236E+03  1.250000000E+02  0.00000E+00  9.000E+00
      25     1     1     2     0     0 -1.081633661E+02  2.106716741E+01  3.629943519E+01  1.705455608E+02  1.250000000E+02  0.00000E+00  9.000E+00
      21     1     1     2   511   501  2.694799851E+01 -8.851591738E+01 -2.598274966E+03  2.599921933E+03  4.315837288E-05  0.00000E+00  9.000E+00
#rwgt            1           1   2.6247392653970442E-002           4      143122           0
</event>
<event>
      5   9999  3.19816E-02  3.57814E+01 -1.00000E+00  1.47907E-01
      21    -1     0     0   502   512  0.000000000E+00  0.000000000E+00  1.551580455E+02  1.551580455E+02  0.000000000E+00  0.00000E+00  9.000E+00
      21    -1     0     0   501   502  0.000000000E+00  0.000000000E+00 -7.417508312E+02  7.417508312E+02  0.000000000E+00  0.00000E+00  9.000E+00
      25     1     1     2     0     0 -1.756195609E+02  2.337415300E+02 -3.008578469E+02  4.377416785E+02  1.250000000E+02  0.00000E+00  9.000E+00
      25     1     1     2     0     0  1.660158645E+02 -1.992730513E+02 -3.042457640E+02  4.188812495E+02  1.250000000E+02  0.00000E+00  9.000E+00
      21     1     1     2   501   512  9.603696401E+00 -3.446847879E+01  1.851082526E+01  4.028594874E+01  9.233911863E-07  0.00000E+00  9.000E+00
#rwgt            1           1   2.8281701060923068E-002           4      143192           0
</event>
<event>
      5   9999  3.19816E-02  1.08928E+02 -1.00000E+00  1.22180E-01
      21    -1     0     0   502   501  0.000000000E+00  0.000000000E+00  1.552459199E+02  1.552459199E+02  0.000000000E+00  0.00000E+00  9.000E+00
       2    -1     0     0   501     0  0.000000000E+00  0.000000000E+00 -2.582093226E+03  2.582093226E+03  0.000000000E+00  0.00000E+00  9.000E+00
      25     1     1     2     0     0 -1.264995899E+02 -3.318014997E+01 -5.925008787E+02  6.195041242E+02  1.250000000E+02  0.00000E+00  9.000E+00
      25     1     1     2     0     0  2.328210625E+02  5.686538588E+01  9.792920308E+00  2.704814606E+02  1.250000000E+02  0.00000E+00  9.000E+00
       2     1     1     2   502     0 -1.063214726E+02 -2.368523592E+01 -1.844139348E+03  1.847353561E+03  2.157918644E-05  0.00000E+00  9.000E+00
#rwgt            1           1   2.3474512826662085E-002           4      143326           0
</event>
<event>
      5   9999  3.19816E-02  9.56596E+00 -1.00000E+00  1.98012E-01
      21    -1     0     0   502   501  0.000000000E+00  0.000000000E+00  2.490134457E+02  2.490134457E+02  0.000000000E+00  0.00000E+00  9.000E+00
      21    -1     0     0   511   502  0.000000000E+00  0.000000000E+00 -8.937994309E+02  8.937994309E+02  0.000000000E+00  0.00000E+00  9.000E+00
      25     1     1     2     0     0  6.477408058E+01 -4.449612637E+02 -2.763897539E+02  5.424043729E+02  1.250000000E+02  0.00000E+00  9.000E+00
      25     1     1     2     0     0 -5.879602686E+01  4.374932983E+02 -3.416996908E+02  5.720498559E+02  1.250000000E+02  0.00000E+00  9.000E+00
      21     1     1     2   511   501 -5.978053722E+00  7.467965349E+00 -2.669654045E+01  2.835864780E+01  3.371747881E-07  0.00000E+00  9.000E+00
#rwgt            1           1   2.8388132798224001E-002           4      143395           0
</event>
<event>
      5   9999  3.19816E-02  1.03577E+02 -1.00000E+00  1.23145E-01
      21    -1     0     0   512   501  0.000000000E+00  0.000000000E+00  1.062947292E+03  1.062947292E+03  0.000000000E+00  0.00000E+00  9.000E+00
      21    -1     0     0   501   502  0.000000000E+00  0.000000000E+00 -9.294823458E+01  9.294823458E+01  0.000000000E+00  0.00000E+00  9.000E+00
      25     1     1     2     0     0 -1.546256833E+02  3.311894213E+01  1.999170572E+02  2.838975097E+02  1.250000000E+02  0.00000E+00  9.000E+00
      25     1     1     2     0     0  2.579088279E+02 -2.531680070E+01  4.372511989E+02  5.234228833E+02  1.250000000E+02  0.00000E+00  9.000E+00
      21     1     1     2   512   502 -1.032831446E+02 -7.802141430E+00  3.328308010E+02  3.485751332E+02  3.814697266E-06  0.00000E+00  9.000E+00
#rwgt            1           1   3.0148089797569687E-002           4      143708           0
</event>
<event>
      5   9999  3.19816E-02  3.35812E+01 -1.00000E+00  1.49714E-01
       2    -1     0     0   502     0  0.000000000E+00  0.000000000E+00  2.468037361E+03  2.468037361E+03  0.000000000E+00  0.00000E+00  9.000E+00
      21    -1     0     0   501   502  0.000000000E+00  0.000000000E+00 -1.748536888E+02  1.748536888E+02  0.000000000E+00  0.00000E+00  9.000E+00
      25     1     1     2     0     0  5.999066731E+01  3.339788242E+02  1.097396184E+02  3.779001442E+02  1.250000000E+02  0.00000E+00  9.000E+00
      25     1     1     2     0     0 -6.169442655E+01 -3.004408621E+02  6.350195930E+02  7.162023438E+02  1.250000000E+02  0.00000E+00  9.000E+00
       2     1     1     2   501     0  1.703759245E+00 -3.353796213E+01  1.548424460E+03  1.548788561E+03  3.737624730E-05  0.00000E+00  9.000E+00
#rwgt            1           1   2.7132682281048908E-002           4      143747           0
</event>
<event>
      5   9999  3.19816E-02  1.27348E+02 -1.00000E+00  1.19283E-01
      21    -1     0     0   502   501  0.000000000E+00  0.000000000E+00  3.565145210E+02  3.565145210E+02  0.000000000E+00  0.00000E+00  9.000E+00
      -3    -1     0     0     0   502  0.000000000E+00  0.000000000E+00 -7.756319217E+02  7.756319217E+02  0.000000000E+00  0.00000E+00  9.000E+00
      25     1     1     2     0     0  1.865901122E+01 -2.355791250E+02  1.242990443E+02  2.948235663E+02  1.250000000E+02  0.00000E+00  9.000E+00
      25     1     1     2     0     0  9.675815014E+01  2.893984137E+02 -5.716726010E+01  3.346739863E+02  1.250000000E+02  0.00000E+00  9.000E+00
      -3     1     1     2     0   501 -1.154171614E+02 -5.381928869E+01 -4.862491849E+02  5.026488902E+02  5.394796609E-06  0.00000E+00  9.000E+00
#rwgt            1           1   2.6470430316620167E-002           4      143840           0
</event>
<event>
      5   9999  3.19816E-02  6.74714E+01 -1.00000E+00  1.32035E-01
      21    -1     0     0   502   501  0.000000000E+00  0.000000000E+00  3.881646128E+02  3.881646128E+02  0.000000000E+00  0.00000E+00  9.000E+00
      21    -1     0     0   511   502  0.000000000E+00  0.000000000E+00 -4.628798737E+02  4.628798737E+02  0.000000000E+00  0.00000E+00  9.000E+00
      25     1     1     2     0     0  5.035383186E+01 -2.851142855E+02 -1.671070732E+02  3.568969572E+02  1.250000000E+02  0.00000E+00  9.000E+00
      25     1     1     2     0     0 -3.209148405E+00  3.333820310E+02  1.672373575E+02  3.933792203E+02  1.250000000E+02  0.00000E+00  9.000E+00
      21     1     1     2   511   501 -4.714468345E+01 -4.826774553E+01 -7.484554522E+01  1.007683089E+02  0.000000000E+00  0.00000E+00  9.000E+00
#rwgt            1           1   2.5656818820315942E-002           4      143924           0
</event>
<event>
      5   9999  3.25522E-02  4.01550E+01 -1.00000E+00  1.44736E-01
      21    -1     0     0   502   512  0.000000000E+00  0.000000000E+00  8.439602656E+02  8.439602656E+02  0.000000000E+00  0.00000E+00  9.000E+00
      21    -1     0     0   501   502  0.000000000E+00  0.000000000E+00 -1.187399469E+02  1.187399469E+02  0.000000000E+00  0.00000E+00  9.000E+00
      25     1     1     2     0     0 -1.702647501E+01 -1.835517722E+02  5.114027372E+01  2.285201994E+02  1.250000000E+02  0.00000E+00  9.000E+00
      25     1     1     2     0     0  5.009958112E+01  2.063244982E+02  5.275733994E+02  5.822700905E+02  1.250000000E+02  0.00000E+00  9.000E+00
      21     1     1     2   501   512 -3.307310611E+01 -2.277272602E+01  1.465066456E+02  1.519099227E+02  2.697398305E-06  0.00000E+00  9.000E+00
#rwgt            1           1   2.8496546373095327E-002           4      144017           0
</event>
<event>
      5   9999  3.19816E-02  2.04639E+02 -1.00000E+00  1.11287E-01
      21    -1     0     0   502   501  0.000000000E+00  0.000000000E+00  1.955747808E+02  1.955747808E+02  0.000000000E+00  0.00000E+00  9.000E+00
      21    -1     0     0   501   511  0.000000000E+00  0.000000000E+00 -7.056307539E+02  7.056307539E+02  0.000000000E+00  0.00000E+00  9.000E+00
      25     1     1     2     0     0 -1.827511999E+02  2.508711587E+01 -3.460205183E+02  4.115611297E+02  1.250000000E+02  0.00000E+00  9.000E+00
      25     1     1     2     0     0 -2.026117753E+01  6.653345957E-01  9.588089576E+01  1.588367217E+02  1.250000000E+02  0.00000E+00  9.000E+00
      21     1     1     2   502   511  2.030123774E+02 -2.575245047E+01 -2.599163506E+02  3.308076834E+02  3.814697266E-06  0.00000E+00  9.000E+00
#rwgt            1           1   2.9091611063246262E-002           4      144124           0
</event>
<event>
      5   9999  3.19816E-02  2.86417E+01 -1.00000E+00  1.54451E-01
       2    -1     0     0   502     0  0.000000000E+00  0.000000000E+00  3.724798795E+02  3.724798795E+02  0.000000000E+00  0.00000E+00  9.000E+00
      21    -1     0     0   501   502  0.000000000E+00  0.000000000E+00 -1.217044276E+03  1.217044276E+03  0.000000000E+00  0.00000E+00  9.000E+00
      25     1     1     2     0     0 -3.482189249E+01  4.167983288E+01  2.508509374E+01  1.385786224E+02  1.250000000E+02  0.00000E+00  9.000E+00
      25     1     1     2     0     0  3.259365743E+01 -7.023471125E+01 -1.154919167E+03  1.164241618E+03  1.250000000E+02  0.00000E+00  9.000E+00
       2     1     1     2   501     0  2.228235056E+00  2.855487838E+01  2.852696774E+02  2.867039152E+02  5.394796609E-06  0.00000E+00  9.000E+00
#rwgt            1           1   2.7802561702439398E-002           4      144156           0
</event>
<event>
      5   9999  3.19816E-02  7.75424E+02 -1.00000E+00  9.37237E-02
      21    -1     0     0   511   501  0.000000000E+00  0.000000000E+00  1.904553808E+03  1.904553808E+03  0.000000000E+00  0.00000E+00  9.000E+00
      21    -1     0     0   501   502  0.000000000E+00  0.000000000E+00 -8.963572260E+02  8.963572260E+02  0.000000000E+00  0.00000E+00  9.000E+00
      25     1     1     2     0     0 -5.489978173E+02 -4.108152497E+02 -2.170285881E+02  7.299960143E+02  1.250000000E+02  0.00000E+00  9.000E+00
      25     1     1     2     0     0 -8.629774638E+01 -3.379926057E+01 -3.122994580E+02  3.489206823E+02  1.250000000E+02  0.00000E+00  9.000E+00
      21     1     1     2   511   502  6.352955637E+02  4.446145103E+02  1.537524628E+03  1.721994337E+03  2.157918644E-05  0.00000E+00  9.000E+00
#rwgt            2          11   9.4056701506974316E-003           4      144350           0
</event>
<event>
      5   9999  3.19816E-02  1.02509E+01 -1.00000E+00  1.94521E-01
      21    -1     0     0   502   501  0.000000000E+00  0.000000000E+00  5.083454135E+01  5.083454135E+01  0.000000000E+00  0.00000E+00  9.000E+00
      21    -1     0     0   512   502  0.000000000E+00  0.000000000E+00 -5.019093800E+02  5.019093800E+02  0.000000000E+00  0.00000E+00  9.000E+00
      25     1     1     2     0     0  5.890694312E+01 -1.886003955E+01 -1.102365376E+02  1.777718292E+02  1.250000000E+02  0.00000E+00  9.000E+00
      25     1     1     2     0     0 -5.567860208E+01  2.858931756E+01 -2.765825028E+02  3.099037539E+02  1.250000000E+02  0.00000E+00  9.000E+00
      21     1     1     2   512   501 -3.228341045E+00 -9.729278004E+00 -6.425579829E+01  6.506833831E+01  1.651812370E-06  0.00000E+00  9.000E+00
#rwgt            1           1   3.9361818587856770E-002           4      144370           0
</event>
<event>
      5   9999  3.19816E-02  9.62733E+01 -1.00000E+00  1.24574E-01
      21    -1     0     0   502   501  0.000000000E+00  0.000000000E+00  2.275185252E+02  2.275185252E+02  0.000000000E+00  0.00000E+00  9.000E+00
       2    -1     0     0   501     0  0.000000000E+00  0.000000000E+00 -2.937446159E+03  2.937446159E+03  0.000000000E+00  0.00000E+00  9.000E+00
      25     1     1     2     0     0  1.637458897E+02 -1.469800540E+02  1.969182567E+00  2.530706035E+02  1.250000000E+02  0.00000E+00  9.000E+00
      25     1     1     2     0     0 -2.508281963E+02  1.059285815E+02 -1.273316481E+02  3.255364757E+02  1.250000000E+02  0.00000E+00  9.000E+00
       2     1     1     2   502     0  8.708230654E+01  4.105147252E+01 -2.584565168E+03  2.586357605E+03  4.315837288E-05  0.00000E+00  9.000E+00
#rwgt            1           1   2.8965527755241364E-002           4      144523           0
</event>
<event>
      5   9999  3.19816E-02  1.11798E+02 -1.00000E+00  1.21688E-01
      21    -1     0     0   502   501  0.000000000E+00  0.000000000E+00  4.022125391E+02  4.022125391E+02  0.000000000E+00  0.00000E+00  9.000E+00
      21    -1     0     0   501   511  0.000000000E+00  0.000000000E+00 -1.179028547E+03  1.179028547E+03  0.000000000E+00  0.00000E+00  9.000E+00
      25     1     1     2     0     0 -1.412916722E+01  3.222544688E+02 -1.004671740E+03  1.062561942E+03  1.250000000E+02  0.00000E+00  9.000E+00
      25     1     1     2     0     0  8.827714998E+00 -2.105818946E+02  2.986774315E+02  3.863364738E+02  1.250000000E+02  0.00000E+00  9.000E+00
      21     1     1     2   502   511  5.301452219E+00 -1.116725741E+02 -7.082169946E+01  1.323426701E+02  9.536743164E-07  0.00000E+00  9.000E+00
#rwgt            1           1   3.3748805840844477E-002           4      144578           0
</event>
<event>
      5   9999  3.19816E-02  2.64563E+01 -1.00000E+00  1.56931E-01
      21    -1     0     0   502   501  0.000000000E+00  0.000000000E+00  6.380756224E+02  6.380756224E+02  0.000000000E+00  0.00000E+00  9.000E+00
      21    -1     0     0   512   502  0.000000000E+00  0.000000000E+00 -9.781681805E+01  9.781681805E+01  0.000000000E+00  0.00000E+00  9.000E+00
      25     1     1     2     0     0  1.181300355E+02  1.509889582E+02  2.835616898E+02  3.643962167E+02  1.250000000E+02  0.00000E+00  9.000E+00
      25     1     1     2     0     0 -9.417226984E+01 -1.397658191E+02  2.699487161E+02  3.419067269E+02  1.250000000E+02  0.00000E+00  9.000E+00
      21     1     1     2   512   501 -2.395776564E+01 -1.122313908E+01 -1.325160150E+01  2.958949691E+01  7.152557373E-07  0.00000E+00  9.000E+00
#rwgt            1           1   2.9057477831317166E-002           4      144683           0
</event>
<event>
      5   9999  3.19816E-02  9.44121E+02 -1.00000E+00  9.15947E-02
      21    -1     0     0   502   501  0.000000000E+00  0.000000000E+00  7.714884415E+02  7.714884415E+02  0.000000000E+00  0.00000E+00  9.000E+00
       2    -1     0     0   501     0  0.000000000E+00  0.000000000E+00 -2.665219561E+03  2.665219561E+03  0.000000000E+00  0.00000E+00  9.000E+00
      25     1     1     2     0     0 -9.523373494E+02  2.430858897E+02 -1.053062664E+03  1.445891818E+03  1.250000000E+02  0.00000E+00  9.000E+00
      25     1     1     2     0     0  3.249202947E+01 -3.036978749E+01  4.059217490E+02  4.270544723E+02  1.250000000E+02  0.00000E+00  9.000E+00
       2     1     1     2   502     0  9.198453199E+02 -2.127161022E+02 -1.246590205E+03  1.563761712E+03  0.000000000E+00  0.00000E+00  9.000E+00
#rwgt            2          13   8.9325271022549124E-004           4      144880           0
</event>
<event>
      5   9999  3.19816E-02  2.99919E+01 -1.00000E+00  1.53048E-01
      21    -1     0     0   502   511  0.000000000E+00  0.000000000E+00  1.420801779E+02  1.420801779E+02  0.000000000E+00  0.00000E+00  9.000E+00
      21    -1     0     0   501   502  0.000000000E+00  0.000000000E+00 -6.590575862E+02  6.590575862E+02  0.000000000E+00  0.00000E+00  9.000E+00
      25     1     1     2     0     0 -1.458326381E+02  1.386812477E+02 -1.940221959E+02  3.062176665E+02  1.250000000E+02  0.00000E+00  9.000E+00
      25     1     1     2     0     0  1.161988006E+02 -1.340606012E+02 -3.759113072E+02  4.340607296E+02  1.250000000E+02  0.00000E+00  9.000E+00
      21     1     1     2   501   511  2.963383752E+01 -4.620646441E+00  5.295609475E+01  6.085936798E+01  9.536743164E-07  0.00000E+00  9.000E+00
#rwgt            1           1   2.7770390248441870E-002           4      144899           0
</event>
<event>
      5   9999  3.19816E-02  1.10597E+02 -1.00000E+00  1.21892E-01
      21    -1     0     0   512   501  0.000000000E+00  0.000000000E+00  1.456255272E+02  1.456255272E+02  0.000000000E+00  0.00000E+00  9.000E+00
      21    -1     0     0   501   502  0.000000000E+00  0.000000000E+00 -1.260303557E+03  1.260303557E+03  0.000000000E+00  0.00000E+00  9.000E+00
      25     1     1     2     0     0 -2.314675696E+02  4.518268498E+01 -2.775182700E+02  3.850455830E+02  1.250000000E+02  0.00000E+00  9.000E+00
      25     1     1     2     0     0  2.381078585E+02  6.521502478E+01 -8.638689054E+02  9.071068501E+02  1.250000000E+02  0.00000E+00  9.000E+00
      21     1     1     2   512   502 -6.640288845E+00 -1.103977098E+02  2.670914605E+01  1.137766507E+02  1.685873940E-06  0.00000E+00  9.000E+00
#rwgt            2          11   3.3251402453687386E-003           4      145069           0
</event>
<event>
      5   9999  3.19816E-02  1.47021E+02 -1.00000E+00  1.16740E-01
      21    -1     0     0   502   501  0.000000000E+00  0.000000000E+00  2.359619521E+02  2.359619521E+02  0.000000000E+00  0.00000E+00  9.000E+00
       2    -1     0     0   501     0  0.000000000E+00  0.000000000E+00 -3.664254307E+03  3.664254307E+03  0.000000000E+00  0.00000E+00  9.000E+00
      25     1     1     2     0     0 -3.111392723E+02 -1.879613043E+02 -1.131973541E+02  4.007190283E+02  1.250000000E+02  0.00000E+00  9.000E+00
      25     1     1     2     0     0  2.441174658E+02  3.188173693E+02 -3.990378738E+02  5.797362132E+02  1.250000000E+02  0.00000E+00  9.000E+00
       2     1     1     2   502     0  6.702180651E+01 -1.308560650E+02 -2.916057127E+03  2.919761017E+03  4.315837288E-05  0.00000E+00  9.000E+00
#rwgt            1           1   2.7620014921852280E-002           4      145119           0
</event>
<event>
      5   9999  3.19816E-02  1.77512E+01 -1.00000E+00  1.70760E-01
      21    -1     0     0   502   501  0.000000000E+00  0.000000000E+00  1.612933226E+02  1.612933226E+02  0.000000000E+00  0.00000E+00  9.000E+00
      21    -1     0     0   511   502  0.000000000E+00  0.000000000E+00 -1.896495419E+03  1.896495419E+03  0.000000000E+00  0.00000E+00  9.000E+00
      25     1     1     2     0     0  3.691499277E+02  3.416228816E+02 -6.242761867E+02  8.113714437E+02  1.250000000E+02  0.00000E+00  9.000E+00
      25     1     1     2     0     0 -3.868532340E+02 -3.429263275E+02 -9.865893791E+02  1.120820010E+03  1.250000000E+02  0.00000E+00  9.000E+00
      21     1     1     2   511   501  1.770330628E+01  1.303445890E+00 -1.243365307E+02  1.255972886E+02  0.000000000E+00  0.00000E+00  9.000E+00
#rwgt            1           1   2.7755054885677439E-002           4      145199           0
</event>
<event>
      5   9999  3.19816E-02  1.93253E+01 -1.00000E+00  1.67608E-01
      21    -1     0     0   512   501  0.000000000E+00  0.000000000E+00  1.762073767E+03  1.762073767E+03  0.000000000E+00  0.00000E+00  9.000E+00
      21    -1     0     0   501   502  0.000000000E+00  0.000000000E+00 -2.034481600E+02  2.034481600E+02  0.000000000E+00  0.00000E+00  9.000E+00
      25     1     1     2     0     0 -2.465426270E+01  9.123276298E+01 -1.341918950E+02  2.063097535E+02  1.250000000E+02  0.00000E+00  9.000E+00
      25     1     1     2     0     0  4.140011314E+01 -1.008786261E+02  1.744600773E+02  2.407317702E+02  1.250000000E+02  0.00000E+00  9.000E+00
      21     1     1     2   512   502 -1.674585045E+01  9.645863158E+00  1.518357425E+03  1.518480403E+03  2.157918644E-05  0.00000E+00  9.000E+00
#rwgt            1           1   2.5138118954888534E-002           4      145436           0
</event>
<event>
      5   9999  3.19816E-02  6.54139E+01 -1.00000E+00  1.32729E-01
      21    -1     0     0   502   511  0.000000000E+00  0.000000000E+00  6.670064736E+02  6.670064736E+02  0.000000000E+00  0.00000E+00  9.000E+00
      21    -1     0     0   501   502  0.000000000E+00  0.000000000E+00 -9.458368871E+02  9.458368871E+02  0.000000000E+00  0.00000E+00  9.000E+00
      25     1     1     2     0     0 -3.797059237E+02 -6.065090042E+01  3.883982655E+02  5.606543791E+02  1.250000000E+02  0.00000E+00  9.000E+00
      25     1     1     2     0     0  3.461083253E+02  4.524474879E+00 -8.129988153E+02  8.924144314E+02  1.250000000E+02  0.00000E+00  9.000E+00
      21     1     1     2   501   511  3.359759846E+01  5.612642554E+01  1.457701363E+02  1.597745502E+02  2.697398305E-06  0.00000E+00  9.000E+00
#rwgt            1           1   2.1753138900896533E-002           4      145597           0
</event>
<event>
      5   9999  3.19816E-02  6.26509E+00 -1.00000E+00  2.22595E-01
      21    -1     0     0   502   501  0.000000000E+00  0.000000000E+00  5.788280824E+02  5.788280824E+02  0.000000000E+00  0.00000E+00  9.000E+00
      21    -1     0     0   512   502  0.000000000E+00  0.000000000E+00 -2.143498931E+02  2.143498931E+02  0.000000000E+00  0.00000E+00  9.000E+00
      25     1     1     2     0     0  5.668345038E+01 -2.180146585E+01  5.418509094E+02  5.593887069E+02  1.250000000E+02  0.00000E+00  9.000E+00
      25     1     1     2     0     0 -5.841226890E+01  1.577963195E+01 -1.796980793E+02  2.271065601E+02  1.250000000E+02  0.00000E+00  9.000E+00
      21     1     1     2   512   501  1.728818515E+00  6.021833896E+00  2.325359275E+00  6.682708485E+00  7.884953353E-08  0.00000E+00  9.000E+00
#rwgt            1           1   2.9413627909167021E-002           4      145719           0
</event>
<event>
      5   9999  3.36194E-02  1.53834E+01 -1.00000E+00  1.76357E-01
      21    -1     0     0   502   501  0.000000000E+00  0.000000000E+00  2.760554819E+01  2.760554819E+01  0.000000000E+00  0.00000E+00  9.000E+00
      21    -1     0     0   501   511  0.000000000E+00  0.000000000E+00 -1.235688421E+03  1.235688421E+03  0.000000000E+00  0.00000E+00  9.000E+00
      25     1     1     2     0     0 -4.976938258E+01  8.058574800E+01 -3.342668336E+02  3.692294277E+02  1.250000000E+02  0.00000E+00  9.000E+00
      25     1     1     2     0     0  6.354750170E+01 -7.374378963E+01 -6.248297893E+02  6.446035193E+02  1.250000000E+02  0.00000E+00  9.000E+00
      21     1     1     2   502   511 -1.377811911E+01 -6.841958372E+00 -2.489862500E+02  2.494610223E+02  0.000000000E+00  0.00000E+00  9.000E+00
#rwgt            1           1   5.1546388316896827E-002           4      146060           0
</event>
<event>
      5   9999  3.19816E-02  6.78976E+01 -1.00000E+00  1.31895E-01
      21    -1     0     0   502   501  0.000000000E+00  0.000000000E+00  8.978530607E+02  8.978530607E+02  0.000000000E+00  0.00000E+00  9.000E+00
      21    -1     0     0   501   512  0.000000000E+00  0.000000000E+00 -8.131873929E+02  8.131873929E+02  0.000000000E+00  0.00000E+00  9.000E+00
      25     1     1     2     0     0 -1.078389498E+02  5.116698458E+02 -5.420095792E+02  7.634360839E+02  1.250000000E+02  0.00000E+00  9.000E+00
      25     1     1     2     0     0  1.670405538E+02 -4.784244842E+02  6.828525746E+02  8.594795939E+02  1.250000000E+02  0.00000E+00  9.000E+00
      21     1     1     2   502   512 -5.920160398E+01 -3.324536154E+01 -5.617732753E+01  8.812477578E+01  1.651812370E-06  0.00000E+00  9.000E+00
#rwgt            1           1   3.1340844352777154E-002           4      146220           0
</event>
<event>
      5   9999  3.19816E-02  6.63816E+01 -1.00000E+00  1.32399E-01
      21    -1     0     0   511   501  0.000000000E+00  0.000000000E+00  1.891457156E+03  1.891457156E+03  0.000000000E+00  0.00000E+00  9.000E+00
      21    -1     0     0   501   502  0.000000000E+00  0.000000000E+00 -1.314412627E+02  1.314412627E+02  0.000000000E+00  0.00000E+00  9.000E+00
      25     1     1     2     0     0 -3.099974804E+02  3.390934871E+01  1.562505199E+02  3.705232878E+02  1.250000000E+02  0.00000E+00  9.000E+00
      25     1     1     2     0     0  2.918624122E+02  2.994707055E+01  1.453904211E+03  1.488470003E+03  1.250000000E+02  0.00000E+00  9.000E+00
      21     1     1     2   511   502  1.813506826E+01 -6.385641926E+01  1.498611618E+02  1.639051274E+02  0.000000000E+00  0.00000E+00  9.000E+00
#rwgt            1           1   3.1320382123072824E-002           4      146386           0
</event>
<event>
      5   9999  3.19816E-02  8.13445E+01 -1.00000E+00  1.28000E-01
      21    -1     0     0   502   501  0.000000000E+00  0.000000000E+00  1.445476528E+03  1.445476528E+03  0.000000000E+00  0.00000E+00  9.000E+00
      21    -1     0     0   501   512  0.000000000E+00  0.000000000E+00 -4.585269019E+02  4.585269019E+02  0.000000000E+00  0.00000E+00  9.000E+00
      25     1     1     2     0     0  5.365511509E+02 -5.688011787E+02  3.242612825E+02  8.556823580E+02  1.250000000E+02  0.00000E+00  9.000E+00
      25     1     1     2     0     0 -4.563513816E+02  5.552026674E+02  6.142808183E+02  9.536626810E+02  1.250000000E+02  0.00000E+00  9.000E+00
      21     1     1     2   502   512 -8.019976931E+01  1.359851134E+01  4.840752545E+01  9.465839121E+01  1.168007728E-06  0.00000E+00  9.000E+00
#rwgt            1           1   3.2130714171165843E-002           4      146512           0
</event>
<event>
      5   9999  3.19816E-02  2.02940E+02 -1.00000E+00  1.11418E-01
      21    -1     0     0   502   501  0.000000000E+00  0.000000000E+00  8.470321552E+02  8.470321552E+02  0.000000000E+00  0.00000E+00  9.000E+00
      -2    -1     0     0     0   502  0.000000000E+00  0.000000000E+00 -1.124958925E+03  1.124958925E+03  0.000000000E+00  0.00000E+00  9.000E+00
      25     1     1     2     0     0 -7.328660748E+01  6.081476482E+02  2.144471951E+02  6.609289586E+02  1.250000000E+02  0.00000E+00  9.000E+00
      25     1     1     2     0     0  2.727079631E+02 -6.457754388E+02  6.778660034E+01  7.152730763E+02  1.250000000E+02  0.00000E+00  9.000E+00
      -2     1     1     2     0   501 -1.994213556E+02  3.762779060E+01 -5.601605653E+02  5.957890454E+02  1.078959322E-05  0.00000E+00  9.000E+00
#rwgt            2           9   8.9773532111822767E-005           4      146629           0
</event>
<event>
      5   9999  3.19816E-02  2.71156E+01 -1.00000E+00  1.56153E-01
      21    -1     0     0   502   511  0.000000000E+00  0.000000000E+00  1.244540564E+02  1.244540564E+02  0.000000000E+00  0.00000E+00  9.000E+00
      21    -1     0     0   501   502  0.000000000E+00  0.000000000E+00 -5.947899935E+02  5.947899935E+02  0.000000000E+00  0.00000E+00  9.000E+00
      25     1     1     2     0     0 -4.292049192E+01 -1.449637771E+02 -3.821145547E+02  4.295267142E+02  1.250000000E+02  0.00000E+00  9.000E+00
      25     1     1     2     0     0  6.780459305E+01  1.341917957E+02 -1.336314917E+02  2.368275247E+02  1.250000000E+02  0.00000E+00  9.000E+00
      21     1     1     2   501   511 -2.488410113E+01  1.077198132E+01  4.541010933E+01  5.288981093E+01  1.651812370E-06  0.00000E+00  9.000E+00
#rwgt            1           1   2.4702893931092582E-002           4      146648           0
</event>
<event>
      5   9999  3.19816E-02  6.07285E+01 -1.00000E+00  1.34424E-01
      21    -1     0     0   502   501  0.000000000E+00  0.000000000E+00  5.001628146E+02  5.001628146E+02  0.000000000E+00  0.00000E+00  9.000E+00
      21    -1     0     0   512   502  0.000000000E+00  0.000000000E+00 -2.547169581E+02  2.547169581E+02  0.000000000E+00  0.00000E+00  9.000E+00
      25     1     1     2     0     0 -1.022048941E+02  1.124553302E+02  3.707666431E+02  4.197439044E+02  1.250000000E+02  0.00000E+00  9.000E+00
      25     1     1     2     0     0  1.610028312E+02 -1.276459299E+02 -1.314835580E+02  2.740954598E+02  1.250000000E+02  0.00000E+00  9.000E+00
      21     1     1     2   512   501 -5.879793709E+01  1.519059962E+01  6.162771501E+00  6.104040855E+01  1.395308961E-06  0.00000E+00  9.000E+00
#rwgt            1           1   2.8579457450750384E-002           4      146707           0
</event>
<event>
      5   9999  3.19816E-02  3.43649E+01 -1.00000E+00  1.49052E-01
      21    -1     0     0   511   501  0.000000000E+00  0.000000000E+00  9.330775613E+01  9.330775613E+01  0.000000000E+00  0.00000E+00  9.000E+00
      21    -1     0     0   501   502  0.000000000E+00  0.000000000E+00 -6.378168081E+02  6.378168081E+02  0.000000000E+00  0.00000E+00  9.000E+00
      25     1     1     2     0     0 -3.235745976E+01 -2.855135575E+00 -5.018221557E+02  5.181752917E+02  1.250000000E+02  0.00000E+00  9.000E+00
      25     1     1     2     0     0  6.157082392E+01  2.095282683E+01 -8.015320960E+01  1.621096059E+02  1.250000000E+02  0.00000E+00  9.000E+00
      21     1     1     2   511   502 -2.921336416E+01 -1.809769125E+01  3.746631330E+01  5.083966666E+01  8.259061849E-07  0.00000E+00  9.000E+00
#rwgt            1           1   2.9063268882107290E-002           4      146765           0
</event>
<event>
      5   9999  3.19816E-02  1.60537E+01 -1.00000E+00  1.74650E-01
      21    -1     0     0   502   501  0.000000000E+00  0.000000000E+00  4.035656874E+02  4.035656874E+02  0.000000000E+00  0.00000E+00  9.000E+00
      21    -1     0     0   512   502  0.000000000E+00  0.000000000E+00 -4.412889372E+02  4.412889372E+02  0.000000000E+00  0.00000E+00  9.000E+00
      25     1     1     2     0     0  1.455855779E+02  1.972889804E+02  2.878044718E+02  3.982141588E+02  1.250000000E+02  0.00000E+00  9.000E+00
      25     1     1     2     0     0 -1.616207513E+02 -1.965176011E+02 -2.803693737E+02  3.987134566E+02  1.250000000E+02  0.00000E+00  9.000E+00
      21     1     1     2   512   501  1.603517346E+01 -7.713793572E-01 -4.515834800E+01  4.792700917E+01  4.768371582E-07  0.00000E+00  9.000E+00
#rwgt            1           1   2.5622866604059401E-002           4      146851           0
</event>
<event>
      5   9999  3.19816E-02  7.07250E+01 -1.00000E+00  1.30994E-01
       3    -1     0     0   502     0  0.000000000E+00  0.000000000E+00  6.763045667E+01  6.763045667E+01  0.000000000E+00  0.00000E+00  9.000E+00
      21    -1     0     0   501   502  0.000000000E+00  0.000000000E+00 -2.607159618E+03  2.607159618E+03  0.000000000E+00  0.00000E+00  9.000E+00
      25     1     1     2     0     0  1.298257947E+02 -1.291855039E+02 -3.683627155E+02  4.299531620E+02  1.250000000E+02  0.00000E+00  9.000E+00
      25     1     1     2     0     0 -9.664534268E+01  1.916441495E+02 -2.158796594E+03  2.173038319E+03  1.250000000E+02  0.00000E+00  9.000E+00
       3     1     1     2   501     0 -3.318045198E+01 -6.245864561E+01 -1.236985196E+01  7.179859360E+01  2.078484985E-06  0.00000E+00  9.000E+00
#rwgt            1           1   5.8588466576712614E-002           4      147044           0
</event>
<event>
      5   9999  3.19816E-02  9.32616E+01 -1.00000E+00  1.25206E-01
      21    -1     0     0   502   501  0.000000000E+00  0.000000000E+00  1.627049948E+02  1.627049948E+02  0.000000000E+00  0.00000E+00  9.000E+00
      21    -1     0     0   511   502  0.000000000E+00  0.000000000E+00 -2.004449291E+03  2.004449291E+03  0.000000000E+00  0.00000E+00  9.000E+00
      25     1     1     2     0     0 -2.818460001E+02  3.173411442E+02 -3.868419078E+02  5.877195175E+02  1.250000000E+02  0.00000E+00  9.000E+00
      25     1     1     2     0     0  3.736907665E+02 -3.335356192E+02 -1.149400949E+03  1.260015214E+03  1.250000000E+02  0.00000E+00  9.000E+00
      21     1     1     2   511   501 -9.184476638E+01  1.619447492E+01 -3.055014393E+02  3.194195541E+02  3.814697266E-06  0.00000E+00  9.000E+00
#rwgt            1           1   2.8191025059113473E-002           4      147167           0
</event>
<event>
      5   9999  3.19816E-02  1.52670E+02 -1.00000E+00  1.16091E-01
      21    -1     0     0   502   501  0.000000000E+00  0.000000000E+00  1.294092109E+02  1.294092109E+02  0.000000000E+00  0.00000E+00  9.000E+00
      21    -1     0     0   501   512  0.000000000E+00  0.000000000E+00 -1.805990460E+03  1.805990460E+03  0.000000000E+00  0.00000E+00  9.000E+00
      25     1     1     2     0     0  3.026655780E+02 -4.708883603E+01 -2.317277143E+02  4.039140307E+02  1.250000000E+02  0.00000E+00  9.000E+00
      25     1     1     2     0     0 -3.049108318E+02 -1.055644488E+02 -8.592889880E+02  9.263460655E+02  1.250000000E+02  0.00000E+00  9.000E+00
      21     1     1     2   502   512  2.245253837E+00  1.526532848E+02 -5.855645472E+02  6.051395752E+02  1.321449896E-05  0.00000E+00  9.000E+00
#rwgt            2          11   2.1860280596965012E-003           4      147320           0
</event>
<event>
      5   9999  3.19816E-02  1.25867E+02 -1.00000E+00  1.19495E-01
       2    -1     0     0   502     0  0.000000000E+00  0.000000000E+00  1.059374113E+03  1.059374113E+03  0.000000000E+00  0.00000E+00  9.000E+00
      21    -1     0     0   501   502  0.000000000E+00  0.000000000E+00 -6.328200082E+02  6.328200082E+02  0.000000000E+00  0.00000E+00  9.000E+00
      25     1     1     2     0     0 -1.906490962E+02  2.043867189E+01  3.190544471E+02  3.926646883E+02  1.250000000E+02  0.00000E+00  9.000E+00
      25     1     1     2     0     0  2.803393643E+02  6.786911276E+01 -5.481573820E+02  6.319002224E+02  1.250000000E+02  0.00000E+00  9.000E+00
       2     1     1     2   501     0 -8.969026810E+01 -8.830778465E+01  6.556570400E+02  6.676292108E+02  1.078959322E-05  0.00000E+00  9.000E+00
#rwgt            1           1   3.2171868355644763E-002           4      147340           0
</event>
<event>
      5   9999  3.19816E-02  3.46389E+01 -1.00000E+00  1.48826E-01
      21    -1     0     0   502   501  0.000000000E+00  0.000000000E+00  6.173339147E+02  6.173339147E+02  0.000000000E+00  0.00000E+00  9.000E+00
      21    -1     0     0   501   511  0.000000000E+00  0.000000000E+00 -7.849087809E+01  7.849087809E+01  0.000000000E+00  0.00000E+00  9.000E+00
      25     1     1     2     0     0 -8.489257590E+01  9.088362390E+00  3.656523134E+02  3.957473463E+02  1.250000000E+02  0.00000E+00  9.000E+00
      25     1     1     2     0     0  1.096782052E+02 -3.328599308E+01  1.955510471E+02  2.588483689E+02  1.250000000E+02  0.00000E+00  9.000E+00
      21     1     1     2   502   511 -2.478562933E+01  2.419763069E+01 -2.236032398E+01  4.122907761E+01  8.259061849E-07  0.00000E+00  9.000E+00
#rwgt            1           1   2.9476140468304136E-002           4      147442           0
</event>
<event>
      5   9999  3.19816E-02  1.30838E+02 -1.00000E+00  1.18796E-01
      21    -1     0     0   502   501  0.000000000E+00  0.000000000E+00  4.978382768E+02  4.978382768E+02  0.000000000E+00  0.00000E+00  9.000E+00
      21    -1     0     0   512   502  0.000000000E+00  0.000000000E+00 -5.914725251E+02  5.914725251E+02  0.000000000E+00  0.00000E+00  9.000E+00
      25     1     1     2     0     0  3.026060058E+02  3.103653867E+01 -3.019621035E+02  4.464748295E+02  1.250000000E+02  0.00000E+00  9.000E+00
      25     1     1     2     0     0 -3.712522506E+02 -1.424197413E+02  2.716054472E+02  4.974998846E+02  1.250000000E+02  0.00000E+00  9.000E+00
      21     1     1     2   512   501  6.864624478E+01  1.113832026E+02 -6.327759201E+01  1.453360877E+02  1.651812370E-06  0.00000E+00  9.000E+00
#rwgt            1           1   2.7998591872774214E-002           4      147519           0
</event>
<event>
      5   9999  3.19816E-02  1.40847E+02 -1.00000E+00  1.17488E-01
      21    -1     0     0   502   501  0.000000000E+00  0.000000000E+00  3.483381395E+02  3.483381395E+02  0.000000000E+00  0.00000E+00  9.000E+00
       2    -1     0     0   501     0  0.000000000E+00  0.000000000E+00 -2.155548542E+03  2.155548542E+03  0.000000000E+00  0.00000E+00  9.000E+00
      25     1     1     2     0     0  1.880266838E+02 -5.389843472E+02 -6.285674102E+02  8.582424771E+02  1.250000000E+02  0.00000E+00  9.000E+00
      25     1     1     2     0     0 -1.614415972E+02  6.773001112E+02 -3.215534270E+02  7.770588371E+02  1.250000000E+02  0.00000E+00  9.000E+00
       2     1     1     2   502     0 -2.658508662E+01 -1.383157640E+02 -8.570895649E+02  8.685853669E+02  0.000000000E+00  0.00000E+00  9.000E+00
#rwgt            1           1   3.0166164946590784E-002           4      147585           0
</event>
<event>
      5   9999  3.19816E-02  2.70578E+02 -1.00000E+00  1.07069E-01
       1    -1     0     0   502     0  0.000000000E+00  0.000000000E+00  1.706144804E+03  1.706144804E+03  0.000000000E+00  0.00000E+00  9.000E+00
      21    -1     0     0   501   502  0.000000000E+00  0.000000000E+00 -9.151556015E+02  9.151556015E+02  0.000000000E+00  0.00000E+00  9.000E+00
      25     1     1     2     0     0  2.208003420E+02  1.030390812E+02  2.849765314E+02  3.952296380E+02  1.250000000E+02  0.00000E+00  9.000E+00
      25     1     1     2     0     0  2.731528713E+01 -2.109786192E+02 -8.284698410E+02  8.644335602E+02  1.250000000E+02  0.00000E+00  9.000E+00
       1     1     1     2   501     0 -2.481156291E+02  1.079395380E+02  1.334482512E+03  1.361637207E+03  3.051757812E-05  0.00000E+00  9.000E+00
#rwgt            1           1   2.8331887533514934E-002           4      147678           0
</event>
<event>
      5   9999  3.19816E-02  4.21673E+01 -1.00000E+00  1.43433E-01
      21    -1     0     0   502   511  0.000000000E+00  0.000000000E+00  2.761715956E+02  2.761715956E+02  0.000000000E+00  0.00000E+00  9.000E+00
      21    -1     0     0   501   502  0.000000000E+00  0.000000000E+00 -1.270205928E+02  1.270205928E+02  0.000000000E+00  0.00000E+00  9.000E+00
      25     1     1     2     0     0 -8.024222135E+01 -2.596430310E+01  1.208347891E+02  1.932330339E+02  1.250000000E+02  0.00000E+00  9.000E+00
      25     1     1     2     0     0  1.061102593E+02 -7.336281234E+00  1.139619757E+01  1.645238021E+02  1.250000000E+02  0.00000E+00  9.000E+00
      21     1     1     2   501   511 -2.586803793E+01  3.330058434E+01  1.692001610E+01  4.543535241E+01  0.000000000E+00  0.00000E+00  9.000E+00
#rwgt            1           1   2.9064780261476957E-002           4      147780           0
</event>
<event>
      5   9999  3.19816E-02  9.90100E+01 -1.00000E+00  1.24023E-01
      21    -1     0     0   502   501  0.000000000E+00  0.000000000E+00  1.505539519E+02  1.505539519E+02  0.000000000E+00  0.00000E+00  9.000E+00
      21    -1     0     0   512   502  0.000000000E+00  0.000000000E+00 -6.474389737E+02  6.474389737E+02  0.000000000E+00  0.00000E+00  9.000E+00
      25     1     1     2     0     0  3.034814073E+01 -1.431997022E+02 -8.773783600E+01  2.115421760E+02  1.250000000E+02  0.00000E+00  9.000E+00
      25     1     1     2     0     0 -1.189784057E+02  1.873319576E+02 -1.214197988E+02  2.821646521E+02  1.250000000E+02  0.00000E+00  9.000E+00
      21     1     1     2   512   501  8.863026495E+01 -4.413225539E+01 -2.877273870E+02  3.042860974E+02  3.814697266E-06  0.00000E+00  9.000E+00
#rwgt            1           1   2.6077096891956558E-002           4      147877           0
</event>
<event>
      5   9999  3.19816E-02  7.81669E+01 -1.00000E+00  1.28839E-01
      21    -1     0     0   511   501  0.000000000E+00  0.000000000E+00  2.030739825E+03  2.030739825E+03  0.000000000E+00  0.00000E+00  9.000E+00
      21    -1     0     0   501   502  0.000000000E+00  0.000000000E+00 -1.043792518E+03  1.043792518E+03  0.000000000E+00  0.00000E+00  9.000E+00
      25     1     1     2     0     0  4.756929868E+02  4.059001605E+02  1.177106437E+03  1.338746922E+03  1.250000000E+02  0.00000E+00  9.000E+00
      25     1     1     2     0     0 -5.461800652E+02 -4.396882080E+02 -8.285695803E+02  1.092607401E+03  1.250000000E+02  0.00000E+00  9.000E+00
      21     1     1     2   511   502  7.048707837E+01  3.378804751E+01  6.384104512E+02  6.431780193E+02  7.629394531E-06  0.00000E+00  9.000E+00
#rwgt            1           1   6.8038246542578451E-002           4      147923           0
</event>
<event>
      5   9999  3.19816E-02  1.34472E+01 -1.00000E+00  1.81975E-01
      21    -1     0     0   502   501  0.000000000E+00  0.000000000E+00  1.463125187E+03  1.463125187E+03  0.000000000E+00  0.00000E+00  9.000E+00
      21    -1     0     0   501   512  0.000000000E+00  0.000000000E+00 -2.502435254E+01  2.502435254E+01  0.000000000E+00  0.00000E+00  9.000E+00
      25     1     1     2     0     0  1.068705142E+02 -3.222410187E+01  4.353221408E+02  4.664655034E+02  1.250000000E+02  0.00000E+00  9.000E+00
      25     1     1     2     0     0 -1.088901842E+02  4.551873088E+01  9.819956103E+02  9.969299904E+02  1.250000000E+02  0.00000E+00  9.000E+00
      21     1     1     2   502   512  2.019669938E+00 -1.329462900E+01  2.078308306E+01  2.475404550E+01  4.129530925E-07  0.00000E+00  9.000E+00
#rwgt            1           1   3.6319234414636567E-002           4      148049           0
</event>
<event>
      5   9999  3.19816E-02  1.66274E+02 -1.00000E+00  1.14648E-01
      21    -1     0     0   511   501  0.000000000E+00  0.000000000E+00  1.215137092E+03  1.215137092E+03  0.000000000E+00  0.00000E+00  9.000E+00
      21    -1     0     0   501   502  0.000000000E+00  0.000000000E+00 -8.508627067E+01  8.508627067E+01  0.000000000E+00  0.00000E+00  9.000E+00
      25     1     1     2     0     0  1.513312393E+02  7.201932435E+01  7.381966684E+02  7.672335031E+02  1.250000000E+02  0.00000E+00  9.000E+00
      25     1     1     2     0     0  1.487911190E+01 -6.741606477E+01  4.732477684E+01  1.504358610E+02  1.250000000E+02  0.00000E+00  9.000E+00
      21     1     1     2   511   502 -1.662103512E+02 -4.603259583E+00  3.445293761E+02  3.825539986E+02  6.607249480E-06  0.00000E+00  9.000E+00
#rwgt            2          11   3.0084241256945437E-003           4      148163           0
</event>
<event>
      5   9999  3.19816E-02  1.32437E+02 -1.00000E+00  1.18578E-01
      21    -1     0     0   502   501  0.000000000E+00  0.000000000E+00  9.860103665E+02  9.860103665E+02  0.000000000E+00  0.00000E+00  9.000E+00
      21    -1     0     0   501   512  0.000000000E+00  0.000000000E+00 -1.052836317E+03  1.052836317E+03  0.000000000E+00  0.00000E+00  9.000E+00
      25     1     1     2     0     0  7.790763712E+02 -2.243441335E+02  3.578253785E+02  8.949604930E+02  1.250000000E+02  0.00000E+00  9.000E+00
      25     1     1     2     0     0 -8.967698753E+02  1.636159024E+02 -4.198332446E+02  1.011361125E+03  1.250000000E+02  0.00000E+00  9.000E+00
      21     1     1     2   502   512  1.176935041E+02  6.072823111E+01 -4.818084523E+00  1.325250651E+02  2.600156559E-06  0.00000E+00  9.000E+00
#rwgt            1           1   2.2950140405433798E-002           4      148183           0
</event>
<event>
      5   9999  3.19816E-02  8.30769E+01 -1.00000E+00  1.27561E-01
      21    -1     0     0   502   511  0.000000000E+00  0.000000000E+00  6.614665143E+02  6.614665143E+02  0.000000000E+00  0.00000E+00  9.000E+00
      21    -1     0     0   501   502  0.000000000E+00  0.000000000E+00 -2.769368806E+02  2.769368806E+02  0.000000000E+00  0.00000E+00  9.000E+00
      25     1     1     2     0     0 -5.116028495E+01  2.466285600E+02  1.376209549E+02  3.130615731E+02  1.250000000E+02  0.00000E+00  9.000E+00
      25     1     1     2     0     0 -3.191615570E+01 -2.463491563E+02 -7.893728828E+01  2.890720382E+02  1.250000000E+02  0.00000E+00  9.000E+00
      21     1     1     2   501   511  8.307644064E+01 -2.794036326E-01  3.258459671E+02  3.362697835E+02  3.814697266E-06  0.00000E+00  9.000E+00
#rwgt            1           1   2.6405048660029417E-002           4      148264           0
</event>
<event>
      5   9999  3.19816E-02  6.97009E+02 -1.00000E+00  9.49193E-02
      21    -1     0     0   502   501  0.000000000E+00  0.000000000E+00  3.134851857E+02  3.134851857E+02  0.000000000E+00  0.00000E+00  9.000E+00
       2    -1     0     0   501     0  0.000000000E+00  0.000000000E+00 -1.888947790E+03  1.888947790E+03  0.000000000E+00  0.00000E+00  9.000E+00
      25     1     1     2     0     0  1.360173100E+02 -2.617927034E+02 -2.310074138E+02  3.950007005E+02  1.250000000E+02  0.00000E+00  9.000E+00
      25     1     1     2     0     0 -7.972478126E+01 -4.329394781E+02 -2.845285535E+02  5.388637399E+02  1.250000000E+02  0.00000E+00  9.000E+00
       2     1     1     2   502     0 -5.629252870E+01  6.947321815E+02 -1.059926637E+03  1.268568535E+03  1.525878906E-05  0.00000E+00  9.000E+00
#rwgt            2          13   2.5011947941309220E-003           4      148392           0
</event>
<event>
      5   9999  3.19816E-02  2.40504E+02 -1.00000E+00  1.08808E-01
      21    -1     0     0   502   501  0.000000000E+00  0.000000000E+00  1.742386133E+02  1.742386133E+02  0.000000000E+00  0.00000E+00  9.000E+00
       2    -1     0     0   501     0  0.000000000E+00  0.000000000E+00 -2.603204847E+03  2.603204847E+03  0.000000000E+00  0.00000E+00  9.000E+00
      25     1     1     2     0     0  2.568906548E+02 -1.924819892E+02 -2.487887236E+02  4.249269980E+02  1.250000000E+02  0.00000E+00  9.000E+00
      25     1     1     2     0     0 -9.437006983E+01  1.519892171E+01  1.755800741E+00  1.573683581E+02  1.250000000E+02  0.00000E+00  9.000E+00
       2     1     1     2   502     0 -1.625205849E+02  1.772830675E+02 -2.181933311E+03  2.195148105E+03  0.000000000E+00  0.00000E+00  9.000E+00
#rwgt            2          13   2.5468171199893694E-003           4      148516           0
</event>
<event>
      5   9999  3.19816E-02  1.65373E+02 -1.00000E+00  1.14739E-01
       2    -1     0     0   502     0  0.000000000E+00  0.000000000E+00  1.997056155E+03  1.997056155E+03  0.000000000E+00  0.00000E+00  9.000E+00
      21    -1     0     0   501   502  0.000000000E+00  0.000000000E+00 -6.530574423E+02  6.530574423E+02  0.000000000E+00  0.00000E+00  9.000E+00
      25     1     1     2     0     0 -1.601671386E+01 -1.345682436E+02  4.259571345E+02  4.641439731E+02  1.250000000E+02  0.00000E+00  9.000E+00
      25     1     1     2     0     0 -1.168591214E+02  2.330180752E+02 -5.962680298E+02  6.626568048E+02  1.250000000E+02  0.00000E+00  9.000E+00
       2     1     1     2   501     0  1.328758353E+02 -9.844983155E+01  1.514309608E+03  1.523312819E+03  2.157918644E-05  0.00000E+00  9.000E+00
#rwgt            1           1   2.3063829780509575E-002           4      148535           0
</event>
<event>
      5   9999  3.19816E-02  5.23592E+01 -1.00000E+00  1.37943E-01
      21    -1     0     0   502   501  0.000000000E+00  0.000000000E+00  5.310967353E+02  5.310967353E+02  0.000000000E+00  0.00000E+00  9.000E+00
      21    -1     0     0   501   511  0.000000000E+00  0.000000000E+00 -6.041341774E+02  6.041341774E+02  0.000000000E+00  0.00000E+00  9.000E+00
      25     1     1     2     0     0  1.482137550E+01  1.443554888E+02 -4.750517396E+02  5.122082932E+02  1.250000000E+02  0.00000E+00  9.000E+00
      25     1     1     2     0     0  2.795585088E+01 -1.745480483E+02  4.814462050E+02  5.278863505E+02  1.250000000E+02  0.00000E+00  9.000E+00
      21     1     1     2   502   511 -4.277722638E+01  3.019255944E+01 -7.943190744E+01  9.513626891E+01  1.907348633E-06  0.00000E+00  9.000E+00
#rwgt            1           1   2.6071852703332666E-002           4      148621           0
</event>
<event>
      5   9999  3.19816E-02  4.87422E+01 -1.00000E+00  1.39710E-01
      21    -1     0     0   502   501  0.000000000E+00  0.000000000E+00  1.123421912E+03  1.123421912E+03  0.000000000E+00  0.00000E+00  9.000E+00
      21    -1     0     0   501   512  0.000000000E+00  0.000000000E+00 -2.168628306E+02  2.168628306E+02  0.000000000E+00  0.00000E+00  9.000E+00
      25     1     1     2     0     0 -1.730861411E+02  3.710556826E+02  2.152068800E+02  4.791452108E+02  1.250000000E+02  0.00000E+00  9.000E+00
      25     1     1     2     0     0  2.217268222E+02 -3.679110728E+02  6.748646296E+02  8.096842653E+02  1.250000000E+02  0.00000E+00  9.000E+00
      21     1     1     2   502   512 -4.864068110E+01 -3.144609753E+00  1.648757173E+01  5.145526649E+01  8.596304120E-07  0.00000E+00  9.000E+00
#rwgt            1           1   2.7803256849997789E-002           4      148745           0
</event>
<event>
      5   9999  3.19816E-02  8.35250E+01 -1.00000E+00  1.27450E-01
      21    -1     0     0   502   511  0.000000000E+00  0.000000000E+00  3.662628214E+02  3.662628214E+02  0.000000000E+00  0.00000E+00  9.000E+00
      21    -1     0     0   501   502  0.000000000E+00  0.000000000E+00 -1.861085953E+02  1.861085953E+02  0.000000000E+00  0.00000E+00  9.000E+00
      25     1     1     2     0     0 -1.546475773E+02  6.991595217E+01 -1.126061017E+01  2.110827204E+02  1.250000000E+02  0.00000E+00  9.000E+00
      25     1     1     2     0     0  7.171494202E+01 -5.998604824E+01  2.916016075E+01  1.587975877E+02  1.250000000E+02  0.00000E+00  9.000E+00
      21     1     1     2   501   511  8.293263524E+01 -9.929903927E+00  1.622546755E+02  1.824911086E+02  0.000000000E+00  0.00000E+00  9.000E+00
#rwgt            2          11   2.1393740109951725E-003           4      148845           0
</event>
<event>
      5   9999  3.19816E-02  9.92240E+00 -1.00000E+00  1.96149E-01
      21    -1     0     0   502   501  0.000000000E+00  0.000000000E+00  1.370126409E+03  1.370126409E+03  0.000000000E+00  0.00000E+00  9.000E+00
      21    -1     0     0   512   502  0.000000000E+00  0.000000000E+00 -1.008628363E+02  1.008628363E+02  0.000000000E+00  0.00000E+00  9.000E+00
      25     1     1     2     0     0 -4.717812387E+01 -2.960623441E+02  9.781193129E+02  1.030641100E+03  1.250000000E+02  0.00000E+00  9.000E+00
      25     1     1     2     0     0  3.802069219E+01  2.922419416E+02  2.787646217E+02  4.244827909E+02  1.250000000E+02  0.00000E+00  9.000E+00
      21     1     1     2   512   501  9.157431677E+00  3.820402468E+00  1.237963821E+01  1.586535446E+01  0.000000000E+00  0.00000E+00  9.000E+00
#rwgt            1           1   2.8888184721643558E-002           4      148880           0
</event>
<event>
      5   9999  3.19816E-02  9.03491E+01 -1.00000E+00  1.25843E-01
       2    -1     0     0   502     0  0.000000000E+00  0.000000000E+00  2.819970382E+03  2.819970382E+03  0.000000000E+00  0.00000E+00  9.000E+00
      21    -1     0     0   501   502  0.000000000E+00  0.000000000E+00 -5.010158995E+01  5.010158995E+01  0.000000000E+00  0.00000E+00  9.000E+00
      25     1     1     2     0     0  1.609093527E+02  2.088519723E+02  1.423892527E+03  1.453480614E+03  1.250000000E+02  0.00000E+00  9.000E+00
      25     1     1     2     0     0 -2.032556193E+02 -1.290412220E+02  5.277135850E+02  5.933558052E+02  1.250000000E+02  0.00000E+00  9.000E+00
       2     1     1     2   501     0  4.234626666E+01 -7.981075024E+01  8.182626803E+02  8.232355532E+02  1.078959322E-05  0.00000E+00  9.000E+00
#rwgt            1           1   2.5085445759941861E-002           4      149096           0
</event>
<event>
      5   9999  3.19816E-02  1.42131E+02 -1.00000E+00  1.17329E-01
      21    -1     0     0   502   511  0.000000000E+00  0.000000000E+00  1.172000298E+03  1.172000298E+03  0.000000000E+00  0.00000E+00  9.000E+00
      21    -1     0     0   501   502  0.000000000E+00  0.000000000E+00 -2.491946900E+02  2.491946900E+02  0.000000000E+00  0.00000E+00  9.000E+00
      25     1     1     2     0     0  2.624649793E+02  9.759454681E+01  1.585039223E+02  3.451971238E+02  1.250000000E+02  0.00000E+00  9.000E+00
      25     1     1     2     0     0 -4.016796644E+02 -6.894861958E+01  1.601986072E+02  4.553998888E+02  1.250000000E+02  0.00000E+00  9.000E+00
      21     1     1     2   501   511  1.392146852E+02 -2.864592723E+01  6.041030785E+02  6.205979755E+02  1.078959322E-05  0.00000E+00  9.000E+00
#rwgt            1           1   2.8979345060853735E-002           4      149163           0
</event>
<event>
      5   9999  3.19816E-02  2.31280E+02 -1.00000E+00  1.09398E-01
      21    -1     0     0   502   501  0.000000000E+00  0.000000000E+00  6.404528260E+02  6.404528260E+02  0.000000000E+00  0.00000E+00  9.000E+00
      21    -1     0     0   512   502  0.000000000E+00  0.000000000E+00 -6.045462446E+02  6.045462446E+02  0.000000000E+00  0.00000E+00  9.000E+00
      25     1     1     2     0     0 -9.636350291E+01  6.918005535E+01 -2.323581411E+02  2.892872457E+02  1.250000000E+02  0.00000E+00  9.000E+00
      25     1     1     2     0     0 -1.074760087E+02  4.009048142E+01  5.590151088E+02  5.841928029E+02  1.250000000E+02  0.00000E+00  9.000E+00
      21     1     1     2   512   501  2.038395116E+02 -1.092705368E+02 -2.907503862E+02  3.715190221E+02  3.814697266E-06  0.00000E+00  9.000E+00
#rwgt            1           1   2.6418236788031148E-002           4      149247           0
</event>
<event>
      5   9999  3.19816E-02  6.84914E+01 -1.00000E+00  1.31702E-01
      21    -1     0     0   502   511  0.000000000E+00  0.000000000E+00  5.007618831E+02  5.007618831E+02  0.000000000E+00  0.00000E+00  9.000E+00
      21    -1     0     0   501   502  0.000000000E+00  0.000000000E+00 -2.181212781E+02  2.181212781E+02  0.000000000E+00  0.00000E+00  9.000E+00
      25     1     1     2     0     0  6.086688756E+01 -1.676254048E+02  2.647122900E+02  3.427836793E+02  1.250000000E+02  0.00000E+00  9.000E+00
      25     1     1     2     0     0 -1.184639601E+02  2.046881623E+02 -5.813500251E+01  2.737437345E+02  1.250000000E+02  0.00000E+00  9.000E+00
      21     1     1     2   501   511  5.759707250E+01 -3.706275758E+01  7.606331754E+01  1.023557474E+02  1.348699152E-06  0.00000E+00  9.000E+00
#rwgt            1           1   2.7433227548865409E-002           4      149301           0
</event>
<event>
      5   9999  3.19816E-02  7.24344E+01 -1.00000E+00  1.30473E-01
      21    -1     0     0   502   501  0.000000000E+00  0.000000000E+00  7.434454009E+02  7.434454009E+02  0.000000000E+00  0.00000E+00  9.000E+00
      21    -1     0     0   512   502  0.000000000E+00  0.000000000E+00 -7.160171954E+01  7.160171954E+01  0.000000000E+00  0.00000E+00  9.000E+00
      25     1     1     2     0     0  2.448254204E+01 -1.024358645E+02  3.382884633E+02  3.757081122E+02  1.250000000E+02  0.00000E+00  9.000E+00
      25     1     1     2     0     0 -8.943166810E+01  1.345037832E+02  2.903779080E+02  3.550121412E+02  1.250000000E+02  0.00000E+00  9.000E+00
      21     1     1     2   512   501  6.494912606E+01 -3.206791876E+01  4.317731001E+01  8.432686695E+01  2.023048729E-06  0.00000E+00  9.000E+00
#rwgt            1           1   2.8220061690241917E-002           4      149382           0
</event>
<event>
      5   9999  3.19816E-02  1.49437E+02 -1.00000E+00  1.16458E-01
      21    -1     0     0   502   511  0.000000000E+00  0.000000000E+00  4.526707531E+02  4.526707531E+02  0.000000000E+00  0.00000E+00  9.000E+00
      21    -1     0     0   501   502  0.000000000E+00  0.000000000E+00 -1.876535877E+03  1.876535877E+03  0.000000000E+00  0.00000E+00  9.000E+00
      25     1     1     2     0     0 -2.248748803E+02 -4.687348621E+02 -1.412852182E+03  1.510647997E+03  1.250000000E+02  0.00000E+00  9.000E+00
      25     1     1     2     0     0  2.151535641E+02  6.178552892E+02 -3.598135149E+01  6.670501272E+02  1.250000000E+02  0.00000E+00  9.000E+00
      21     1     1     2   501   511  9.721316229E+00 -1.491204271E+02  2.496840988E+01  1.515085056E+02  1.011524364E-06  0.00000E+00  9.000E+00
#rwgt            1           1   2.8421283443377649E-002           4      149420           0
</event>
<event>
      5   9999  3.19816E-02  1.06569E+02 -1.00000E+00  1.22598E-01
      21    -1     0     0   502   501  0.000000000E+00  0.000000000E+00  1.352432521E+02  1.352432521E+02  0.000000000E+00  0.00000E+00  9.000E+00
      21    -1     0     0   512   502  0.000000000E+00  0.000000000E+00 -6.091842533E+02  6.091842533E+02  0.000000000E+00  0.00000E+00  9.000E+00
      25     1     1     2     0     0  8.843982445E+01 -8.143408909E+01 -3.516530000E+02  3.920943073E+02  1.250000000E+02  0.00000E+00  9.000E+00
      25     1     1     2     0     0 -1.606106941E+01  1.596535057E+02 -1.960510847E+01  2.043442196E+02  1.250000000E+02  0.00000E+00  9.000E+00
      21     1     1     2   512   501 -7.237875504E+01 -7.821941657E+01 -1.026828927E+02  1.479889785E+02  2.697398305E-06  0.00000E+00  9.000E+00
#rwgt            1           1   3.2181381329608072E-002           4      149508           0
</event>
<event>
      5   9999  3.19816E-02  3.93284E+02 -1.00000E+00  1.01907E-01
      21    -1     0     0   511   501  0.000000000E+00  0.000000000E+00  5.366095178E+02  5.366095178E+02  0.000000000E+00  0.00000E+00  9.000E+00
      21    -1     0     0   501   502  0.000000000E+00  0.000000000E+00 -2.491558450E+03  2.491558450E+03  0.000000000E+00  0.00000E+00  9.000E+00
      25     1     1     2     0     0  2.915758083E+01  3.126564881E+02 -2.585652832E+02  4.255411258E+02  1.250000000E+02  0.00000E+00  9.000E+00
      25     1     1     2     0     0 -3.538130344E+02 -5.346275986E+02 -2.001167727E+03  2.105067126E+03  1.250000000E+02  0.00000E+00  9.000E+00
      21     1     1     2   511   502  3.246554535E+02  2.219711105E+02  3.047840777E+02  4.975597164E+02  1.477425898E-05  0.00000E+00  9.000E+00
#rwgt            2          11   2.1836709443258613E-002           4      149603           0
</event>
<event>
      5   9999  3.19816E-02  2.88740E+02 -1.00000E+00  1.06135E-01
      21    -1     0     0   502   501  0.000000000E+00  0.000000000E+00  6.382279902E+02  6.382279902E+02  0.000000000E+00  0.00000E+00  9.000E+00
      21    -1     0     0   512   502  0.000000000E+00  0.000000000E+00 -6.863675668E+02  6.863675668E+02  0.000000000E+00  0.00000E+00  9.000E+00
      25     1     1     2     0     0  6.462650151E+01  2.821734415E+02 -1.371276659E+02  3.438421622E+02  1.250000000E+02  0.00000E+00  9.000E+00
      25     1     1     2     0     0 -3.170439142E+02 -4.223732683E+02  3.027951499E+02  6.214707750E+02  1.250000000E+02  0.00000E+00  9.000E+00
      21     1     1     2   512   501  2.524174127E+02  1.401998269E+02 -2.138070607E+02  3.592826198E+02  5.394796609E-06  0.00000E+00  9.000E+00
#rwgt            1           1   2.8146249799081834E-002           4      149638           0
</event>
<event>
      5   9999  3.19816E-02  8.83018E+01 -1.00000E+00  1.26308E-01
      21    -1     0     0   502   501  0.000000000E+00  0.000000000E+00  2.494276314E+01  2.494276314E+01  0.000000000E+00  0.00000E+00  9.000E+00
       2    -1     0     0   501     0  0.000000000E+00  0.000000000E+00 -2.371515524E+03  2.371515524E+03  0.000000000E+00  0.00000E+00  9.000E+00
      25     1     1     2     0     0 -5.901397680E+01 -1.311343451E+02 -5.900986145E+02  6.200969607E+02  1.250000000E+02  0.00000E+00  9.000E+00
      25     1     1     2     0     0 -2.811144590E+01  1.167688943E+02 -1.021888118E+03  1.036487122E+03  1.250000000E+02  0.00000E+00  9.000E+00
       2     1     1     2   502     0  8.712542270E+01  1.436545078E+01 -7.345860279E+02  7.398742041E+02  1.078959322E-05  0.00000E+00  9.000E+00
#rwgt            1           1   2.9169330515222643E-002           4      149697           0
</event>
<event>
      5   9999  3.19816E-02  6.36995E+01 -1.00000E+00  1.33329E-01
      21    -1     0     0   502   511  0.000000000E+00  0.000000000E+00  1.125590899E+03  1.125590899E+03  0.000000000E+00  0.00000E+00  9.000E+00
      21    -1     0     0   501   502  0.000000000E+00  0.000000000E+00 -1.499941019E+02  1.499941019E+02  0.000000000E+00  0.00000E+00  9.000E+00
      25     1     1     2     0     0  4.369356159E+01  3.332294810E+02  4.797905209E+02  5.989782620E+02  1.250000000E+02  0.00000E+00  9.000E+00
      25     1     1     2     0     0 -1.051025378E+02 -3.501576846E+02  3.668989546E+02  5.328196603E+02  1.250000000E+02  0.00000E+00  9.000E+00
      21     1     1     2   501   511  6.140897619E+01  1.692820352E+01  1.289073221E+02  1.437870791E+02  1.907348633E-06  0.00000E+00  9.000E+00
#rwgt            1           1   2.9618819830620383E-002           4      149779           0
</event>
<event>
      5   9999  3.19816E-02  7.19107E+01 -1.00000E+00  1.30631E-01
       4    -1     0     0   502     0  0.000000000E+00  0.000000000E+00  2.023951943E+02  2.023951943E+02  0.000000000E+00  0.00000E+00  9.000E+00
      21    -1     0     0   501   502  0.000000000E+00  0.000000000E+00 -8.015239947E+02  8.015239947E+02  0.000000000E+00  0.00000E+00  9.000E+00
      25     1     1     2     0     0 -3.159718717E+02 -6.974241504E+01 -9.056479438E+01  3.585097072E+02  1.250000000E+02  0.00000E+00  9.000E+00
      25     1     1     2     0     0  2.488952458E+02  4.382177763E+01 -4.986203756E+02  5.728145167E+02  1.250000000E+02  0.00000E+00  9.000E+00
       4     1     1     2   501     0  6.707662590E+01  2.592063741E+01 -9.943630425E+00  7.259496520E+01  7.725644944E-07  0.00000E+00  9.000E+00
#rwgt            1           1   3.1206405736465933E-002           4      149900           0
</event>
<event>
      5   9999  3.19816E-02  4.50647E+02 -1.00000E+00  1.00151E-01
       2    -1     0     0   502     0  0.000000000E+00  0.000000000E+00  1.923479530E+03  1.923479530E+03  0.000000000E+00  0.00000E+00  9.000E+00
      21    -1     0     0   501   502  0.000000000E+00  0.000000000E+00 -2.764090942E+02  2.764090942E+02  0.000000000E+00  0.00000E+00  9.000E+00
      25     1     1     2     0     0 -1.914824204E+02  4.551469953E+02  1.711042824E+02  5.373322810E+02  1.250000000E+02  0.00000E+00  9.000E+00
      25     1     1     2     0     0  2.329442563E+02 -6.411291794E+00  8.573179480E+02  8.971751196E+02  1.250000000E+02  0.00000E+00  9.000E+00
       2     1     1     2   501     0 -4.146183585E+01 -4.487357036E+02  6.186482053E+02  7.653812236E+02  1.078959322E-05  0.00000E+00  9.000E+00
#rwgt            2          18   1.1355858575738545E-003           4      150035           0
</event>
<event>
      5   9999  3.19816E-02  1.39517E+01 -1.00000E+00  1.80400E-01
      21    -1     0     0   511   501  0.000000000E+00  0.000000000E+00  2.150481629E+02  2.150481629E+02  0.000000000E+00  0.00000E+00  9.000E+00
      21    -1     0     0   501   502  0.000000000E+00  0.000000000E+00 -5.297035703E+02  5.297035703E+02  0.000000000E+00  0.00000E+00  9.000E+00
      25     1     1     2     0     0  2.222152669E+02  1.394013301E+01  3.377364076E+01  2.575647704E+02  1.250000000E+02  0.00000E+00  9.000E+00
      25     1     1     2     0     0 -2.268328232E+02 -7.746919584E-01 -3.758359174E+02  4.564333102E+02  1.250000000E+02  0.00000E+00  9.000E+00
      21     1     1     2   511   502  4.617556340E+00 -1.316544105E+01  2.740686924E+01  3.075365257E+01  4.768371582E-07  0.00000E+00  9.000E+00
#rwgt            1           1   2.9179559488639005E-002           4      150084           0
</event>
<event>
      5   9999  3.19816E-02  3.85247E+01 -1.00000E+00  1.45860E-01
      21    -1     0     0   502   501  0.000000000E+00  0.000000000E+00  1.064262087E+02  1.064262087E+02  0.000000000E+00  0.00000E+00  9.000E+00
      21    -1     0     0   501   512  0.000000000E+00  0.000000000E+00 -1.117857351E+03  1.117857351E+03  0.000000000E+00  0.00000E+00  9.000E+00
      25     1     1     2     0     0  1.301985077E+02  1.017249526E+02 -3.272138573E+01  2.097505816E+02  1.250000000E+02  0.00000E+00  9.000E+00
      25     1     1     2     0     0 -1.597443091E+02 -7.700259820E+01 -9.124284419E+02  9.378690239E+02  1.250000000E+02  0.00000E+00  9.000E+00
      21     1     1     2   502   512  2.954580143E+01 -2.472235444E+01 -6.628131439E+01  7.666395391E+01  9.536743164E-07  0.00000E+00  9.000E+00
#rwgt            1           1   3.0668777828755475E-002           4      150256           0
</event>
<event>
      5   9999  3.19816E-02  8.10122E+01 -1.00000E+00  1.28086E-01
      21    -1     0     0   502   501  0.000000000E+00  0.000000000E+00  2.125640882E+03  2.125640882E+03  0.000000000E+00  0.00000E+00  9.000E+00
      -1    -1     0     0     0   502  0.000000000E+00  0.000000000E+00 -6.099194027E+02  6.099194027E+02  0.000000000E+00  0.00000E+00  9.000E+00
      25     1     1     2     0     0  2.941633276E+02 -1.504059736E+02  1.831930342E+03  1.865676231E+03  1.250000000E+02  0.00000E+00  9.000E+00
      25     1     1     2     0     0 -2.171387652E+02  1.755094924E+02  1.881003422E+02  3.591094039E+02  1.250000000E+02  0.00000E+00  9.000E+00
      -1     1     1     2     0   501 -7.702456243E+01 -2.510351876E+01 -5.043092044E+02  5.107746504E+02  7.629394531E-06  0.00000E+00  9.000E+00
#rwgt            1           1   2.8577898977464586E-002           4      150400           0
</event>
<event>
      5   9999  3.19816E-02  3.23857E+01 -1.00000E+00  1.50767E-01
      21    -1     0     0   502   501  0.000000000E+00  0.000000000E+00  3.595502333E+02  3.595502333E+02  0.000000000E+00  0.00000E+00  9.000E+00
      21    -1     0     0   511   502  0.000000000E+00  0.000000000E+00 -1.409192013E+03  1.409192013E+03  0.000000000E+00  0.00000E+00  9.000E+00
      25     1     1     2     0     0 -2.571492773E+01 -1.779433328E+02 -1.052872976E+03  1.075402990E+03  1.250000000E+02  0.00000E+00  9.000E+00
      25     1     1     2     0     0  5.810024563E+01  1.777840782E+02  3.110204183E+02  3.838509055E+02  1.250000000E+02  0.00000E+00  9.000E+00
      21     1     1     2   511   501 -3.238531790E+01  1.592545945E-01 -3.077892217E+02  3.094883506E+02  3.814697266E-06  0.00000E+00  9.000E+00
#rwgt            1           1   3.2518114737003841E-002           4      150473           0
</event>
<event>
      5   9999  3.19816E-02  2.53279E+02 -1.00000E+00  1.08037E-01
       3    -1     0     0   502     0  0.000000000E+00  0.000000000E+00  2.698732161E+02  2.698732161E+02  0.000000000E+00  0.00000E+00  9.000E+00
      21    -1     0     0   501   502  0.000000000E+00  0.000000000E+00 -6.712080792E+02  6.712080792E+02  0.000000000E+00  0.00000E+00  9.000E+00
      25     1     1     2     0     0  3.168947072E+02 -9.578780082E+01 -1.395797288E+02  3.804011815E+02  1.250000000E+02  0.00000E+00  9.000E+00
      25     1     1     2     0     0 -7.088326587E+01  1.560273936E+02 -2.170465263E+02  3.034850565E+02  1.250000000E+02  0.00000E+00  9.000E+00
       3     1     1     2   501     0 -2.460114413E+02 -6.023959282E+01 -4.470860798E+01  2.571950572E+02  3.662655710E-06  0.00000E+00  9.000E+00
#rwgt            1           1   2.7392296950732406E-002           4      150722           0
</event>
<event>
      5   9999  3.19816E-02  9.11676E+00 -1.00000E+00  2.00517E-01
      21    -1     0     0   502   511  0.000000000E+00  0.000000000E+00  7.051551226E+01  7.051551226E+01  0.000000000E+00  0.00000E+00  9.000E+00
      21    -1     0     0   501   502  0.000000000E+00  0.000000000E+00 -7.508938281E+02  7.508938281E+02  0.000000000E+00  0.00000E+00  9.000E+00
      25     1     1     2     0     0  3.368053626E+01  1.452786951E+02 -5.418198346E+02  5.757030579E+02  1.250000000E+02  0.00000E+00  9.000E+00
      25     1     1     2     0     0 -2.459436465E+01 -1.445325412E+02 -1.260767875E+02  2.302496354E+02  1.250000000E+02  0.00000E+00  9.000E+00
      21     1     1     2   501   511 -9.086171613E+00 -7.461538958E-01 -1.248169380E+01  1.545664712E+01  1.685873940E-07  0.00000E+00  9.000E+00
#rwgt            1           1   3.1364296663054306E-002           4      150774           0
</event>
<event>
      5   9999  3.25924E-02  3.24759E+01 -1.00000E+00  1.50686E-01
      21    -1     0     0   502   501  0.000000000E+00  0.000000000E+00  5.507844892E+01  5.507844892E+01  0.000000000E+00  0.00000E+00  9.000E+00
      21    -1     0     0   512   502  0.000000000E+00  0.000000000E+00 -1.108248029E+03  1.108248029E+03  0.000000000E+00  0.00000E+00  9.000E+00
      25     1     1     2     0     0  6.427003010E+01 -1.772572905E+02 -5.836924266E+02  6.259973105E+02  1.250000000E+02  0.00000E+00  9.000E+00
      25     1     1     2     0     0 -9.431877140E+01  1.649382987E+02 -3.899626570E+02  4.514383090E+02  1.250000000E+02  0.00000E+00  9.000E+00
      21     1     1     2   512   501  3.004874129E+01  1.231899178E+01 -7.951449622E+01  8.589085819E+01  0.000000000E+00  0.00000E+00  9.000E+00
#rwgt            1           1   3.2338609497357944E-002           4      150986           0
</event>
<event>
      5   9999  3.19816E-02  1.16873E+02 -1.00000E+00  1.20857E-01
      21    -1     0     0   502   501  0.000000000E+00  0.000000000E+00  5.816338525E+02  5.816338525E+02  0.000000000E+00  0.00000E+00  9.000E+00
      21    -1     0     0   511   502  0.000000000E+00  0.000000000E+00 -7.639902367E+02  7.639902367E+02  0.000000000E+00  0.00000E+00  9.000E+00
      25     1     1     2     0     0 -3.213575362E+02 -4.292831370E+02 -9.625634273E+01  5.589677641E+02  1.250000000E+02  0.00000E+00  9.000E+00
      25     1     1     2     0     0  2.139679682E+02  4.754007480E+02  1.203209964E+02  5.494454521E+02  1.250000000E+02  0.00000E+00  9.000E+00
      21     1     1     2   511   501  1.073895680E+02 -4.611761106E+01 -2.064210379E+02  2.372108730E+02  0.000000000E+00  0.00000E+00  9.000E+00
#rwgt            1           1   2.3166493253651343E-002           4      151095           0
</event>
<event>
      5   9999  3.19816E-02  2.61959E+02 -1.00000E+00  1.07541E-01
      21    -1     0     0   502   501  0.000000000E+00  0.000000000E+00  1.761621801E+02  1.761621801E+02  0.000000000E+00  0.00000E+00  9.000E+00
       2    -1     0     0   501     0  0.000000000E+00  0.000000000E+00 -3.319717601E+03  3.319717601E+03  0.000000000E+00  0.00000E+00  9.000E+00
      25     1     1     2     0     0  5.081526953E+02 -2.209463751E+02 -5.168041991E+02  7.679505470E+02  1.250000000E+02  0.00000E+00  9.000E+00
      25     1     1     2     0     0 -2.646033461E+02  3.174156987E+02 -1.155117796E+03  1.233162511E+03  1.250000000E+02  0.00000E+00  9.000E+00
       2     1     1     2   502     0 -2.435493491E+02 -9.646932355E+01 -1.471633426E+03  1.494766723E+03  0.000000000E+00  0.00000E+00  9.000E+00
#rwgt            1           1   2.8175077394065173E-002           4      151201           0
</event>
<event>
      5   9999  3.19816E-02  5.33249E+01 -1.00000E+00  1.37499E-01
      21    -1     0     0   511   501  0.000000000E+00  0.000000000E+00  5.123296404E+02  5.123296404E+02  0.000000000E+00  0.00000E+00  9.000E+00
      21    -1     0     0   501   502  0.000000000E+00  0.000000000E+00 -2.238885337E+02  2.238885337E+02  0.000000000E+00  0.00000E+00  9.000E+00
      25     1     1     2     0     0 -1.021115719E+02  7.998382412E+01  2.440845367E+02  3.033586100E+02  1.250000000E+02  0.00000E+00  9.000E+00
      25     1     1     2     0     0  1.399928820E+02 -4.245318775E+01 -1.419234583E+02  2.390973613E+02  1.250000000E+02  0.00000E+00  9.000E+00
      21     1     1     2   511   502 -3.788131013E+01 -3.753063636E+01  1.862800283E+02  1.937622029E+02  3.814697266E-06  0.00000E+00  9.000E+00
#rwgt            1           1   2.6374859612778148E-002           4      151228           0
</event>
<event>
      5   9999  3.19816E-02  4.13442E+01 -1.00000E+00  1.43955E-01
      21    -1     0     0   512   501  0.000000000E+00  0.000000000E+00  3.040401879E+01  3.040401879E+01  0.000000000E+00  0.00000E+00  9.000E+00
      21    -1     0     0   501   502  0.000000000E+00  0.000000000E+00 -3.559488668E+03  3.559488668E+03  0.000000000E+00  0.00000E+00  9.000E+00
      25     1     1     2     0     0 -1.261644061E+02  8.429404656E+00 -4.111480965E+02  4.479467261E+02  1.250000000E+02  0.00000E+00  9.000E+00
      25     1     1     2     0     0  1.369854946E+02  3.147361379E+01 -3.080296597E+03  3.086034306E+03  1.250000000E+02  0.00000E+00  9.000E+00
      21     1     1     2   512   502 -1.082108850E+01 -3.990301845E+01 -3.763995608E+01  5.591165470E+01  1.719260824E-06  0.00000E+00  9.000E+00
#rwgt            1           1   1.4698789037916948E-002           4      151308           0
</event>
<event>
      5   9999  3.19816E-02  6.10032E+01 -1.00000E+00  1.34320E-01
       2    -1     0     0   502     0  0.000000000E+00  0.000000000E+00  3.075339961E+03  3.075339961E+03  0.000000000E+00  0.00000E+00  9.000E+00
      21    -1     0     0   501   502  0.000000000E+00  0.000000000E+00 -1.750399466E+02  1.750399466E+02  0.000000000E+00  0.00000E+00  9.000E+00
      25     1     1     2     0     0  1.877382025E+02 -1.296890264E+02 -2.592371257E+01  2.614611159E+02  1.250000000E+02  0.00000E+00  9.000E+00
      25     1     1     2     0     0 -2.427919924E+02  1.559659211E+02  7.688077575E+02  8.306405289E+02  1.250000000E+02  0.00000E+00  9.000E+00
       2     1     1     2   501     0  5.505378989E+01 -2.627689473E+01  2.157415969E+03  2.158278263E+03  3.051757812E-05  0.00000E+00  9.000E+00
#rwgt            2          18   1.7718792209852369E-003           4      151385           0
</event>
<event>
      5   9999  3.19816E-02  7.14613E+01 -1.00000E+00  1.30768E-01
      21    -1     0     0   511   501  0.000000000E+00  0.000000000E+00  1.446819894E+03  1.446819894E+03  0.000000000E+00  0.00000E+00  9.000E+00
      21    -1     0     0   501   502  0.000000000E+00  0.000000000E+00 -1.189327662E+02  1.189327662E+02  0.000000000E+00  0.00000E+00  9.000E+00
      25     1     1     2     0     0  4.681120422E+01 -1.321036534E+01 -6.369324798E+01  1.484844518E+02  1.250000000E+02  0.00000E+00  9.000E+00
      25     1     1     2     0     0 -3.550445974E+01 -5.735073073E+01  1.256018417E+03  1.264024104E+03  1.250000000E+02  0.00000E+00  9.000E+00
      21     1     1     2   511   502 -1.130674448E+01  7.056109607E+01  1.355619595E+02  1.532441046E+02  1.907348633E-06  0.00000E+00  9.000E+00
#rwgt            1           1   2.7363790349993561E-002           4      151404           0
</event>
<event>
      5   9999  3.19816E-02  1.97862E+02 -1.00000E+00  1.11818E-01
      21    -1     0     0   512   501  0.000000000E+00  0.000000000E+00  9.044042800E+02  9.044042800E+02  0.000000000E+00  0.00000E+00  9.000E+00
      21    -1     0     0   501   502  0.000000000E+00  0.000000000E+00 -1.089104391E+03  1.089104391E+03  0.000000000E+00  0.00000E+00  9.000E+00
      25     1     1     2     0     0  2.543162153E+02 -3.820098312E+02 -6.231232680E+02  7.839106171E+02  1.250000000E+02  0.00000E+00  9.000E+00
      25     1     1     2     0     0 -2.254009910E+02  5.777479528E+02 -9.586073815E+01  6.398535651E+02  1.250000000E+02  0.00000E+00  9.000E+00
      21     1     1     2   512   502 -2.891522425E+01 -1.957381216E+02  5.342838949E+02  5.697444891E+02  0.000000000E+00  0.00000E+00  9.000E+00
#rwgt            2          11   3.8100476113693388E-003           4      151503           0
</event>
<event>
      5   9999  3.19816E-02  2.75657E+02 -1.00000E+00  1.06800E-01
       2    -1     0     0   502     0  0.000000000E+00  0.000000000E+00  2.339841274E+03  2.339841274E+03  0.000000000E+00  0.00000E+00  9.000E+00
      21    -1     0     0   501   502  0.000000000E+00  0.000000000E+00 -3.293695554E+02  3.293695554E+02  0.000000000E+00  0.00000E+00  9.000E+00
      25     1     1     2     0     0 -6.839448655E+02 -2.059380159E+02  7.690564587E+02  1.057007040E+03  1.250000000E+02  0.00000E+00  9.000E+00
      25     1     1     2     0     0  5.476220365E+02 -3.365109950E+01  3.133751647E+02  6.440895009E+02  1.250000000E+02  0.00000E+00  9.000E+00
       2     1     1     2   501     0  1.363228290E+02  2.395891154E+02  9.280400955E+02  9.681142891E+02  1.525878906E-05  0.00000E+00  9.000E+00
#rwgt            1           1   3.1499606125654264E-002           4      151523           0
</event>
<event>
      5   9999  3.19816E-02  1.07323E+03 -1.00000E+00  9.02604E-02
      21    -1     0     0   502   501  0.000000000E+00  0.000000000E+00  5.471307980E+02  5.471307980E+02  0.000000000E+00  0.00000E+00  9.000E+00
       1    -1     0     0   501     0  0.000000000E+00  0.000000000E+00 -3.029308538E+03  3.029308538E+03  0.000000000E+00  0.00000E+00  9.000E+00
      25     1     1     2     0     0  9.882847615E+02  5.416888927E+02 -1.300929634E+03  1.725739418E+03  1.250000000E+02  0.00000E+00  9.000E+00
      25     1     1     2     0     0  6.186668044E+01 -3.203171823E+02 -3.341901226E+02  4.834652226E+02  1.250000000E+02  0.00000E+00  9.000E+00
       1     1     1     2   502     0 -1.050151442E+03 -2.213717104E+02 -8.470579833E+02  1.367234695E+03  1.078959322E-05  0.00000E+00  9.000E+00
#rwgt            2          12   1.9505637702143730E-004           4      151581           0
</event>
<event>
      5   9999  3.19816E-02  4.85187E+01 -1.00000E+00  1.39825E-01
      21    -1     0     0   502   501  0.000000000E+00  0.000000000E+00  3.597044185E+02  3.597044185E+02  0.000000000E+00  0.00000E+00  9.000E+00
       5    -1     0     0   501     0  0.000000000E+00  0.000000000E+00 -7.605509976E+02  7.605509976E+02  0.000000000E+00  0.00000E+00  9.000E+00
      25     1     1     2     0     0  7.713633254E+01 -2.080237248E+02  1.201295131E+02  2.815670147E+02  1.250000000E+02  0.00000E+00  9.000E+00
      25     1     1     2     0     0 -1.041208649E+02  2.483461995E+02  1.809516471E+01  2.974381016E+02  1.250000000E+02  0.00000E+00  9.000E+00
       5     1     1     2   502     0  2.698453237E+01 -4.032247471E+01 -5.390712569E+02  5.412502998E+02  0.000000000E+00  0.00000E+00  9.000E+00
#rwgt            1           1   2.7270640577172999E-002           4      151600           0
</event>
<event>
      5   9999  3.19816E-02  1.51151E+02 -1.00000E+00  1.16262E-01
      21    -1     0     0   502   501  0.000000000E+00  0.000000000E+00  1.566985229E+03  1.566985229E+03  0.000000000E+00  0.00000E+00  9.000E+00
      21    -1     0     0   511   502  0.000000000E+00  0.000000000E+00 -4.201225607E+02  4.201225607E+02  0.000000000E+00  0.00000E+00  9.000E+00
      25     1     1     2     0     0 -4.036410254E+02 -3.158056688E+02 -6.868146833E+01  5.319787984E+02  1.250000000E+02  0.00000E+00  9.000E+00
      25     1     1     2     0     0  2.538562137E+02  3.360838961E+02  1.227255611E+03  1.303524720E+03  1.250000000E+02  0.00000E+00  9.000E+00
      21     1     1     2   511   501  1.497848117E+02 -2.027822726E+01 -1.171147420E+01  1.516042709E+02  3.342114870E-06  0.00000E+00  9.000E+00
#rwgt            1           1   2.9985352621864490E-002           4      151703           0
</event>
<event>
      5   9999  3.19816E-02  9.28788E+01 -1.00000E+00  1.25288E-01
      21    -1     0     0   502   501  0.000000000E+00  0.000000000E+00  7.904415339E+02  7.904415339E+02  0.000000000E+00  0.00000E+00  9.000E+00
      21    -1     0     0   512   502  0.000000000E+00  0.000000000E+00 -1.793064221E+02  1.793064221E+02  0.000000000E+00  0.00000E+00  9.000E+00
      25     1     1     2     0     0 -1.677479355E+02  1.319672561E+01 -5.943710625E+01  2.178790789E+02  1.250000000E+02  0.00000E+00  9.000E+00
      25     1     1     2     0     0  8.298005826E+01 -5.115569725E+01  6.315256568E+02  6.511161576E+02  1.250000000E+02  0.00000E+00  9.000E+00
      21     1     1     2   512   501  8.476787727E+01  3.795897164E+01  3.904656116E+01  1.007527195E+02  8.259061849E-07  0.00000E+00  9.000E+00
#rwgt            1           1   2.7932244452611828E-002           4      151766           0
</event>
<event>
      5   9999  3.19816E-02  2.11755E+02 -1.00000E+00  1.10753E-01
      21    -1     0     0   502   501  0.000000000E+00  0.000000000E+00  2.121329800E+02  2.121329800E+02  0.000000000E+00  0.00000E+00  9.000E+00
       2    -1     0     0   501     0  0.000000000E+00  0.000000000E+00 -1.986764363E+03  1.986764363E+03  0.000000000E+00  0.00000E+00  9.000E+00
      25     1     1     2     0     0  3.048127873E+02 -1.550389199E+02 -8.871510199E+01  3.747576167E+02  1.250000000E+02  0.00000E+00  9.000E+00
      25     1     1     2     0     0 -4.038949221E+02 -3.210497944E+01 -7.225385975E+02  8.377642046E+02  1.250000000E+02  0.00000E+00  9.000E+00
       2     1     1     2   502     0  9.908213480E+01  1.871438994E+02 -9.633776833E+02  9.863755214E+02  1.525878906E-05  0.00000E+00  9.000E+00
#rwgt            2          13   1.4078904925798287E-003           4      151986           0
</event>
<event>
      5   9999  3.19816E-02  1.99519E+01 -1.00000E+00  1.66455E-01
      -1    -1     0     0     0   501  0.000000000E+00  0.000000000E+00  3.011486301E+02  3.011486301E+02  0.000000000E+00  0.00000E+00  9.000E+00
      21    -1     0     0   501   502  0.000000000E+00  0.000000000E+00 -2.221030251E+02  2.221030251E+02  0.000000000E+00  0.00000E+00  9.000E+00
      25     1     1     2     0     0  8.088012655E+01 -1.384852675E+02 -9.203845042E+01  2.231946248E+02  1.250000000E+02  0.00000E+00  9.000E+00
      25     1     1     2     0     0 -9.585499414E+01  1.253007713E+02  9.718833783E+01  2.235151812E+02  1.250000000E+02  0.00000E+00  9.000E+00
      -1     1     1     2     0   502  1.497486759E+01  1.318449621E+01  7.389571759E+01  7.654184920E+01  9.536743164E-07  0.00000E+00  9.000E+00
#rwgt            1           1   2.6506188523978069E-002           4      152035           0
</event>
<event>
      5   9999  3.19816E-02  2.11478E+01 -1.00000E+00  1.64394E-01
      21    -1     0     0   502   501  0.000000000E+00  0.000000000E+00  6.249565716E+02  6.249565716E+02  0.000000000E+00  0.00000E+00  9.000E+00
      21    -1     0     0   511   502  0.000000000E+00  0.000000000E+00 -2.195839778E+02  2.195839778E+02  0.000000000E+00  0.00000E+00  9.000E+00
      25     1     1     2     0     0 -3.366325569E+02 -3.427723250E+01  2.776860244E+02  4.552262461E+02  1.250000000E+02  0.00000E+00  9.000E+00
      25     1     1     2     0     0  3.189894205E+02  2.261742378E+01  1.317822280E+02  3.677735090E+02  1.250000000E+02  0.00000E+00  9.000E+00
      21     1     1     2   511   501  1.764313635E+01  1.165980872E+01 -4.095658580E+00  2.154079430E+01  2.731427965E-07  0.00000E+00  9.000E+00
#rwgt            1           1   2.5153083546255971E-002           4      152209           0
</event>
<event>
      5   9999  3.19816E-02  3.25055E+02 -1.00000E+00  1.04472E-01
      21    -1     0     0   512   501  0.000000000E+00  0.000000000E+00  1.377981990E+02  1.377981990E+02  0.000000000E+00  0.00000E+00  9.000E+00
      21    -1     0     0   501   502  0.000000000E+00  0.000000000E+00 -2.931709200E+03  2.931709200E+03  0.000000000E+00  0.00000E+00  9.000E+00
      25     1     1     2     0     0  2.259210456E+02  3.923698971E+02 -8.628220742E+02  9.823855591E+02  1.250000000E+02  0.00000E+00  9.000E+00
      25     1     1     2     0     0 -1.821162942E+02 -7.027960347E+01 -1.622307709E+03  1.638783960E+03  1.250000000E+02  0.00000E+00  9.000E+00
      21     1     1     2   512   502 -4.380475144E+01 -3.220902937E+02 -3.087812178E+02  4.483378792E+02  1.078959322E-05  0.00000E+00  9.000E+00
#rwgt            2          11   8.0504692832370026E-003           4      152373           0
</event>
<event>
      5   9999  3.19816E-02  3.37968E+01 -1.00000E+00  1.49530E-01
      21    -1     0     0   502   501  0.000000000E+00  0.000000000E+00  2.818730890E+02  2.818730890E+02  0.000000000E+00  0.00000E+00  9.000E+00
      21    -1     0     0   501   511  0.000000000E+00  0.000000000E+00 -7.107093881E+02  7.107093881E+02  0.000000000E+00  0.00000E+00  9.000E+00
      25     1     1     2     0     0 -2.008982905E+02  1.759078998E+02  1.393439393E+02  3.261064944E+02  1.250000000E+02  0.00000E+00  9.000E+00
      25     1     1     2     0     0  2.339922322E+02 -1.690512279E+02 -5.134520765E+02  6.021534001E+02  1.250000000E+02  0.00000E+00  9.000E+00
      21     1     1     2   502   511 -3.309394177E+01 -6.856671900E+00 -5.472816187E+01  6.432258261E+01  6.743495762E-07  0.00000E+00  9.000E+00
#rwgt            1           1   2.7714901247399761E-002           4      152393           0
</event>
<event>
      5   9999  3.19816E-02  5.09523E+01 -1.00000E+00  1.38610E-01
       1    -1     0     0   502     0  0.000000000E+00  0.000000000E+00  1.565592423E+03  1.565592423E+03  0.000000000E+00  0.00000E+00  9.000E+00
      21    -1     0     0   501   502  0.000000000E+00  0.000000000E+00 -5.539668769E+01  5.539668769E+01  0.000000000E+00  0.00000E+00  9.000E+00
      25     1     1     2     0     0 -1.741286663E+02 -2.574615127E+01  2.271989838E+02  3.134135207E+02  1.250000000E+02  0.00000E+00  9.000E+00
      25     1     1     2     0     0  1.485201572E+02 -1.830312833E+01  1.118513449E+03  1.135381247E+03  1.250000000E+02  0.00000E+00  9.000E+00
       1     1     1     2   501     0  2.560850913E+01  4.404927959E+01  1.644833031E+02  1.721943430E+02  1.907348633E-06  0.00000E+00  9.000E+00
#rwgt            1           1   2.8444426705857298E-002           4      152513           0
</event>
<event>
      5   9999  3.19816E-02  2.70034E+02 -1.00000E+00  1.07099E-01
      21    -1     0     0   502   501  0.000000000E+00  0.000000000E+00  6.760328688E+02  6.760328688E+02  0.000000000E+00  0.00000E+00  9.000E+00
       2    -1     0     0   501     0  0.000000000E+00  0.000000000E+00 -6.963128251E+02  6.963128251E+02  0.000000000E+00  0.00000E+00  9.000E+00
      25     1     1     2     0     0 -2.251465412E+02  3.733613202E+02  4.785033817E+02  6.593027580E+02  1.250000000E+02  0.00000E+00  9.000E+00
      25     1     1     2     0     0  1.560957629E+02 -1.123048819E+02 -1.592449253E+02  2.792171555E+02  1.250000000E+02  0.00000E+00  9.000E+00
       2     1     1     2   502     0  6.905077827E+01 -2.610564383E+02 -3.395384128E+02  4.338257804E+02  0.000000000E+00  0.00000E+00  9.000E+00
#rwgt            1           1   2.5038540390516631E-002           4      152605           0
</event>
<event>
      5   9999  3.19816E-02  3.05192E+01 -1.00000E+00  1.52524E-01
      21    -1     0     0   511   501  0.000000000E+00  0.000000000E+00  3.502068541E+01  3.502068541E+01  0.000000000E+00  0.00000E+00  9.000E+00
      21    -1     0     0   501   502  0.000000000E+00  0.000000000E+00 -2.553115776E+03  2.553115776E+03  0.000000000E+00  0.00000E+00  9.000E+00
      25     1     1     2     0     0 -1.584219905E+02  1.319298094E+02 -5.718700655E+02  6.206153185E+02  1.250000000E+02  0.00000E+00  9.000E+00
      25     1     1     2     0     0  1.677274089E+02 -1.028637981E+02 -1.882359375E+03  1.896738059E+03  1.250000000E+02  0.00000E+00  9.000E+00
      21     1     1     2   511   502 -9.305418398E+00 -2.906601128E+01 -6.386564934E+01  7.078308406E+01  2.023048729E-06  0.00000E+00  9.000E+00
#rwgt            1           1   5.5363264595892754E-002           4      152661           0
</event>
<event>
      5   9999  3.19816E-02  5.86388E+01 -1.00000E+00  1.35238E-01
      21    -1     0     0   512   501  0.000000000E+00  0.000000000E+00  2.960045904E+02  2.960045904E+02  0.000000000E+00  0.00000E+00  9.000E+00
      21    -1     0     0   501   502  0.000000000E+00  0.000000000E+00 -5.965468977E+02  5.965468977E+02  0.000000000E+00  0.00000E+00  9.000E+00
      25     1     1     2     0     0  2.141853732E+02  3.488642357E+00  1.650116912E+02  2.978949529E+02  1.250000000E+02  0.00000E+00  9.000E+00
      25     1     1     2     0     0 -1.872450071E+02  4.859523045E+01 -4.816182966E+02  5.338570714E+02  1.250000000E+02  0.00000E+00  9.000E+00
      21     1     1     2   512   502 -2.694036605E+01 -5.208387281E+01  1.606429801E+01  6.079946381E+01  1.039242493E-06  0.00000E+00  9.000E+00
#rwgt            1           1   3.0777751108480900E-002           4      152804           0
</event>
<event>
      5   9999  3.19816E-02  4.50641E+01 -1.00000E+00  1.41701E-01
      21    -1     0     0   502   501  0.000000000E+00  0.000000000E+00  7.160526826E+02  7.160526826E+02  0.000000000E+00  0.00000E+00  9.000E+00
      21    -1     0     0   501   511  0.000000000E+00  0.000000000E+00 -3.142139136E+02  3.142139136E+02  0.000000000E+00  0.00000E+00  9.000E+00
      25     1     1     2     0     0 -2.888521369E+02  1.629250261E+02  1.133195469E+02  3.720839164E+02  1.250000000E+02  0.00000E+00  9.000E+00
      25     1     1     2     0     0  2.448856081E+02 -1.530400038E+02  4.167851105E+02  5.222308227E+02  1.250000000E+02  0.00000E+00  9.000E+00
      21     1     1     2   502   511  4.396652884E+01 -9.885022254E+00 -1.282658884E+02  1.359518571E+02  1.907348633E-06  0.00000E+00  9.000E+00
#rwgt            1           1   2.6906010907054263E-002           4      152864           0
</event>
<event>
      5   9999  3.19816E-02  1.28318E+02 -1.00000E+00  1.19146E-01
      21    -1     0     0   502   501  0.000000000E+00  0.000000000E+00  3.060478637E+02  3.060478637E+02  0.000000000E+00  0.00000E+00  9.000E+00
      21    -1     0     0   512   502  0.000000000E+00  0.000000000E+00 -1.629527249E+02  1.629527249E+02  0.000000000E+00  0.00000E+00  9.000E+00
      25     1     1     2     0     0  1.526958838E+01 -5.846729824E+01  1.416036050E+02  1.983133032E+02  1.250000000E+02  0.00000E+00  9.000E+00
      25     1     1     2     0     0  2.239556392E+01 -6.419790462E+01  3.864797126E+00  1.423477042E+02  1.250000000E+02  0.00000E+00  9.000E+00
      21     1     1     2   512   501 -3.766515229E+01  1.226652029E+02 -2.373263288E+00  1.283395811E+02  1.301785092E-06  0.00000E+00  9.000E+00
#rwgt            1           1   1.6440728953726062E-002           4      152968           0
</event>
<event>
      5   9999  3.19816E-02  1.82970E+02 -1.00000E+00  1.13073E-01
      21    -1     0     0   502   501  0.000000000E+00  0.000000000E+00  3.639684689E+02  3.639684689E+02  0.000000000E+00  0.00000E+00  9.000E+00
       1    -1     0     0   501     0  0.000000000E+00  0.000000000E+00 -1.074360633E+03  1.074360633E+03  0.000000000E+00  0.00000E+00  9.000E+00
      25     1     1     2     0     0 -2.904805739E+02 -2.434005700E+02  1.317107109E+02  4.202326887E+02  1.250000000E+02  0.00000E+00  9.000E+00
      25     1     1     2     0     0  3.249573254E+02  6.370770175E+01 -7.070013775E+02  7.906528204E+02  1.250000000E+02  0.00000E+00  9.000E+00
       1     1     1     2   502     0 -3.447675153E+01  1.796928683E+02 -1.351014974E+02  2.274435928E+02  3.303624740E-06  0.00000E+00  9.000E+00
#rwgt            1           1   2.6835390850134325E-002           4      153071           0
</event>
<event>
      5   9999  3.19816E-02  5.31991E+01 -1.00000E+00  1.37556E-01
      21    -1     0     0   502   501  0.000000000E+00  0.000000000E+00  4.587488925E+02  4.587488925E+02  0.000000000E+00  0.00000E+00  9.000E+00
      21    -1     0     0   511   502  0.000000000E+00  0.000000000E+00 -5.139971751E+02  5.139971751E+02  0.000000000E+00  0.00000E+00  9.000E+00
      25     1     1     2     0     0 -1.099957044E+02 -1.597775876E+02 -1.381883697E+02  2.689776161E+02  1.250000000E+02  0.00000E+00  9.000E+00
      25     1     1     2     0     0  1.528238050E+02  1.913354127E+02  3.422805948E+02  4.390277453E+02  1.250000000E+02  0.00000E+00  9.000E+00
      21     1     1     2   511   501 -4.282810062E+01 -3.155782509E+01 -2.593405078E+02  2.647407062E+02  3.814697266E-06  0.00000E+00  9.000E+00
#rwgt            1           1   2.8582838072820207E-002           4      153224           0
</event>
<event>
      5   9999  3.19816E-02  1.42257E+02 -1.00000E+00  1.17313E-01
      21    -1     0     0   502   501  0.000000000E+00  0.000000000E+00  3.022823243E+02  3.022823243E+02  0.000000000E+00  0.00000E+00  9.000E+00
      21    -1     0     0   501   512  0.000000000E+00  0.000000000E+00 -5.737188371E+02  5.737188371E+02  0.000000000E+00  0.00000E+00  9.000E+00
      25     1     1     2     0     0 -2.010962060E+02 -1.293531906E+02 -1.732352844E+02  3.206359240E+02  1.250000000E+02  0.00000E+00  9.000E+00
      25     1     1     2     0     0  9.838118939E+01  2.277738988E+02  1.136620268E+02  3.001730563E+02  1.250000000E+02  0.00000E+00  9.000E+00
      21     1     1     2   502   512  1.027150166E+02 -9.842070818E+01 -2.118632552E+02  2.551921812E+02  3.814697266E-06  0.00000E+00  9.000E+00
#rwgt            1           1   2.6243556811586001E-002           4      153325           0
</event>
<event>
      5   9999  3.19816E-02  6.13844E+01 -1.00000E+00  1.34176E-01
      21    -1     0     0   511   501  0.000000000E+00  0.000000000E+00  1.488416105E+02  1.488416105E+02  0.000000000E+00  0.00000E+00  9.000E+00
      21    -1     0     0   501   502  0.000000000E+00  0.000000000E+00 -5.171726425E+02  5.171726425E+02  0.000000000E+00  0.00000E+00  9.000E+00
      25     1     1     2     0     0  5.940310232E+00  4.119545482E+01 -4.437304813E+02  4.628758935E+02  1.250000000E+02  0.00000E+00  9.000E+00
      25     1     1     2     0     0  1.768887669E+01  1.545886288E+01  5.312827427E+01  1.378386242E+02  1.250000000E+02  0.00000E+00  9.000E+00
      21     1     1     2   511   502 -2.362918692E+01 -5.665431770E+01  2.227117506E+01  6.529973528E+01  9.830249847E-07  0.00000E+00  9.000E+00
#rwgt            1           1   2.7503861669945937E-002           4      153383           0
</event>
<event>
      5   9999  3.19816E-02  7.63128E+01 -1.00000E+00  1.29349E-01
      21    -1     0     0   502   501  0.000000000E+00  0.000000000E+00  2.077757090E+03  2.077757090E+03  0.000000000E+00  0.00000E+00  9.000E+00
      21    -1     0     0   501   512  0.000000000E+00  0.000000000E+00 -1.785297704E+02  1.785297704E+02  0.000000000E+00  0.00000E+00  9.000E+00
      25     1     1     2     0     0 -3.177908068E+02  2.200995401E+02  2.256848424E+02  4.647509575E+02  1.250000000E+02  0.00000E+00  9.000E+00
      25     1     1     2     0     0  2.969542387E+02 -1.466864371E+02  1.678150666E+03  1.715084077E+03  1.250000000E+02  0.00000E+00  9.000E+00
      21     1     1     2   502   512  2.083656812E+01 -7.341310293E+01 -4.608189777E+00  7.645182579E+01  5.331201500E-07  0.00000E+00  9.000E+00
#rwgt            2          11   4.7895715363618953E-003           4      153458           0
</event>
<event>
      5   9999  3.19816E-02  1.87760E+01 -1.00000E+00  1.68664E-01
      21    -1     0     0   502   511  0.000000000E+00  0.000000000E+00  1.119370091E+02  1.119370091E+02  0.000000000E+00  0.00000E+00  9.000E+00
      21    -1     0     0   501   502  0.000000000E+00  0.000000000E+00 -1.346926610E+03  1.346926610E+03  0.000000000E+00  0.00000E+00  9.000E+00
      25     1     1     2     0     0 -1.781233393E+02 -1.753854362E+02 -1.045166724E+03  1.081890224E+03  1.250000000E+02  0.00000E+00  9.000E+00
      25     1     1     2     0     0  1.692270250E+02  1.588508063E+02 -2.186999605E+02  3.425288854E+02  1.250000000E+02  0.00000E+00  9.000E+00
      21     1     1     2   501   511  8.896314395E+00  1.653462992E+01  2.887708291E+01  3.444451065E+01  8.259061849E-07  0.00000E+00  9.000E+00
#rwgt            1           1   3.2585238405330320E-002           4      153478           0
</event>
<event>
      5   9999  3.19816E-02  6.45605E+01 -1.00000E+00  1.33025E-01
      21    -1     0     0   502   501  0.000000000E+00  0.000000000E+00  8.615524854E+01  8.615524854E+01  0.000000000E+00  0.00000E+00  9.000E+00
      21    -1     0     0   501   512  0.000000000E+00  0.000000000E+00 -1.023437894E+03  1.023437894E+03  0.000000000E+00  0.00000E+00  9.000E+00
      25     1     1     2     0     0  1.321973997E+02  1.121939050E+02 -7.137247060E+02  7.450446837E+02  1.250000000E+02  0.00000E+00  9.000E+00
      25     1     1     2     0     0 -1.096565551E+02 -5.169625547E+01 -5.275012293E+01  1.819468009E+02  1.250000000E+02  0.00000E+00  9.000E+00
      21     1     1     2   502   512 -2.254084456E+01 -6.049764957E+01 -1.708078169E+02  1.826016583E+02  1.907348633E-06  0.00000E+00  9.000E+00
#rwgt            1           1   3.0796006510799612E-002           4      153666           0
</event>
<event>
      5   9999  3.19816E-02  5.08772E+01 -1.00000E+00  1.38646E-01
      21    -1     0     0   502   501  0.000000000E+00  0.000000000E+00  2.991509564E+02  2.991509564E+02  0.000000000E+00  0.00000E+00  9.000E+00
      21    -1     0     0   501   511  0.000000000E+00  0.000000000E+00 -6.964319848E+02  6.964319848E+02  0.000000000E+00  0.00000E+00  9.000E+00
      25     1     1     2     0     0  3.655705840E+02  1.394033096E+02 -1.697914111E+02  4.444426373E+02  1.250000000E+02  0.00000E+00  9.000E+00
      25     1     1     2     0     0 -3.147264427E+02 -1.375690618E+02 -5.294523134E+01  3.693320702E+02  1.250000000E+02  0.00000E+00  9.000E+00
      21     1     1     2   502   511 -5.084414124E+01 -1.834247713E+00 -1.745443860E+02  1.818082337E+02  2.697398305E-06  0.00000E+00  9.000E+00
#rwgt            1           1   2.7045286045134981E-002           4      153752           0
</event>
<event>
      5   9999  3.19816E-02  1.40884E+02 -1.00000E+00  1.17483E-01
      21    -1     0     0   502   512  0.000000000E+00  0.000000000E+00  5.879225433E+02  5.879225433E+02  0.000000000E+00  0.00000E+00  9.000E+00
      21    -1     0     0   501   502  0.000000000E+00  0.000000000E+00 -3.798629024E+02  3.798629024E+02  0.000000000E+00  0.00000E+00  9.000E+00
      25     1     1     2     0     0 -3.037866127E+02 -1.239665479E+01  1.180248615E+02  3.492776131E+02  1.250000000E+02  0.00000E+00  9.000E+00
      25     1     1     2     0     0  1.695190743E+02 -3.027243947E+01 -2.025462760E+02  2.937739455E+02  1.250000000E+02  0.00000E+00  9.000E+00
      21     1     1     2   501   512  1.342675384E+02  4.266909426E+01  2.925810554E+02  3.247338871E+02  3.814697266E-06  0.00000E+00  9.000E+00
#rwgt            2          11   2.7552044017828377E-003           4      153897           0
</event>
<event>
      5   9999  3.19816E-02  4.01653E+01 -1.00000E+00  1.44729E-01
       1    -1     0     0   502     0  0.000000000E+00  0.000000000E+00  2.292949013E+02  2.292949013E+02  0.000000000E+00  0.00000E+00  9.000E+00
      21    -1     0     0   501   502  0.000000000E+00  0.000000000E+00 -1.781411459E+03  1.781411459E+03  0.000000000E+00  0.00000E+00  9.000E+00
      25     1     1     2     0     0  4.074482939E+02 -7.549053724E+01 -5.613529523E+02  7.088406524E+02  1.250000000E+02  0.00000E+00  9.000E+00
      25     1     1     2     0     0 -4.442157516E+02  9.165846861E+01 -1.094115292E+03  1.190983703E+03  1.250000000E+02  0.00000E+00  9.000E+00
       1     1     1     2   501     0  3.676745776E+01 -1.616793137E+01  1.033516864E+02  1.108820050E+02  1.907348633E-06  0.00000E+00  9.000E+00
#rwgt            1           1   3.5538829931736043E-002           4      153917           0
</event>
<event>
      5   9999  3.19816E-02  4.32170E+01 -1.00000E+00  1.42787E-01
      21    -1     0     0   502   501  0.000000000E+00  0.000000000E+00  1.529867589E+02  1.529867589E+02  0.000000000E+00  0.00000E+00  9.000E+00
      21    -1     0     0   501   511  0.000000000E+00  0.000000000E+00 -6.900860531E+02  6.900860531E+02  0.000000000E+00  0.00000E+00  9.000E+00
      25     1     1     2     0     0  1.488994352E+02  3.929190790E+01 -3.758449748E+02  4.249698118E+02  1.250000000E+02  0.00000E+00  9.000E+00
      25     1     1     2     0     0 -1.434984541E+02 -8.217006652E+01  4.098137358E+01  2.113012048E+02  1.250000000E+02  0.00000E+00  9.000E+00
      21     1     1     2   502   511 -5.400981097E+00  4.287815862E+01 -2.022356930E+02  2.068017954E+02  3.814697266E-06  0.00000E+00  9.000E+00
#rwgt            1           1   2.5547763140272798E-002           4      154050           0
</event>
<event>
      5   9999  3.19816E-02  8.27470E+01 -1.00000E+00  1.27644E-01
      -4    -1     0     0     0   501  0.000000000E+00  0.000000000E+00  3.583382141E+02  3.583382141E+02  0.000000000E+00  0.00000E+00  9.000E+00
      21    -1     0     0   501   502  0.000000000E+00  0.000000000E+00 -1.971407338E+02  1.971407338E+02  0.000000000E+00  0.00000E+00  9.000E+00
      25     1     1     2     0     0  1.714700485E+02  8.669072632E+01 -1.096364705E+01  2.294830301E+02  1.250000000E+02  0.00000E+00  9.000E+00
      25     1     1     2     0     0 -8.879405488E+01 -8.326231286E+01  1.694286733E+02  2.432037670E+02  1.250000000E+02  0.00000E+00  9.000E+00
      -4     1     1     2     0   502 -8.267599357E+01 -3.428413462E+00  2.732453984E+00  8.279215082E+01  1.723903997E-06  0.00000E+00  9.000E+00
#rwgt            1           1   2.5951096019157422E-002           4      154155           0
</event>
<event>
      5   9999  3.19816E-02  6.66767E+01 -1.00000E+00  1.32300E-01
      21    -1     0     0   502   511  0.000000000E+00  0.000000000E+00  7.850489152E+02  7.850489152E+02  0.000000000E+00  0.00000E+00  9.000E+00
      21    -1     0     0   501   502  0.000000000E+00  0.000000000E+00 -9.136400185E+02  9.136400185E+02  0.000000000E+00  0.00000E+00  9.000E+00
      25     1     1     2     0     0 -2.015388132E+02  4.997850235E+02  4.320925668E+02  7.019486799E+02  1.250000000E+02  0.00000E+00  9.000E+00
      25     1     1     2     0     0  2.675104648E+02 -5.094558188E+02 -6.552977759E+02  8.809921993E+02  1.250000000E+02  0.00000E+00  9.000E+00
      21     1     1     2   501   511 -6.597165161E+01  9.670795264E+00  9.461410586E+01  1.157480545E+02  0.000000000E+00  0.00000E+00  9.000E+00
#rwgt            1           1   3.4767043972707135E-002           4      154220           0
</event>
<event>
      5   9999  3.19816E-02  4.98468E+01 -1.00000E+00  1.39152E-01
       2    -1     0     0   502     0  0.000000000E+00  0.000000000E+00  2.293869910E+02  2.293869910E+02  0.000000000E+00  0.00000E+00  9.000E+00
      21    -1     0     0   501   502  0.000000000E+00  0.000000000E+00 -2.832974508E+02  2.832974508E+02  0.000000000E+00  0.00000E+00  9.000E+00
      25     1     1     2     0     0  2.049282007E+01  7.755453757E+01 -1.664398354E+02  2.230737115E+02  1.250000000E+02  0.00000E+00  9.000E+00
      25     1     1     2     0     0 -1.111840065E+01 -2.859720024E+01 -3.541553569E+01  1.334941155E+02  1.250000000E+02  0.00000E+00  9.000E+00
       2     1     1     2   501     0 -9.374419421E+00 -4.895733733E+01  1.479449113E+02  1.561166147E+02  1.907348633E-06  0.00000E+00  9.000E+00
#rwgt            1           1   3.0438341848856212E-002           4      154354           0
</event>
<event>
      5   9999  3.21896E-02  1.07202E+01 -1.00000E+00  1.92329E-01
      21    -1     0     0   511   501  0.000000000E+00  0.000000000E+00  1.165170337E+03  1.165170337E+03  0.000000000E+00  0.00000E+00  9.000E+00
      21    -1     0     0   501   502  0.000000000E+00  0.000000000E+00 -3.472345686E+01  3.472345686E+01  0.000000000E+00  0.00000E+00  9.000E+00
      25     1     1     2     0     0 -8.248238679E+01 -6.300737434E+01  2.160275580E+02  2.703075640E+02  1.250000000E+02  0.00000E+00  9.000E+00
      25     1     1     2     0     0  7.201701009E+01  6.068393606E+01  8.532357906E+02  8.674706359E+02  1.250000000E+02  0.00000E+00  9.000E+00
      21     1     1     2   511   502  1.046537670E+01  2.323438282E+00  6.118353201E+01  6.211559437E+01  6.743495762E-07  0.00000E+00  9.000E+00
#rwgt            1           1   3.1931333141756654E-002           4      154483           0
</event>
<event>
      5   9999  3.19816E-02  8.80003E+00 -1.00000E+00  2.02402E-01
       2    -1     0     0   502     0  0.000000000E+00  0.000000000E+00  2.426700302E+03  2.426700302E+03  0.000000000E+00  0.00000E+00  9.000E+00
      21    -1     0     0   501   502  0.000000000E+00  0.000000000E+00 -1.035693749E+02  1.035693749E+02  0.000000000E+00  0.00000E+00  9.000E+00
      25     1     1     2     0     0 -1.928063481E+02  2.337002341E+02  3.720929145E+02  4.958510102E+02  1.250000000E+02  0.00000E+00  9.000E+00
      25     1     1     2     0     0  1.906161579E+02 -2.422233578E+02  6.219694447E+02  7.053209658E+02  1.250000000E+02  0.00000E+00  9.000E+00
       2     1     1     2   501     0  2.190190194E+00  8.523123644E+00  1.329068568E+03  1.329097701E+03  0.000000000E+00  0.00000E+00  9.000E+00
#rwgt            1           1   2.7981248047683396E-002           4      154656           0
</event>
<event>
      5   9999  3.19816E-02  7.88676E+01 -1.00000E+00  1.28650E-01
      21    -1     0     0   502   501  0.000000000E+00  0.000000000E+00  6.953647849E+02  6.953647849E+02  0.000000000E+00  0.00000E+00  9.000E+00
      -1    -1     0     0     0   502  0.000000000E+00  0.000000000E+00 -3.418279751E+02  3.418279751E+02  0.000000000E+00  0.00000E+00  9.000E+00
      25     1     1     2     0     0 -1.549797047E+02 -2.752149274E+02  5.377299812E+02  6.360349816E+02  1.250000000E+02  0.00000E+00  9.000E+00
      25     1     1     2     0     0  1.269253000E+02  2.015057174E+02 -1.769711597E+02  3.219602107E+02  1.250000000E+02  0.00000E+00  9.000E+00
      -1     1     1     2     0   501  2.805440478E+01  7.370921005E+01 -7.222011634E+00  7.919756768E+01  2.054415696E-06  0.00000E+00  9.000E+00
#rwgt            1           1   2.6196180563603941E-002           4      154941           0
</event>
<event>
      5   9999  3.19816E-02  4.03193E+01 -1.00000E+00  1.44626E-01
      21    -1     0     0   502   511  0.000000000E+00  0.000000000E+00  1.675441337E+03  1.675441337E+03  0.000000000E+00  0.00000E+00  9.000E+00
      21    -1     0     0   501   502  0.000000000E+00  0.000000000E+00 -1.681751216E+02  1.681751216E+02  0.000000000E+00  0.00000E+00  9.000E+00
      25     1     1     2     0     0  1.402004093E+02 -1.921120399E+02  1.050396138E+03  1.084214110E+03  1.250000000E+02  0.00000E+00  9.000E+00
      25     1     1     2     0     0 -1.434462232E+02  1.519236505E+02 -5.197209246E+01  2.489652846E+02  1.250000000E+02  0.00000E+00  9.000E+00
      21     1     1     2   501   511  3.245813907E+00  4.018838946E+01  5.088421705E+02  5.104370641E+02  9.344061824E-06  0.00000E+00  9.000E+00
#rwgt            1           1   3.4403337481268836E-002           4      155023           0
</event>
<event>
      5   9999  3.19816E-02  1.23320E+02 -1.00000E+00  1.19867E-01
      21    -1     0     0   502   501  0.000000000E+00  0.000000000E+00  8.949785091E+02  8.949785091E+02  0.000000000E+00  0.00000E+00  9.000E+00
      21    -1     0     0   512   502  0.000000000E+00  0.000000000E+00 -6.576970318E+02  6.576970318E+02  0.000000000E+00  0.00000E+00  9.000E+00
      25     1     1     2     0     0  1.703296989E+02 -2.806452104E+02  4.189349569E+01  3.537711201E+02  1.250000000E+02  0.00000E+00  9.000E+00
      25     1     1     2     0     0 -5.200595384E+01  3.153903728E+02  6.461113878E+02  7.316150846E+02  1.250000000E+02  0.00000E+00  9.000E+00
      21     1     1     2   512   501 -1.183237450E+02 -3.474516245E+01 -4.507234062E+02  4.672893363E+02  7.629394531E-06  0.00000E+00  9.000E+00
#rwgt            1           1   2.7214944371604054E-002           4      155139           0
</event>
<event>
      5   9999  3.19816E-02  3.31880E+01 -1.00000E+00  1.50055E-01
       2    -1     0     0   502     0  0.000000000E+00  0.000000000E+00  1.109428760E+03  1.109428760E+03  0.000000000E+00  0.00000E+00  9.000E+00
      21    -1     0     0   501   502  0.000000000E+00  0.000000000E+00 -6.907990411E+01  6.907990411E+01  0.000000000E+00  0.00000E+00  9.000E+00
      25     1     1     2     0     0  1.326538531E+01 -2.165251843E+02  5.949753474E+02  6.455073895E+02  1.250000000E+02  0.00000E+00  9.000E+00
      25     1     1     2     0     0  1.923713171E+01  2.098148965E+02  3.182799050E+02  4.016459335E+02  1.250000000E+02  0.00000E+00  9.000E+00
       2     1     1     2   501     0 -3.250251702E+01  6.710287821E+00  1.270936036E+02  1.313553412E+02  2.336015456E-06  0.00000E+00  9.000E+00
#rwgt            1           1   2.9024632313449223E-002           4      155205           0
</event>
<event>
      5   9999  3.19816E-02  1.54165E+02 -1.00000E+00  1.15924E-01
      21    -1     0     0   502   501  0.000000000E+00  0.000000000E+00  2.134483179E+02  2.134483179E+02  0.000000000E+00  0.00000E+00  9.000E+00
      21    -1     0     0   511   502  0.000000000E+00  0.000000000E+00 -3.448098603E+02  3.448098603E+02  0.000000000E+00  0.00000E+00  9.000E+00
      25     1     1     2     0     0  4.579348191E+01  2.545630578E+01  1.646530619E+01  1.365326803E+02  1.250000000E+02  0.00000E+00  9.000E+00
      25     1     1     2     0     0 -1.905172183E+02  2.766570114E+01 -3.853205207E+01  2.327486209E+02  1.250000000E+02  0.00000E+00  9.000E+00
      21     1     1     2   511   501  1.447237364E+02 -5.312200692E+01 -1.092947966E+02  1.889768770E+02  2.336015456E-06  0.00000E+00  9.000E+00
#rwgt            1           1   2.9609449834960763E-002           4      155312           0
</event>
<event>
      5   9999  3.19816E-02  2.78780E+01 -1.00000E+00  1.55286E-01
      21    -1     0     0   512   501  0.000000000E+00  0.000000000E+00  1.973501380E+03  1.973501380E+03  0.000000000E+00  0.00000E+00  9.000E+00
      21    -1     0     0   501   502  0.000000000E+00  0.000000000E+00 -3.668476511E+02  3.668476511E+02  0.000000000E+00  0.00000E+00  9.000E+00
      25     1     1     2     0     0  2.538197625E+02  5.326267352E+02  3.167697221E+01  6.039405115E+02  1.250000000E+02  0.00000E+00  9.000E+00
      25     1     1     2     0     0 -2.728400632E+02 -5.122451131E+02  1.016024365E+03  1.176761346E+03  1.250000000E+02  0.00000E+00  9.000E+00
      21     1     1     2   512   502  1.902030073E+01 -2.038162208E+01  5.589523917E+02  5.596471732E+02  0.000000000E+00  0.00000E+00  9.000E+00
#rwgt            1           1   2.7445479453254987E-002           4      155348           0
</event>
<event>
      5   9999  3.19816E-02  1.89242E+01 -1.00000E+00  1.68375E-01
      21    -1     0     0   502   501  0.000000000E+00  0.000000000E+00  1.058930170E+02  1.058930170E+02  0.000000000E+00  0.00000E+00  9.000E+00
      -1    -1     0     0     0   502  0.000000000E+00  0.000000000E+00 -1.789862141E+03  1.789862141E+03  0.000000000E+00  0.00000E+00  9.000E+00
      25     1     1     2     0     0 -1.337170580E+02 -6.460487447E+01 -3.910719813E+02  4.365963078E+02  1.250000000E+02  0.00000E+00  9.000E+00
      25     1     1     2     0     0  1.524187625E+02  6.749837901E+01 -4.760878762E+01  2.137267110E+02  1.250000000E+02  0.00000E+00  9.000E+00
      -1     1     1     2     0   501 -1.870170450E+01 -2.893504547E+00 -1.245288355E+03  1.245432139E+03  2.157918644E-05  0.00000E+00  9.000E+00
#rwgt            1           1   2.1164083340514526E-002           4      155476           0
</event>
<event>
      5   9999  3.19816E-02  9.74960E+00 -1.00000E+00  1.97039E-01
      21    -1     0     0   502   501  0.000000000E+00  0.000000000E+00  6.291804565E+01  6.291804565E+01  0.000000000E+00  0.00000E+00  9.000E+00
      21    -1     0     0   501   511  0.000000000E+00  0.000000000E+00 -4.085032516E+02  4.085032516E+02  0.000000000E+00  0.00000E+00  9.000E+00
      25     1     1     2     0     0 -2.774878233E+01  9.067561925E+00 -2.915353494E+02  3.185436792E+02  1.250000000E+02  0.00000E+00  9.000E+00
      25     1     1     2     0     0  3.544781433E+01 -3.085951043E+00 -4.039350981E+01  1.360981494E+02  1.250000000E+02  0.00000E+00  9.000E+00
      21     1     1     2   502   511 -7.699031999E+00 -5.981610881E+00 -1.365634670E+01  1.677946863E+01  1.685873940E-07  0.00000E+00  9.000E+00
#rwgt            1           1   7.4025169018908446E-002           4      155650           0
</event>
<event>
      5   9999  3.19816E-02  2.60403E+01 -1.00000E+00  1.57436E-01
       3    -1     0     0   502     0  0.000000000E+00  0.000000000E+00  5.905303393E+01  5.905303393E+01  0.000000000E+00  0.00000E+00  9.000E+00
      21    -1     0     0   501   502  0.000000000E+00  0.000000000E+00 -7.861796038E+02  7.861796038E+02  0.000000000E+00  0.00000E+00  9.000E+00
      25     1     1     2     0     0  1.319538691E+02  1.925958913E+00 -1.604543526E+02  2.424585164E+02  1.250000000E+02  0.00000E+00  9.000E+00
      25     1     1     2     0     0 -1.093294827E+02  1.096733228E+01 -5.417200004E+02  5.667087232E+02  1.250000000E+02  0.00000E+00  9.000E+00
       3     1     1     2   501     0 -2.262438638E+01 -1.289329120E+01 -2.495221683E+01  3.606539812E+01  3.371747881E-07  0.00000E+00  9.000E+00
#rwgt            1           1   2.7099560739985266E-002           4      155830           0
</event>
<event>
      5   9999  3.19816E-02  1.14565E+01 -1.00000E+00  1.89170E-01
      21    -1     0     0   502   511  0.000000000E+00  0.000000000E+00  8.848535772E+01  8.848535772E+01  0.000000000E+00  0.00000E+00  9.000E+00
      21    -1     0     0   501   502  0.000000000E+00  0.000000000E+00 -1.051332702E+03  1.051332702E+03  0.000000000E+00  0.00000E+00  9.000E+00
      25     1     1     2     0     0 -1.763255155E+02  5.476058703E+01 -8.667827315E+02  8.950009569E+02  1.250000000E+02  0.00000E+00  9.000E+00
      25     1     1     2     0     0  1.650852288E+02 -5.254538661E+01 -9.268412669E+01  2.328722778E+02  1.250000000E+02  0.00000E+00  9.000E+00
      21     1     1     2   501   511  1.124028668E+01 -2.215200427E+00 -3.380486064E+00  1.194482498E+01  3.908537939E-07  0.00000E+00  9.000E+00
#rwgt            1           1   3.1008818956362903E-002           4      155918           0
</event>
<event>
      5   9999  3.19816E-02  1.49770E+01 -1.00000E+00  1.77446E-01
      21    -1     0     0   502   501  0.000000000E+00  0.000000000E+00  6.078767962E+02  6.078767962E+02  0.000000000E+00  0.00000E+00  9.000E+00
       3    -1     0     0   501     0  0.000000000E+00  0.000000000E+00 -1.145308636E+03  1.145308636E+03  0.000000000E+00  0.00000E+00  9.000E+00
      25     1     1     2     0     0  3.804519362E+02  1.039758316E+02  2.570062307E+02  4.870645254E+02  1.250000000E+02  0.00000E+00  9.000E+00
      25     1     1     2     0     0 -3.950653653E+02 -1.072557808E+02  4.151502919E+01  4.300336534E+02  1.250000000E+02  0.00000E+00  9.000E+00
       3     1     1     2   502     0  1.461342910E+01  3.279949231E+00 -8.359530993E+02  8.360872530E+02  1.078959322E-05  0.00000E+00  9.000E+00
#rwgt            1           1   2.8456713487199831E-002           4      156130           0
</event>
<event>
      5   9999  3.19816E-02  2.97917E+01 -1.00000E+00  1.53250E-01
      21    -1     0     0   502   501  0.000000000E+00  0.000000000E+00  3.464974195E+02  3.464974195E+02  0.000000000E+00  0.00000E+00  9.000E+00
      21    -1     0     0   501   511  0.000000000E+00  0.000000000E+00 -2.396409887E+02  2.396409887E+02  0.000000000E+00  0.00000E+00  9.000E+00
      25     1     1     2     0     0 -5.111718567E+01 -1.988855828E+02  2.005806514E+02  3.130911040E+02  1.250000000E+02  0.00000E+00  9.000E+00
      25     1     1     2     0     0  3.543338642E+01  1.735564515E+02 -5.405607283E+01  2.234377447E+02  1.250000000E+02  0.00000E+00  9.000E+00
      21     1     1     2   502   511  1.568379925E+01  2.532913132E+01 -3.966814774E+01  4.960955954E+01  4.768371582E-07  0.00000E+00  9.000E+00
#rwgt            1           1   2.9269833651998919E-002           4      156337           0
</event>
<event>
      5   9999  3.19816E-02  2.05224E+02 -1.00000E+00  1.11242E-01
      21    -1     0     0   502   501  0.000000000E+00  0.000000000E+00  4.476816533E+02  4.476816533E+02  0.000000000E+00  0.00000E+00  9.000E+00
       2    -1     0     0   501     0  0.000000000E+00  0.000000000E+00 -4.578056832E+02  4.578056832E+02  0.000000000E+00  0.00000E+00  9.000E+00
      25     1     1     2     0     0  1.855561246E+02  9.605870699E+00 -1.747010550E+02  2.840225462E+02  1.250000000E+02  0.00000E+00  9.000E+00
      25     1     1     2     0     0 -1.051468926E+01  9.752590620E+01  3.244833000E+02  3.612980391E+02  1.250000000E+02  0.00000E+00  9.000E+00
       2     1     1     2   502     0 -1.750414353E+02 -1.071317769E+02 -1.599062748E+02  2.601667512E+02  6.607249480E-06  0.00000E+00  9.000E+00
#rwgt            2          13   3.2122919496279029E-004           4      156498           0
</event>
<event>
      5   9999  3.19816E-02  8.36339E+01 -1.00000E+00  1.27423E-01
      21    -1     0     0   502   501  0.000000000E+00  0.000000000E+00  5.064557098E+02  5.064557098E+02  0.000000000E+00  0.00000E+00  9.000E+00
       3    -1     0     0   501     0  0.000000000E+00  0.000000000E+00 -5.068286850E+02  5.068286850E+02  0.000000000E+00  0.00000E+00  9.000E+00
      25     1     1     2     0     0  2.136954595E+02  2.921904670E+02 -2.208934157E+01  3.836065138E+02  1.250000000E+02  0.00000E+00  9.000E+00
      25     1     1     2     0     0 -2.594431787E+02 -2.221777968E+02  2.125801861E+02  4.212945192E+02  1.250000000E+02  0.00000E+00  9.000E+00
       3     1     1     2   502     0  4.574771917E+01 -7.001267023E+01 -1.908638197E+02  2.083833618E+02  2.697398305E-06  0.00000E+00  9.000E+00
#rwgt            1           1   2.4322057421237438E-002           4      156517           0
</event>
<event>
      5   9999  3.19816E-02  2.92815E+01 -1.00000E+00  1.53775E-01
      21    -1     0     0   502   501  0.000000000E+00  0.000000000E+00  4.366085827E+02  4.366085827E+02  0.000000000E+00  0.00000E+00  9.000E+00
       2    -1     0     0   501     0  0.000000000E+00  0.000000000E+00 -3.118412643E+03  3.118412643E+03  0.000000000E+00  0.00000E+00  9.000E+00
      25     1     1     2     0     0  7.134132318E+01 -2.538967763E+02  3.024371593E+02  4.202932224E+02  1.250000000E+02  0.00000E+00  9.000E+00
      25     1     1     2     0     0 -6.411449179E+01  2.255211168E+02 -1.596262388E+02  3.099612529E+02  1.250000000E+02  0.00000E+00  9.000E+00
       2     1     1     2   502     0 -7.226831393E+00  2.837565955E+01 -2.824614981E+03  2.824766751E+03  4.315837288E-05  0.00000E+00  9.000E+00
#rwgt            1           1   3.1283104732415731E-002           4      156608           0
</event>
<event>
      5   9999  3.19816E-02  2.18032E+02 -1.00000E+00  1.10300E-01
      21    -1     0     0   502   511  0.000000000E+00  0.000000000E+00  4.770128987E+02  4.770128987E+02  0.000000000E+00  0.00000E+00  9.000E+00
      21    -1     0     0   501   502  0.000000000E+00  0.000000000E+00 -1.311087947E+03  1.311087947E+03  0.000000000E+00  0.00000E+00  9.000E+00
      25     1     1     2     0     0 -8.319458880E+01  1.200497585E+02 -1.194407771E+03  1.209780231E+03  1.250000000E+02  0.00000E+00  9.000E+00
      25     1     1     2     0     0  1.337253724E+02  9.204596484E+01  7.273277697E+01  2.174166316E+02  1.250000000E+02  0.00000E+00  9.000E+00
      21     1     1     2   501   511 -5.053078357E+01 -2.120957233E+02  2.875999459E+02  3.609039828E+02  8.529922400E-06  0.00000E+00  9.000E+00
#rwgt            1           1   3.3686437335088505E-002           4      156697           0
</event>
<event>
      5   9999  3.19816E-02  3.99008E+01 -1.00000E+00  1.44907E-01
      21    -1     0     0   502   501  0.000000000E+00  0.000000000E+00  8.540091417E+02  8.540091417E+02  0.000000000E+00  0.00000E+00  9.000E+00
      21    -1     0     0   512   502  0.000000000E+00  0.000000000E+00 -2.905429876E+02  2.905429876E+02  0.000000000E+00  0.00000E+00  9.000E+00
      25     1     1     2     0     0 -3.890867754E+02  1.654783509E+01  6.007497054E+02  7.267651327E+02  1.250000000E+02  0.00000E+00  9.000E+00
      25     1     1     2     0     0  3.530855164E+02  6.564340879E-01 -2.249718064E+01  3.752345079E+02  1.250000000E+02  0.00000E+00  9.000E+00
      21     1     1     2   512   501  3.600125904E+01 -1.720426918E+01 -1.478637058E+01  4.255248860E+01  1.066240300E-06  0.00000E+00  9.000E+00
#rwgt            1           1   2.9709234334685881E-002           4      156781           0
</event>
<event>
      5   9999  3.19816E-02  1.06847E+02 -1.00000E+00  1.22548E-01
      21    -1     0     0   502   501  0.000000000E+00  0.000000000E+00  1.938078506E+03  1.938078506E+03  0.000000000E+00  0.00000E+00  9.000E+00
      21    -1     0     0   511   502  0.000000000E+00  0.000000000E+00 -1.894568692E+02  1.894568692E+02  0.000000000E+00  0.00000E+00  9.000E+00
      25     1     1     2     0     0  4.775189871E+01  1.239813395E+02  1.530156651E+03  1.540991886E+03  1.250000000E+02  0.00000E+00  9.000E+00
      25     1     1     2     0     0 -1.426496265E+02 -1.730801091E+02  3.391310415E+02  4.253710185E+02  1.250000000E+02  0.00000E+00  9.000E+00
      21     1     1     2   511   501  9.489772775E+01  4.909876956E+01 -1.206660563E+02  1.611724699E+02  3.015782986E-06  0.00000E+00  9.000E+00
#rwgt            1           1   2.6561013266072950E-002           4      156906           0
</event>
<event>
      5   9999  3.19816E-02  4.25472E+01 -1.00000E+00  1.43197E-01
      21    -1     0     0   512   501  0.000000000E+00  0.000000000E+00  4.472223606E+02  4.472223606E+02  0.000000000E+00  0.00000E+00  9.000E+00
      21    -1     0     0   501   502  0.000000000E+00  0.000000000E+00 -5.070454714E+02  5.070454714E+02  0.000000000E+00  0.00000E+00  9.000E+00
      25     1     1     2     0     0 -1.076981251E+02 -3.642597572E+01  2.902535666E+02  3.358539427E+02  1.250000000E+02  0.00000E+00  9.000E+00
      25     1     1     2     0     0  1.065020396E+02  7.895634538E+01 -4.630943904E+02  4.976526935E+02  1.250000000E+02  0.00000E+00  9.000E+00
      21     1     1     2   512   502  1.196085553E+00 -4.253036965E+01  1.130177130E+02  1.207611958E+02  0.000000000E+00  0.00000E+00  9.000E+00
#rwgt            1           1   3.0656802997829677E-002           4      156969           0
</event>
<event>
      5   9999  3.19816E-02  5.39092E+01 -1.00000E+00  1.37236E-01
      21    -1     0     0   502   501  0.000000000E+00  0.000000000E+00  2.497405345E+02  2.497405345E+02  0.000000000E+00  0.00000E+00  9.000E+00
      21    -1     0     0   501   511  0.000000000E+00  0.000000000E+00 -4.378931175E+02  4.378931175E+02  0.000000000E+00  0.00000E+00  9.000E+00
      25     1     1     2     0     0  1.468736552E+02 -2.288768847E+02 -1.142248745E+02  3.203573332E+02  1.250000000E+02  0.00000E+00  9.000E+00
      25     1     1     2     0     0 -1.300977968E+02  1.776444023E+02  2.519126719E+01  2.544456137E+02  1.250000000E+02  0.00000E+00  9.000E+00
      21     1     1     2   502   511 -1.677585849E+01  5.123248243E+01 -9.911897566E+01  1.128307051E+02  1.348699152E-06  0.00000E+00  9.000E+00
#rwgt            1           1   2.8270157080148670E-002           4      157049           0
</event>
<event>
      5   9999  3.19816E-02  6.81658E+01 -1.00000E+00  1.31807E-01
      21    -1     0     0   512   501  0.000000000E+00  0.000000000E+00  9.177929412E+02  9.177929412E+02  0.000000000E+00  0.00000E+00  9.000E+00
      21    -1     0     0   501   502  0.000000000E+00  0.000000000E+00 -2.378387459E+03  2.378387459E+03  0.000000000E+00  0.00000E+00  9.000E+00
      25     1     1     2     0     0  5.001105317E+02  1.236054795E+03 -1.374288226E+03  1.918915091E+03  1.250000000E+02  0.00000E+00  9.000E+00
      25     1     1     2     0     0 -4.339145274E+02 -1.219786306E+03 -1.094361076E+02  1.305282234E+03  1.250000000E+02  0.00000E+00  9.000E+00
      21     1     1     2   512   502 -6.619600433E+01 -1.626848891E+01  2.312981550E+01  7.198307499E+01  1.118282261E-06  0.00000E+00  9.000E+00
#rwgt            1           1   5.3160628385274029E-002           4      157139           0
</event>
<event>
      5   9999  3.19816E-02  1.85492E+01 -1.00000E+00  1.69114E-01
      21    -1     0     0   502   501  0.000000000E+00  0.000000000E+00  1.092782015E+03  1.092782015E+03  0.000000000E+00  0.00000E+00  9.000E+00
       1    -1     0     0   501     0  0.000000000E+00  0.000000000E+00 -4.276598104E+02  4.276598104E+02  0.000000000E+00  0.00000E+00  9.000E+00
      25     1     1     2     0     0 -3.532845512E+01  5.079237746E+01  1.268068039E+02  1.885018060E+02  1.250000000E+02  0.00000E+00  9.000E+00
      25     1     1     2     0     0  3.388522758E+01 -6.928531629E+01  9.291388116E+02  9.406766686E+02  1.250000000E+02  0.00000E+00  9.000E+00
       1     1     1     2   502     0  1.443227539E+00  1.849293883E+01 -3.908234106E+02  3.912633511E+02  7.629394531E-06  0.00000E+00  9.000E+00
#rwgt            1           1   3.8130181039717909E-002           4      157340           0
</event>
<event>
      5   9999  3.19816E-02  1.97156E+02 -1.00000E+00  1.11875E-01
      21    -1     0     0   502   511  0.000000000E+00  0.000000000E+00  2.223329276E+03  2.223329276E+03  0.000000000E+00  0.00000E+00  9.000E+00
      21    -1     0     0   501   502  0.000000000E+00  0.000000000E+00 -2.202875982E+02  2.202875982E+02  0.000000000E+00  0.00000E+00  9.000E+00
      25     1     1     2     0     0 -5.857255941E+02 -1.212846901E+02  1.383745817E+03  1.512667159E+03  1.250000000E+02  0.00000E+00  9.000E+00
      25     1     1     2     0     0  4.432349710E+02 -1.497586760E+01  2.818656237E+02  5.401432642E+02  1.250000000E+02  0.00000E+00  9.000E+00
      21     1     1     2   501   511  1.424906232E+02  1.362605577E+02  3.374302374E+02  3.908064513E+02  8.529922400E-06  0.00000E+00  9.000E+00
#rwgt            1           1   2.5643016325158217E-002           4      157464           0
</event>
<event>
      5   9999  3.19816E-02  5.22621E+01 -1.00000E+00  1.37988E-01
       1    -1     0     0   502     0  0.000000000E+00  0.000000000E+00  8.994267400E+02  8.994267400E+02  0.000000000E+00  0.00000E+00  9.000E+00
      21    -1     0     0   501   502  0.000000000E+00  0.000000000E+00 -2.631852789E+02  2.631852789E+02  0.000000000E+00  0.00000E+00  9.000E+00
      25     1     1     2     0     0 -1.678671551E+02 -2.547581922E+02 -9.035461490E+01  3.418626547E+02  1.250000000E+02  0.00000E+00  9.000E+00
      25     1     1     2     0     0  1.157482052E+02  2.508927284E+02  4.733398403E+02  5.621569287E+02  1.250000000E+02  0.00000E+00  9.000E+00
       1     1     1     2   501     0  5.211894993E+01  3.865463784E+00  2.532562357E+02  2.585924354E+02  3.814697266E-06  0.00000E+00  9.000E+00
#rwgt            1           1   3.1547808387083452E-002           4      157535           0
</event>
<event>
      5   9999  3.19816E-02  1.27213E+02 -1.00000E+00  1.19302E-01
      21    -1     0     0   502   501  0.000000000E+00  0.000000000E+00  6.137900958E+02  6.137900958E+02  0.000000000E+00  0.00000E+00  9.000E+00
      21    -1     0     0   501   511  0.000000000E+00  0.000000000E+00 -1.134488700E+02  1.134488700E+02  0.000000000E+00  0.00000E+00  9.000E+00
      25     1     1     2     0     0  8.235818542E+01  4.047194819E+00  7.948308849E+01  1.695341023E+02  1.250000000E+02  0.00000E+00  9.000E+00
      25     1     1     2     0     0 -1.719315865E+02 -9.437801211E+01  3.187540582E+02  3.945843753E+02  1.250000000E+02  0.00000E+00  9.000E+00
      21     1     1     2   502   511  8.957340104E+01  9.033081729E+01  1.021040791E+02  1.631204882E+02  1.348699152E-06  0.00000E+00  9.000E+00
#rwgt            1           1   2.9675596643509265E-002           4      157625           0
</event>
<event>
      5   9999  3.19816E-02  2.07547E+02 -1.00000E+00  1.11066E-01
      -2    -1     0     0     0   501  0.000000000E+00  0.000000000E+00  7.390488757E+02  7.390488757E+02  0.000000000E+00  0.00000E+00  9.000E+00
      21    -1     0     0   501   502  0.000000000E+00  0.000000000E+00 -6.566800013E+02  6.566800013E+02  0.000000000E+00  0.00000E+00  9.000E+00
      25     1     1     2     0     0 -3.289426220E+02 -5.109693203E+02  5.748325580E+01  6.230748105E+02  1.250000000E+02  0.00000E+00  9.000E+00
      25     1     1     2     0     0  1.225266235E+02  5.326042517E+02 -1.715814733E+01  5.608916690E+02  1.250000000E+02  0.00000E+00  9.000E+00
      -2     1     1     2     0   502  2.064159985E+02 -2.163493139E+01  4.204376590E+01  2.117623974E+02  3.405298437E-06  0.00000E+00  9.000E+00
#rwgt            2           4   3.7171234991469602E-005           4      157693           0
</event>
<event>
      5   9999  3.19816E-02  7.74813E+01 -1.00000E+00  1.29026E-01
      21    -1     0     0   511   501  0.000000000E+00  0.000000000E+00  3.104509714E+02  3.104509714E+02  0.000000000E+00  0.00000E+00  9.000E+00
      21    -1     0     0   501   502  0.000000000E+00  0.000000000E+00 -1.239462558E+03  1.239462558E+03  0.000000000E+00  0.00000E+00  9.000E+00
      25     1     1     2     0     0 -3.764829846E+02 -2.846298035E+02 -7.337135793E+02  8.813138937E+02  1.250000000E+02  0.00000E+00  9.000E+00
      25     1     1     2     0     0  3.893492280E+02  3.610354272E+02 -2.186378474E+02  5.876792572E+02  1.250000000E+02  0.00000E+00  9.000E+00
      21     1     1     2   511   502 -1.286624334E+01 -7.640562367E+01  2.333984003E+01  8.092037864E+01  1.846782373E-06  0.00000E+00  9.000E+00
#rwgt            1           1   3.5489853949395356E-002           4      157712           0
</event>
<event>
      5   9999  3.19816E-02  2.39119E+02 -1.00000E+00  1.08895E-01
      21    -1     0     0   502   512  0.000000000E+00  0.000000000E+00  5.654398574E+02  5.654398574E+02  0.000000000E+00  0.00000E+00  9.000E+00
      21    -1     0     0   501   502  0.000000000E+00  0.000000000E+00 -1.066985658E+03  1.066985658E+03  0.000000000E+00  0.00000E+00  9.000E+00
      25     1     1     2     0     0 -4.987090948E+02  9.146386928E+01 -5.047331690E+02  7.262623304E+02  1.250000000E+02  0.00000E+00  9.000E+00
      25     1     1     2     0     0  5.578517461E+02 -3.231531343E+02  6.289579435E+01  6.597025085E+02  1.250000000E+02  0.00000E+00  9.000E+00
      21     1     1     2   501   512 -5.914265127E+01  2.316892651E+02 -5.970842547E+01  2.464606760E+02  2.132480600E-06  0.00000E+00  9.000E+00
#rwgt            2          11   5.8508666163041428E-003           4      157883           0
</event>
<event>
      5   9999  3.19816E-02  1.51789E+02 -1.00000E+00  1.16190E-01
      21    -1     0     0   502   511  0.000000000E+00  0.000000000E+00  1.036113470E+03  1.036113470E+03  0.000000000E+00  0.00000E+00  9.000E+00
      21    -1     0     0   501   502  0.000000000E+00  0.000000000E+00 -4.679481866E+02  4.679481866E+02  0.000000000E+00  0.00000E+00  9.000E+00
      25     1     1     2     0     0 -3.933745091E+02  1.168152456E+02 -2.876540305E+02  5.164873157E+02  1.250000000E+02  0.00000E+00  9.000E+00
      25     1     1     2     0     0  2.842520156E+02 -1.130658936E+01  3.960440630E+02  5.033914453E+02  1.250000000E+02  0.00000E+00  9.000E+00
      21     1     1     2   501   511  1.091224935E+02 -1.055086562E+02  4.597752506E+02  4.841828954E+02  7.629394531E-06  0.00000E+00  9.000E+00
#rwgt            2          11   2.4796028007237577E-003           4      158053           0
</event>
<event>
      5   9999  3.19816E-02  7.49976E+01 -1.00000E+00  1.29722E-01
      21    -1     0     0   502   501  0.000000000E+00  0.000000000E+00  4.963271331E+02  4.963271331E+02  0.000000000E+00  0.00000E+00  9.000E+00
      21    -1     0     0   501   512  0.000000000E+00  0.000000000E+00 -1.166181150E+02  1.166181150E+02  0.000000000E+00  0.00000E+00  9.000E+00
      25     1     1     2     0     0  2.295034385E+01  8.746495448E+01  2.893315313E+02  3.278941469E+02  1.250000000E+02  0.00000E+00  9.000E+00
      25     1     1     2     0     0  3.230499779E+01 -1.381748406E+02  9.142476299E+01  2.100461539E+02  1.250000000E+02  0.00000E+00  9.000E+00
      21     1     1     2   502   512 -5.525534164E+01  5.070988616E+01 -1.047276257E+00  7.500494732E+01  4.180300277E-07  0.00000E+00  9.000E+00
#rwgt            1           1   3.1534965922221499E-002           4      158103           0
</event>
<event>
      5   9999  3.19816E-02  7.55139E+01 -1.00000E+00  1.29574E-01
      21    -1     0     0   502   501  0.000000000E+00  0.000000000E+00  1.841419666E+03  1.841419666E+03  0.000000000E+00  0.00000E+00  9.000E+00
      21    -1     0     0   511   502  0.000000000E+00  0.000000000E+00 -1.148548085E+02  1.148548085E+02  0.000000000E+00  0.00000E+00  9.000E+00
      25     1     1     2     0     0 -3.006105665E+02 -3.004214673E+01  7.199274253E+02  7.906894087E+02  1.250000000E+02  0.00000E+00  9.000E+00
      25     1     1     2     0     0  2.721710701E+02  9.999598285E+01  1.037142136E+03  1.084142563E+03  1.250000000E+02  0.00000E+00  9.000E+00
      21     1     1     2   511   501  2.843949647E+01 -6.995383612E+01 -3.050470412E+01  8.144250193E+01  1.469710828E-06  0.00000E+00  9.000E+00
#rwgt            1           1   3.1677766621287649E-002           4      158156           0
</event>
<event>
      5   9999  3.19816E-02  4.85638E+01 -1.00000E+00  1.39802E-01
      21    -1     0     0   502   501  0.000000000E+00  0.000000000E+00  7.585264980E+01  7.585264980E+01  0.000000000E+00  0.00000E+00  9.000E+00
       2    -1     0     0   501     0  0.000000000E+00  0.000000000E+00 -1.648729804E+03  1.648729804E+03  0.000000000E+00  0.00000E+00  9.000E+00
      25     1     1     2     0     0  1.126080687E+02 -7.387975332E+01 -7.689353598E+01  1.991893847E+02  1.250000000E+02  0.00000E+00  9.000E+00
      25     1     1     2     0     0 -6.982093122E+01  5.090786559E+01 -3.932231028E+02  4.215637340E+02  1.250000000E+02  0.00000E+00  9.000E+00
       2     1     1     2   502     0 -4.278713752E+01  2.297188773E+01 -1.102760516E+03  1.103829336E+03  0.000000000E+00  0.00000E+00  9.000E+00
#rwgt            1           1   3.0425035104028546E-002           4      158249           0
</event>
<event>
      5   9999  3.19816E-02  8.41446E+01 -1.00000E+00  1.27297E-01
      21    -1     0     0   502   501  0.000000000E+00  0.000000000E+00  1.551202991E+03  1.551202991E+03  0.000000000E+00  0.00000E+00  9.000E+00
      21    -1     0     0   501   511  0.000000000E+00  0.000000000E+00 -1.840699316E+02  1.840699316E+02  0.000000000E+00  0.00000E+00  9.000E+00
      25     1     1     2     0     0  5.042558395E+01 -2.132050593E+02  5.432349579E+02  5.989393595E+02  1.250000000E+02  0.00000E+00  9.000E+00
      25     1     1     2     0     0  3.258211250E+01  2.269902338E+02  9.497152532E+02  9.849721937E+02  1.250000000E+02  0.00000E+00  9.000E+00
      21     1     1     2   502   511 -8.300769645E+01 -1.378517447E+01 -1.258171513E+02  1.513613698E+02  3.303624740E-06  0.00000E+00  9.000E+00
#rwgt            1           1   3.9575529498194505E-002           4      158355           0
</event>
<event>
      5   9999  3.19816E-02  1.99300E+02 -1.00000E+00  1.11703E-01
      21    -1     0     0   502   501  0.000000000E+00  0.000000000E+00  9.964152579E+02  9.964152579E+02  0.000000000E+00  0.00000E+00  9.000E+00
      21    -1     0     0   512   502  0.000000000E+00  0.000000000E+00 -2.393090657E+02  2.393090657E+02  0.000000000E+00  0.00000E+00  9.000E+00
      25     1     1     2     0     0  2.259353112E+02 -2.311445370E+02  2.821272600E+02  4.468728596E+02  1.250000000E+02  0.00000E+00  9.000E+00
      25     1     1     2     0     0 -8.668015882E+01  3.737229872E+02  4.193204079E+02  5.819251890E+02  1.250000000E+02  0.00000E+00  9.000E+00
      21     1     1     2   512   501 -1.392551524E+02 -1.425784502E+02  5.565852427E+01  2.069262749E+02  4.523674479E-06  0.00000E+00  9.000E+00
#rwgt            1           1   2.8275412815892378E-002           4      158408           0
</event>
<event>
      5   9999  3.19816E-02  1.39902E+01 -1.00000E+00  1.80283E-01
       1    -1     0     0   502     0  0.000000000E+00  0.000000000E+00  4.381870851E+02  4.381870851E+02  0.000000000E+00  0.00000E+00  9.000E+00
      21    -1     0     0   501   502  0.000000000E+00  0.000000000E+00 -1.144208727E+02  1.144208727E+02  0.000000000E+00  0.00000E+00  9.000E+00
      25     1     1     2     0     0  6.652196136E+01 -1.045749372E+02  1.278554579E+02  2.175617314E+02  1.250000000E+02  0.00000E+00  9.000E+00
      25     1     1     2     0     0 -6.454831679E+01  9.072469933E+01  3.186489461E+01  1.704048936E+02  1.250000000E+02  0.00000E+00  9.000E+00
       1     1     1     2   501     0 -1.973644572E+00  1.385023787E+01  1.640458598E+02  1.646413329E+02  3.303624740E-06  0.00000E+00  9.000E+00
#rwgt            1           1   2.5532747878537543E-002           4      158474           0
</event>
<event>
      5   9999  3.19816E-02  9.95170E+01 -1.00000E+00  1.23923E-01
      21    -1     0     0   511   501  0.000000000E+00  0.000000000E+00  5.015153424E+02  5.015153424E+02  0.000000000E+00  0.00000E+00  9.000E+00
      21    -1     0     0   501   502  0.000000000E+00  0.000000000E+00 -4.456369969E+02  4.456369969E+02  0.000000000E+00  0.00000E+00  9.000E+00
      25     1     1     2     0     0 -3.225776977E+02  1.897448496E+02  1.067486354E+02  4.087538992E+02  1.250000000E+02  0.00000E+00  9.000E+00
      25     1     1     2     0     0  2.954336149E+02 -2.854884194E+02 -7.516696421E+01  4.359584051E+02  1.250000000E+02  0.00000E+00  9.000E+00
      21     1     1     2   511   502  2.714408273E+01  9.574356978E+01  2.429667429E+01  1.024400350E+02  2.360223517E-06  0.00000E+00  9.000E+00
#rwgt            1           1   2.3329329459631745E-002           4      158593           0
</event>
<event>
      5   9999  3.19816E-02  1.04090E+02 -1.00000E+00  1.23050E-01
      21    -1     0     0   502   501  0.000000000E+00  0.000000000E+00  2.790304426E+02  2.790304426E+02  0.000000000E+00  0.00000E+00  9.000E+00
      21    -1     0     0   512   502  0.000000000E+00  0.000000000E+00 -1.728508588E+03  1.728508588E+03  0.000000000E+00  0.00000E+00  9.000E+00
      25     1     1     2     0     0 -2.431009361E+02  2.923648839E+02  9.156634098E+01  4.105906541E+02  1.250000000E+02  0.00000E+00  9.000E+00
      25     1     1     2     0     0  1.505630324E+02 -2.447058982E+02 -1.211058080E+03  1.250934401E+03  1.250000000E+02  0.00000E+00  9.000E+00
      21     1     1     2   512   501  9.253790372E+01 -4.765898574E+01 -3.299864065E+02  3.460139752E+02  0.000000000E+00  0.00000E+00  9.000E+00
#rwgt            1           1   2.2442209521527822E-002           4      158647           0
</event>
<event>
      5   9999  3.19816E-02  2.77938E+01 -1.00000E+00  1.55380E-01
      -1    -1     0     0     0   501  0.000000000E+00  0.000000000E+00  1.705246489E+03  1.705246489E+03  0.000000000E+00  0.00000E+00  9.000E+00
      21    -1     0     0   501   502  0.000000000E+00  0.000000000E+00 -1.621461053E+02  1.621461053E+02  0.000000000E+00  0.00000E+00  9.000E+00
      25     1     1     2     0     0  3.514004938E+01 -4.169883189E+01 -1.005364468E+02  1.694290199E+02  1.250000000E+02  0.00000E+00  9.000E+00
      25     1     1     2     0     0 -6.183308552E+01  3.395435495E+01  1.634870045E+02  2.175528196E+02  1.250000000E+02  0.00000E+00  9.000E+00
      -1     1     1     2     0   502  2.669303614E+01  7.744476946E+00  1.480149826E+03  1.480410755E+03  2.157918644E-05  0.00000E+00  9.000E+00
#rwgt            1           1   2.7101860510701712E-002           4      158728           0
</event>
<event>
      5   9999  3.19816E-02  2.25969E+02 -1.00000E+00  1.09751E-01
      21    -1     0     0   502   511  0.000000000E+00  0.000000000E+00  5.558402092E+02  5.558402092E+02  0.000000000E+00  0.00000E+00  9.000E+00
      21    -1     0     0   501   502  0.000000000E+00  0.000000000E+00 -1.085596503E+03  1.085596503E+03  0.000000000E+00  0.00000E+00  9.000E+00
      25     1     1     2     0     0 -2.549067201E+02 -4.104833529E+02 -8.803453035E+02  1.011981656E+03  1.250000000E+02  0.00000E+00  9.000E+00
      25     1     1     2     0     0  1.800023987E+02  1.972900572E+02  2.251739889E+02  3.710155731E+02  1.250000000E+02  0.00000E+00  9.000E+00
      21     1     1     2   501   511  7.490432140E+01  2.131932957E+02  1.254150210E+02  2.584394827E+02  1.348699152E-06  0.00000E+00  9.000E+00
#rwgt            2          11   4.1987665825319546E-003           4      159072           0
</event>
<event>
      5   9999  3.19816E-02  1.28031E+01 -1.00000E+00  1.84118E-01
      21    -1     0     0   502   512  0.000000000E+00  0.000000000E+00  3.385604242E+02  3.385604242E+02  0.000000000E+00  0.00000E+00  9.000E+00
      21    -1     0     0   501   502  0.000000000E+00  0.000000000E+00 -1.543106204E+03  1.543106204E+03  0.000000000E+00  0.00000E+00  9.000E+00
      25     1     1     2     0     0  8.223590891E+01 -3.127658411E+02 -1.424425155E+03  1.466014065E+03  1.250000000E+02  0.00000E+00  9.000E+00
      25     1     1     2     0     0 -7.115375800E+01  3.063545966E+02  2.183402697E+02  4.027573332E+02  1.250000000E+02  0.00000E+00  9.000E+00
      21     1     1     2   501   512 -1.108215091E+01  6.411244537E+00  1.539105212E+00  1.289523052E+01  2.457562462E-07  0.00000E+00  9.000E+00
#rwgt            1           1   2.9002617770914094E-002           4      159092           0
</event>
<event>
      5   9999  3.19816E-02  6.43279E+02 -1.00000E+00  9.58396E-02
      21    -1     0     0   502   501  0.000000000E+00  0.000000000E+00  5.325664524E+02  5.325664524E+02  0.000000000E+00  0.00000E+00  9.000E+00
       2    -1     0     0   501     0  0.000000000E+00  0.000000000E+00 -2.890950862E+03  2.890950862E+03  0.000000000E+00  0.00000E+00  9.000E+00
      25     1     1     2     0     0 -3.270691981E+00  1.456099037E+02  2.741872282E+02  3.346887772E+02  1.250000000E+02  0.00000E+00  9.000E+00
      25     1     1     2     0     0  3.373547222E+02 -6.953331703E+02 -6.936415022E+02  1.045973212E+03  1.250000000E+02  0.00000E+00  9.000E+00
       2     1     1     2   502     0 -3.340840302E+02  5.497232666E+02 -1.938930135E+03  2.042855325E+03  2.157918644E-05  0.00000E+00  9.000E+00
#rwgt            2          13   1.3549056056700094E-003           4      159396           0
</event>
<event>
      5   9999  3.19816E-02  1.34641E+01 -1.00000E+00  1.81920E-01
      21    -1     0     0   502   501  0.000000000E+00  0.000000000E+00  1.553530219E+02  1.553530219E+02  0.000000000E+00  0.00000E+00  9.000E+00
      21    -1     0     0   501   511  0.000000000E+00  0.000000000E+00 -6.414295971E+02  6.414295971E+02  0.000000000E+00  0.00000E+00  9.000E+00
      25     1     1     2     0     0  2.053694489E+02 -1.575539645E+02 -1.499039465E+02  3.241852178E+02  1.250000000E+02  0.00000E+00  9.000E+00
      25     1     1     2     0     0 -2.121454879E+02  1.691887453E+02 -2.624723444E+02  3.976773455E+02  1.250000000E+02  0.00000E+00  9.000E+00
      21     1     1     2   502   511  6.776039023E+00 -1.163478078E+01 -7.370028432E+01  7.492005564E+01  0.000000000E+00  0.00000E+00  9.000E+00
#rwgt            1           1   2.8668866814522746E-002           4      159415           0
</event>
<event>
      5   9999  3.19816E-02  1.47457E+02 -1.00000E+00  1.16689E-01
      21    -1     0     0   502   512  0.000000000E+00  0.000000000E+00  3.625469926E+02  3.625469926E+02  0.000000000E+00  0.00000E+00  9.000E+00
      21    -1     0     0   501   502  0.000000000E+00  0.000000000E+00 -3.133338961E+02  3.133338961E+02  0.000000000E+00  0.00000E+00  9.000E+00
      25     1     1     2     0     0 -7.894278046E+01 -2.588411228E+02 -8.969152426E+01  3.112880643E+02  1.250000000E+02  0.00000E+00  9.000E+00
      25     1     1     2     0     0  8.644257078E+01  1.115749133E+02  6.327445500E+01  1.988716571E+02  1.250000000E+02  0.00000E+00  9.000E+00
      21     1     1     2   501   512 -7.499790317E+00  1.472662095E+02  7.563016578E+01  1.657211673E+02  2.861022949E-06  0.00000E+00  9.000E+00
#rwgt            2          11   3.0595594134871893E-003           4      159586           0
</event>
<event>
      5   9999  3.19816E-02  3.86972E+02 -1.00000E+00  1.02120E-01
       1    -1     0     0   502     0  0.000000000E+00  0.000000000E+00  8.142139995E+02  8.142139995E+02  0.000000000E+00  0.00000E+00  9.000E+00
      21    -1     0     0   501   502  0.000000000E+00  0.000000000E+00 -6.772735041E+02  6.772735041E+02  0.000000000E+00  0.00000E+00  9.000E+00
      25     1     1     2     0     0 -1.350917108E+02  2.565332670E+02 -2.934633966E+02  4.310508700E+02  1.250000000E+02  0.00000E+00  9.000E+00
      25     1     1     2     0     0  5.188354115E+02 -2.066521619E+02  1.817430958E+02  6.004588688E+02  1.250000000E+02  0.00000E+00  9.000E+00
       1     1     1     2   501     0 -3.837437007E+02 -4.988110511E+01  2.486607962E+02  4.599777647E+02  1.236103191E-05  0.00000E+00  9.000E+00
#rwgt            2          17   3.3209261600926387E-004           4      159636           0
</event>
<event>
      5   9999  3.19816E-02  1.41156E+02 -1.00000E+00  1.17449E-01
      21    -1     0     0   502   501  0.000000000E+00  0.000000000E+00  1.027313050E+03  1.027313050E+03  0.000000000E+00  0.00000E+00  9.000E+00
      21    -1     0     0   501   511  0.000000000E+00  0.000000000E+00 -1.788257106E+02  1.788257106E+02  0.000000000E+00  0.00000E+00  9.000E+00
      25     1     1     2     0     0  2.151152800E+02  1.872539430E+02  5.341589686E+02  6.182955820E+02  1.250000000E+02  0.00000E+00  9.000E+00
      25     1     1     2     0     0 -3.196132902E+02 -9.235824880E+01  2.175354530E+02  4.166885824E+02  1.250000000E+02  0.00000E+00  9.000E+00
      21     1     1     2   502   511  1.044980102E+02 -9.489569420E+01  9.679291795E+01  1.711545964E+02  3.814697266E-06  0.00000E+00  9.000E+00
#rwgt            1           1   2.8032190858423026E-002           4      159655           0
</event>
<event>
      5   9999  3.19816E-02  4.34288E+01 -1.00000E+00  1.42659E-01
      21    -1     0     0   512   501  0.000000000E+00  0.000000000E+00  1.424495437E+02  1.424495437E+02  0.000000000E+00  0.00000E+00  9.000E+00
      21    -1     0     0   501   502  0.000000000E+00  0.000000000E+00 -4.523174700E+02  4.523174700E+02  0.000000000E+00  0.00000E+00  9.000E+00
      25     1     1     2     0     0 -1.276821323E+01  5.727088785E+01 -3.809456901E+02  4.052006918E+02  1.250000000E+02  0.00000E+00  9.000E+00
      25     1     1     2     0     0  3.146267698E+01 -1.807164482E+01  4.001352802E+01  1.361710939E+02  1.250000000E+02  0.00000E+00  9.000E+00
      21     1     1     2   512   502 -1.869446374E+01 -3.919924303E+01  3.106423575E+01  5.339522798E+01  4.768371582E-07  0.00000E+00  9.000E+00
#rwgt            1           1   2.6100445642109480E-002           4      159713           0
</event>
<event>
      5   9999  3.19816E-02  9.14010E+01 -1.00000E+00  1.25610E-01
      21    -1     0     0   502   501  0.000000000E+00  0.000000000E+00  7.782728561E+02  7.782728561E+02  0.000000000E+00  0.00000E+00  9.000E+00
      21    -1     0     0   511   502  0.000000000E+00  0.000000000E+00 -1.366808946E+03  1.366808946E+03  0.000000000E+00  0.00000E+00  9.000E+00
      25     1     1     2     0     0  9.505042533E+02 -2.987608495E+02 -3.451741916E+02  1.061831721E+03  1.250000000E+02  0.00000E+00  9.000E+00
      25     1     1     2     0     0 -8.794771313E+02  3.562872352E+02 -1.850368871E+02  9.748252500E+02  1.250000000E+02  0.00000E+00  9.000E+00
      21     1     1     2   511   501 -7.102712198E+01 -5.752638567E+01 -5.832501116E+01  1.084248313E+02  1.507891493E-06  0.00000E+00  9.000E+00
#rwgt            1           1   3.6279610496661049E-002           4      159786           0
</event>
<event>
      5   9999  3.19816E-02  4.21808E+01 -1.00000E+00  1.43425E-01
      21    -1     0     0   502   501  0.000000000E+00  0.000000000E+00  2.477422628E+02  2.477422628E+02  0.000000000E+00  0.00000E+00  9.000E+00
       2    -1     0     0   501     0  0.000000000E+00  0.000000000E+00 -1.537429154E+03  1.537429154E+03  0.000000000E+00  0.00000E+00  9.000E+00
      25     1     1     2     0     0 -2.796751782E+02  1.789354033E+02 -7.087764021E+02  7.926065052E+02  1.250000000E+02  0.00000E+00  9.000E+00
      25     1     1     2     0     0  3.099140069E+02 -2.083435140E+02  1.603917463E+01  3.941268407E+02  1.250000000E+02  0.00000E+00  9.000E+00
       2     1     1     2   502     0 -3.023882865E+01  2.940811070E+01 -5.969496637E+02  5.984380709E+02  0.000000000E+00  0.00000E+00  9.000E+00
#rwgt            2          13   4.9423717167317331E-004           4      159980           0
</event>
<event>
      5   9999  3.19816E-02  5.62755E+01 -1.00000E+00  1.36208E-01
      21    -1     0     0   502   511  0.000000000E+00  0.000000000E+00  6.294575976E+02  6.294575976E+02  0.000000000E+00  0.00000E+00  9.000E+00
      21    -1     0     0   501   502  0.000000000E+00  0.000000000E+00 -1.276059153E+03  1.276059153E+03  0.000000000E+00  0.00000E+00  9.000E+00
      25     1     1     2     0     0 -2.822575727E+02  6.083526604E+02 -8.580872227E+02  1.096221227E+03  1.250000000E+02  0.00000E+00  9.000E+00
      25     1     1     2     0     0  2.665388139E+02 -6.623882774E+02  1.982457671E+02  7.514835684E+02  1.250000000E+02  0.00000E+00  9.000E+00
      21     1     1     2   501   511  1.571875886E+01  5.403561697E+01  1.323989978E+01  5.781195575E+01  2.920019320E-07  0.00000E+00  9.000E+00
#rwgt            1           1   3.3854891260628947E-002           4      160029           0
</event>
<event>
      5   9999  3.19816E-02  1.72773E+01 -1.00000E+00  1.71790E-01
      21    -1     0     0   512   501  0.000000000E+00  0.000000000E+00  1.639099668E+03  1.639099668E+03  0.000000000E+00  0.00000E+00  9.000E+00
      21    -1     0     0   501   502  0.000000000E+00  0.000000000E+00 -1.085196593E+02  1.085196593E+02  0.000000000E+00  0.00000E+00  9.000E+00
      25     1     1     2     0     0  9.188187029E+01 -3.526169455E+02  4.451648674E+02  5.887085421E+02  1.250000000E+02  0.00000E+00  9.000E+00
      25     1     1     2     0     0 -7.495366008E+01  3.560722410E+02  9.937386952E+02  1.065620517E+03  1.250000000E+02  0.00000E+00  9.000E+00
      21     1     1     2   512   502 -1.692821021E+01 -3.455295504E+00  9.167644601E+01  9.329026809E+01  1.348699152E-06  0.00000E+00  9.000E+00
#rwgt            1           1   2.5531709819991665E-002           4      160219           0
</event>
<event>
      5   9999  3.19816E-02  1.35928E+01 -1.00000E+00  1.81511E-01
      21    -1     0     0   511   501  0.000000000E+00  0.000000000E+00  3.159074613E+02  3.159074613E+02  0.000000000E+00  0.00000E+00  9.000E+00
      21    -1     0     0   501   502  0.000000000E+00  0.000000000E+00 -1.950836758E+02  1.950836758E+02  0.000000000E+00  0.00000E+00  9.000E+00
      25     1     1     2     0     0 -1.365516760E+01  9.542208893E+01 -1.344221094E+02  2.073309966E+02  1.250000000E+02  0.00000E+00  9.000E+00
      25     1     1     2     0     0  1.189987992E+01 -8.194314406E+01  2.235923839E+02  2.692115156E+02  1.250000000E+02  0.00000E+00  9.000E+00
      21     1     1     2   511   502  1.755287677E+00 -1.347894488E+01  3.165351107E+01  3.444862483E+01  0.000000000E+00  0.00000E+00  9.000E+00
#rwgt            1           1   2.7293676773785150E-002           4      160413           0
</event>
<event>
      5   9999  3.19816E-02  7.92534E+01 -1.00000E+00  1.28547E-01
      21    -1     0     0   502   501  0.000000000E+00  0.000000000E+00  6.998894725E+02  6.998894725E+02  0.000000000E+00  0.00000E+00  9.000E+00
      21    -1     0     0   512   502  0.000000000E+00  0.000000000E+00 -1.328038505E+02  1.328038505E+02  0.000000000E+00  0.00000E+00  9.000E+00
      25     1     1     2     0     0 -7.204489234E+01  1.273517499E+02  5.324338591E+02  5.661446362E+02  1.250000000E+02  0.00000E+00  9.000E+00
      25     1     1     2     0     0  1.076043664E+02 -5.652356210E+01  5.830219220E+01  1.838416665E+02  1.250000000E+02  0.00000E+00  9.000E+00
      21     1     1     2   512   501 -3.555947406E+01 -7.082818781E+01 -2.365042938E+01  8.270702022E+01  9.536743164E-07  0.00000E+00  9.000E+00
#rwgt            1           1   3.4126859931932194E-002           4      160581           0
</event>
<event>
      5   9999  3.19816E-02  2.59498E+02 -1.00000E+00  1.07680E-01
      21    -1     0     0   502   501  0.000000000E+00  0.000000000E+00  9.800105228E+02  9.800105228E+02  0.000000000E+00  0.00000E+00  9.000E+00
      21    -1     0     0   511   502  0.000000000E+00  0.000000000E+00 -9.669488679E+02  9.669488679E+02  0.000000000E+00  0.00000E+00  9.000E+00
      25     1     1     2     0     0 -6.151278603E+02 -6.406743945E+02 -3.008211793E+02  9.460255526E+02  1.250000000E+02  0.00000E+00  9.000E+00
      25     1     1     2     0     0  3.891124058E+02  5.131750410E+02  3.421557912E+02  7.399004477E+02  1.250000000E+02  0.00000E+00  9.000E+00
      21     1     1     2   511   501  2.260154545E+02  1.274993535E+02 -2.827295700E+01  2.610333904E+02  1.118282261E-06  0.00000E+00  9.000E+00
#rwgt            2          11   6.2433063972417938E-003           4      160648           0
</event>
<event>
      5   9999  3.19816E-02  1.32680E+01 -1.00000E+00  1.82555E-01
      21    -1     0     0   502   501  0.000000000E+00  0.000000000E+00  3.269712332E+02  3.269712332E+02  0.000000000E+00  0.00000E+00  9.000E+00
      21    -1     0     0   512   502  0.000000000E+00  0.000000000E+00 -2.774485281E+02  2.774485281E+02  0.000000000E+00  0.00000E+00  9.000E+00
      25     1     1     2     0     0 -1.258504435E+01 -7.597014479E+01  1.381104946E+01  1.474638645E+02  1.250000000E+02  0.00000E+00  9.000E+00
      25     1     1     2     0     0  1.289999516E+01  6.270591831E+01  2.260670877E+02  2.661386297E+02  1.250000000E+02  0.00000E+00  9.000E+00
      21     1     1     2   512   501 -3.149508036E-01  1.326422647E+01 -1.903554321E+02  1.908172671E+02  3.814697266E-06  0.00000E+00  9.000E+00
#rwgt            1           1   3.2953690146114829E-002           4      160668           0
</event>
<event>
      5   9999  3.19816E-02  6.23546E+01 -1.00000E+00  1.33816E-01
      21    -1     0     0   502   501  0.000000000E+00  0.000000000E+00  2.076064767E+03  2.076064767E+03  0.000000000E+00  0.00000E+00  9.000E+00
      21    -1     0     0   511   502  0.000000000E+00  0.000000000E+00 -4.659648228E+01  4.659648228E+01  0.000000000E+00  0.00000E+00  9.000E+00
      25     1     1     2     0     0  2.267192487E+02  7.592921473E+00  1.050224032E+03  1.081690708E+03  1.250000000E+02  0.00000E+00  9.000E+00
      25     1     1     2     0     0 -2.579818216E+02  4.635842885E+01  8.239116258E+02  8.735897729E+02  1.250000000E+02  0.00000E+00  9.000E+00
      21     1     1     2   511   501  3.126257293E+01 -5.395135033E+01  1.553326272E+02  1.673807688E+02  1.907348633E-06  0.00000E+00  9.000E+00
#rwgt            1           1   2.5153040717124164E-002           4      160814           0
</event>
<event>
      5   9999  3.49030E-02  4.37183E+01 -1.00000E+00  1.42486E-01
      21    -1     0     0   512   501  0.000000000E+00  0.000000000E+00  5.456519742E+02  5.456519742E+02  0.000000000E+00  0.00000E+00  9.000E+00
      21    -1     0     0   501   502  0.000000000E+00  0.000000000E+00 -8.863153973E+01  8.863153973E+01  0.000000000E+00  0.00000E+00  9.000E+00
      25     1     1     2     0     0 -5.976211180E+01  9.975440543E+01  1.250943136E+02  2.116507470E+02  1.250000000E+02  0.00000E+00  9.000E+00
      25     1     1     2     0     0  4.235242679E+01 -5.965213809E+01  7.708858592E+01  1.640724100E+02  1.250000000E+02  0.00000E+00  9.000E+00
      21     1     1     2   512   502  1.740968501E+01 -4.010226734E+01  2.548375349E+02  2.585603570E+02  0.000000000E+00  0.00000E+00  9.000E+00
#rwgt            1           1   9.4426220613583856E-002           4      160912           0
</event>
<event>
      5   9999  3.19816E-02  6.13316E+01 -1.00000E+00  1.34196E-01
      21    -1     0     0   502   501  0.000000000E+00  0.000000000E+00  1.462506484E+03  1.462506484E+03  0.000000000E+00  0.00000E+00  9.000E+00
      21    -1     0     0   511   502  0.000000000E+00  0.000000000E+00 -4.012515693E+02  4.012515693E+02  0.000000000E+00  0.00000E+00  9.000E+00
      25     1     1     2     0     0 -7.037540699E+01 -1.327631687E+02  1.824794315E+02  2.673995135E+02  1.250000000E+02  0.00000E+00  9.000E+00
      25     1     1     2     0     0  2.243565604E+01  1.710169384E+02  1.225690975E+03  1.244063310E+03  1.250000000E+02  0.00000E+00  9.000E+00
      21     1     1     2   511   501  4.793975094E+01 -3.825376969E+01 -3.469154920E+02  3.522952302E+02  7.629394531E-06  0.00000E+00  9.000E+00
#rwgt            1           1   2.9063539288201067E-002           4      160985           0
</event>
<event>
      5   9999  3.19816E-02  7.40521E+01 -1.00000E+00  1.29995E-01
      -3    -1     0     0     0   501  0.000000000E+00  0.000000000E+00  4.269211416E+02  4.269211416E+02  0.000000000E+00  0.00000E+00  9.000E+00
      21    -1     0     0   501   502  0.000000000E+00  0.000000000E+00 -2.507580975E+02  2.507580975E+02  0.000000000E+00  0.00000E+00  9.000E+00
      25     1     1     2     0     0  2.129263802E+02  3.916083757E+01 -2.771798391E+01  2.515243551E+02  1.250000000E+02  0.00000E+00  9.000E+00
      25     1     1     2     0     0 -2.426215871E+02 -1.069982017E+02  1.272183417E+02  3.195674516E+02  1.250000000E+02  0.00000E+00  9.000E+00
      -3     1     1     2     0   502  2.969520690E+01  6.783736408E+01  7.666268629E+01  1.065874324E+02  1.907348633E-06  0.00000E+00  9.000E+00
#rwgt            1           1   3.1568074849432755E-002           4      161063           0
</event>
<event>
      5   9999  3.19816E-02  1.72296E+01 -1.00000E+00  1.71895E-01
      21    -1     0     0   511   501  0.000000000E+00  0.000000000E+00  2.026040852E+03  2.026040852E+03  0.000000000E+00  0.00000E+00  9.000E+00
      21    -1     0     0   501   502  0.000000000E+00  0.000000000E+00 -3.244607176E+02  3.244607176E+02  0.000000000E+00  0.00000E+00  9.000E+00
      25     1     1     2     0     0  6.630990896E+02  3.361411450E+02  8.685050292E+02  1.150050980E+03  1.250000000E+02  0.00000E+00  9.000E+00
      25     1     1     2     0     0 -6.803236714E+02 -3.357255521E+02  6.228059923E+02  9.894767548E+02  1.250000000E+02  0.00000E+00  9.000E+00
      21     1     1     2   511   502  1.722458183E+01 -4.155928470E-01  2.102691134E+02  2.109738348E+02  2.697398305E-06  0.00000E+00  9.000E+00
#rwgt            2          11   1.7122202463607057E-003           4      161176           0
</event>
<event>
      5   9999  3.19816E-02  1.02639E+03 -1.00000E+00  9.07205E-02
       1    -1     0     0   502     0  0.000000000E+00  0.000000000E+00  2.418050481E+03  2.418050481E+03  0.000000000E+00  0.00000E+00  9.000E+00
      21    -1     0     0   501   502  0.000000000E+00  0.000000000E+00 -5.681926625E+02  5.681926625E+02  0.000000000E+00  0.00000E+00  9.000E+00
      25     1     1     2     0     0  3.028006098E+02  1.032866223E+03  1.063241678E+03  1.518093775E+03  1.250000000E+02  0.00000E+00  9.000E+00
      25     1     1     2     0     0 -2.279199015E+01 -4.541009575E+01  3.067686306E+02  3.351321297E+02  1.250000000E+02  0.00000E+00  9.000E+00
       1     1     1     2   501     0 -2.800086196E+02 -9.874561272E+02  4.798475094E+02  1.133017238E+03  1.868812365E-05  0.00000E+00  9.000E+00
#rwgt            2          17   2.7232898635212033E-004           4      161211           0
</event>
<event>
      5   9999  3.19816E-02  7.39464E+00 -1.00000E+00  2.12241E-01
      21    -1     0     0   502   501  0.000000000E+00  0.000000000E+00  6.552243871E+02  6.552243871E+02  0.000000000E+00  0.00000E+00  9.000E+00
      21    -1     0     0   501   511  0.000000000E+00  0.000000000E+00 -8.587042656E+01  8.587042656E+01  0.000000000E+00  0.00000E+00  9.000E+00
      25     1     1     2     0     0  1.717563629E+02 -7.060246056E+01  1.905312635E+02  2.939593815E+02  1.250000000E+02  0.00000E+00  9.000E+00
      25     1     1     2     0     0 -1.663670209E+02  6.553928465E+01  3.813276086E+02  4.393280421E+02  1.250000000E+02  0.00000E+00  9.000E+00
      21     1     1     2   502   511 -5.389342002E+00  5.063175905E+00 -2.504911565E+00  7.807390051E+00  1.861154437E-07  0.00000E+00  9.000E+00
#rwgt            1           1   2.5511457254592942E-002           4      161245           0
</event>
<event>
      5   9999  3.19816E-02  3.52509E+02 -1.00000E+00  1.03365E-01
      21    -1     0     0   502   512  0.000000000E+00  0.000000000E+00  9.847423738E+02  9.847423738E+02  0.000000000E+00  0.00000E+00  9.000E+00
      21    -1     0     0   501   502  0.000000000E+00  0.000000000E+00 -1.407645108E+03  1.407645108E+03  0.000000000E+00  0.00000E+00  9.000E+00
      25     1     1     2     0     0 -3.556768944E+02  4.740841441E+02 -7.099379396E+02  9.332195385E+02  1.250000000E+02  0.00000E+00  9.000E+00
      25     1     1     2     0     0  6.687930774E+02 -6.360132803E+02 -9.876118754E+01  9.365766628E+02  1.250000000E+02  0.00000E+00  9.000E+00
      21     1     1     2   501   512 -3.131161830E+02  1.619291363E+02  3.857963931E+02  5.225912802E+02  7.629394531E-06  0.00000E+00  9.000E+00
#rwgt            2          11   3.4817697766545705E-003           4      161841           0
</event>
<event>
      5   9999  3.19816E-02  3.94364E+01 -1.00000E+00  1.45223E-01
      21    -1     0     0   502   501  0.000000000E+00  0.000000000E+00  1.522021316E+01  1.522021316E+01  0.000000000E+00  0.00000E+00  9.000E+00
       2    -1     0     0   501     0  0.000000000E+00  0.000000000E+00 -3.214379957E+03  3.214379957E+03  0.000000000E+00  0.00000E+00  9.000E+00
      25     1     1     2     0     0  1.455766865E+02 -5.676641746E+01 -1.016790632E+03  1.036293002E+03  1.250000000E+02  0.00000E+00  9.000E+00
      25     1     1     2     0     0 -1.069866383E+02  4.864014649E+01 -1.496077964E+03  1.505883887E+03  1.250000000E+02  0.00000E+00  9.000E+00
       2     1     1     2   502     0 -3.859004826E+01  8.126270975E+00 -6.862911481E+02  6.874232816E+02  1.321449896E-05  0.00000E+00  9.000E+00
#rwgt            1           1   4.4276196083991103E-002           4      161876           0
</event>
<event>
      5   9999  3.19816E-02  2.24379E+01 -1.00000E+00  1.62350E-01
      21    -1     0     0   502   501  0.000000000E+00  0.000000000E+00  1.241638979E+03  1.241638979E+03  0.000000000E+00  0.00000E+00  9.000E+00
      21    -1     0     0   511   502  0.000000000E+00  0.000000000E+00 -6.495230420E+01  6.495230420E+01  0.000000000E+00  0.00000E+00  9.000E+00
      25     1     1     2     0     0  1.126839526E+01  2.329630190E+02  4.805004217E+02  5.485475368E+02  1.250000000E+02  0.00000E+00  9.000E+00
      25     1     1     2     0     0 -3.228569012E+01 -2.408198987E+02  6.699020412E+02  7.234848542E+02  1.250000000E+02  0.00000E+00  9.000E+00
      21     1     1     2   511   501  2.101729486E+01  7.856879653E+00  2.628421239E+01  3.455889267E+01  3.371747881E-07  0.00000E+00  9.000E+00
#rwgt            1           1   2.5006998783658682E-002           4      161954           0
</event>
<event>
      5   9999  3.19816E-02  9.73200E+01 -1.00000E+00  1.24361E-01
      21    -1     0     0   502   501  0.000000000E+00  0.000000000E+00  1.575194792E+03  1.575194792E+03  0.000000000E+00  0.00000E+00  9.000E+00
       1    -1     0     0   501     0  0.000000000E+00  0.000000000E+00 -1.164913867E+03  1.164913867E+03  0.000000000E+00  0.00000E+00  9.000E+00
      25     1     1     2     0     0 -5.596103312E+01 -3.991940688E+02  8.770777936E+02  9.733334464E+02  1.250000000E+02  0.00000E+00  9.000E+00
      25     1     1     2     0     0  1.282404987E+02  3.340260859E+02  5.923193231E+02  7.031971502E+02  1.250000000E+02  0.00000E+00  9.000E+00
       1     1     1     2   502     0 -7.227946558E+01  6.516798293E+01 -1.059116192E+03  1.063578062E+03  1.525878906E-05  0.00000E+00  9.000E+00
#rwgt            2          12   6.0898969532612625E-003           4      162125           0
</event>
<event>
      5   9999  3.19816E-02  1.60455E+02 -1.00000E+00  1.15246E-01
       2    -1     0     0   502     0  0.000000000E+00  0.000000000E+00  7.280660121E+02  7.280660121E+02  0.000000000E+00  0.00000E+00  9.000E+00
      21    -1     0     0   501   502  0.000000000E+00  0.000000000E+00 -4.245857944E+02  4.245857944E+02  0.000000000E+00  0.00000E+00  9.000E+00
      25     1     1     2     0     0 -3.621032222E+01  5.642477556E+01  4.571467596E+02  4.786471587E+02  1.250000000E+02  0.00000E+00  9.000E+00
      25     1     1     2     0     0 -8.544583970E+01 -1.610462446E+02 -3.539930271E+02  4.173403259E+02  1.250000000E+02  0.00000E+00  9.000E+00
       2     1     1     2   501     0  1.216561619E+02  1.046214690E+02  2.003264852E+02  2.566643219E+02  2.697398305E-06  0.00000E+00  9.000E+00
#rwgt            2          18   3.4495761895751720E-004           4      162249           0
</event>
<event>
      5   9999  3.19816E-02  2.47327E+01 -1.00000E+00  1.59101E-01
      21    -1     0     0   502   501  0.000000000E+00  0.000000000E+00  4.648728203E+02  4.648728203E+02  0.000000000E+00  0.00000E+00  9.000E+00
      21    -1     0     0   501   511  0.000000000E+00  0.000000000E+00 -5.087416252E+02  5.087416252E+02  0.000000000E+00  0.00000E+00  9.000E+00
      25     1     1     2     0     0  2.785922339E+02 -2.723410779E+02 -8.355757728E+01  4.176004840E+02  1.250000000E+02  0.00000E+00  9.000E+00
      25     1     1     2     0     0 -2.561886871E+02  2.618631268E+02  1.704416823E+02  4.229424401E+02  1.250000000E+02  0.00000E+00  9.000E+00
      21     1     1     2   502   511 -2.240354689E+01  1.047795107E+01 -1.307529099E+02  1.330715215E+02  0.000000000E+00  0.00000E+00  9.000E+00
#rwgt            1           1   2.8912539136032842E-002           4      162268           0
</event>
<event>
      5   9999  3.19816E-02  1.03148E+02 -1.00000E+00  1.23225E-01
      21    -1     0     0   502   512  0.000000000E+00  0.000000000E+00  8.536393538E+01  8.536393538E+01  0.000000000E+00  0.00000E+00  9.000E+00
      21    -1     0     0   501   502  0.000000000E+00  0.000000000E+00 -1.404348663E+03  1.404348663E+03  0.000000000E+00  0.00000E+00  9.000E+00
      25     1     1     2     0     0 -1.556118441E+02 -1.035054995E+02 -6.336268932E+02  6.723365781E+02  1.250000000E+02  0.00000E+00  9.000E+00
      25     1     1     2     0     0  2.582373350E+02  9.313498990E+01 -6.341123041E+02  7.021994459E+02  1.250000000E+02  0.00000E+00  9.000E+00
      21     1     1     2   501   512 -1.026254909E+02  1.037050965E+01 -5.124552987E+01  1.151765740E+02  2.023048729E-06  0.00000E+00  9.000E+00
#rwgt            1           1   3.1625694355669726E-002           4      162420           0
</event>
<event>
      5   9999  3.19816E-02  3.19401E+01 -1.00000E+00  1.51173E-01
      21    -1     0     0   502   501  0.000000000E+00  0.000000000E+00  5.350567782E+02  5.350567782E+02  0.000000000E+00  0.00000E+00  9.000E+00
       2    -1     0     0   501     0  0.000000000E+00  0.000000000E+00 -3.589836669E+03  3.589836669E+03  0.000000000E+00  0.00000E+00  9.000E+00
      25     1     1     2     0     0  5.726551476E+01 -1.806536016E+02  3.812390413E+02  4.437153024E+02  1.250000000E+02  0.00000E+00  9.000E+00
      25     1     1     2     0     0 -7.243319930E+01  1.525446767E+02  3.242595808E+01  2.125861932E+02  1.250000000E+02  0.00000E+00  9.000E+00
       2     1     1     2   502     0  1.516768454E+01  2.810892483E+01 -3.468444890E+03  3.468591951E+03  0.000000000E+00  0.00000E+00  9.000E+00
#rwgt            1           1   2.7241777118716198E-002           4      162460           0
</event>
<event>
      5   9999  3.19816E-02  9.83203E+01 -1.00000E+00  1.24160E-01
      21    -1     0     0   502   501  0.000000000E+00  0.000000000E+00  3.230679146E+02  3.230679146E+02  0.000000000E+00  0.00000E+00  9.000E+00
      21    -1     0     0   511   502  0.000000000E+00  0.000000000E+00 -4.240464625E+02  4.240464625E+02  0.000000000E+00  0.00000E+00  9.000E+00
      25     1     1     2     0     0 -2.372437048E+02 -1.063595758E+02  1.706163799E+02  3.351594902E+02  1.250000000E+02  0.00000E+00  9.000E+00
      25     1     1     2     0     0  1.500981046E+02  6.083460929E+01 -1.409196369E+02  2.484222912E+02  1.250000000E+02  0.00000E+00  9.000E+00
      21     1     1     2   511   501  8.714560018E+01  4.552496648E+01 -1.306752908E+02  1.635325956E+02  1.907348633E-06  0.00000E+00  9.000E+00
#rwgt            1           1   2.9218912300291718E-002           4      162581           0
</event>
<event>
      5   9999  3.19816E-02  7.37964E+02 -1.00000E+00  9.42751E-02
      21    -1     0     0   502   501  0.000000000E+00  0.000000000E+00  3.916192718E+02  3.916192718E+02  0.000000000E+00  0.00000E+00  9.000E+00
      21    -1     0     0   512   502  0.000000000E+00  0.000000000E+00 -2.103561505E+03  2.103561505E+03  0.000000000E+00  0.00000E+00  9.000E+00
      25     1     1     2     0     0 -8.452052419E+01 -5.392547906E+01 -4.407199462E+02  4.689464226E+02  1.250000000E+02  0.00000E+00  9.000E+00
      25     1     1     2     0     0  5.776957959E+02 -4.950453239E+02 -3.522912310E+02  8.476652740E+02  1.250000000E+02  0.00000E+00  9.000E+00
      21     1     1     2   512   501 -4.931752717E+02  5.489708030E+02 -9.189310560E+02  1.178569080E+03  1.078959322E-05  0.00000E+00  9.000E+00
#rwgt            2          11   1.0409290943405513E-003           4      162705           0
</event>
<event>
      5   9999  3.19816E-02  4.33374E+01 -1.00000E+00  1.42714E-01
      21    -1     0     0   502   501  0.000000000E+00  0.000000000E+00  3.371972702E+02  3.371972702E+02  0.000000000E+00  0.00000E+00  9.000E+00
      21    -1     0     0   501   511  0.000000000E+00  0.000000000E+00 -8.184706895E+02  8.184706895E+02  0.000000000E+00  0.00000E+00  9.000E+00
      25     1     1     2     0     0  3.624163768E+02  3.107956744E+00  1.041696562E+02  3.972802623E+02  1.250000000E+02  0.00000E+00  9.000E+00
      25     1     1     2     0     0 -3.585168746E+02 -4.626954692E+01 -3.482875069E+02  5.173049466E+02  1.250000000E+02  0.00000E+00  9.000E+00
      21     1     1     2   502   511 -3.899502174E+00  4.316159017E+01 -2.371555686E+02  2.410827508E+02  2.697398305E-06  0.00000E+00  9.000E+00
#rwgt            1           1   2.7449643932136492E-002           4      162770           0
</event>
<event>
      5   9999  3.19816E-02  3.14091E+01 -1.00000E+00  1.51668E-01
      21    -1     0     0   512   501  0.000000000E+00  0.000000000E+00  1.109665531E+03  1.109665531E+03  0.000000000E+00  0.00000E+00  9.000E+00
      21    -1     0     0   501   502  0.000000000E+00  0.000000000E+00 -2.783728147E+03  2.783728147E+03  0.000000000E+00  0.00000E+00  9.000E+00
      25     1     1     2     0     0  1.005041433E+03  7.685963310E+02 -2.161625230E+03  2.507807256E+03  1.250000000E+02  0.00000E+00  9.000E+00
      25     1     1     2     0     0 -1.018014203E+03 -7.399914519E+02  4.830847796E+02  1.353859731E+03  1.250000000E+02  0.00000E+00  9.000E+00
      21     1     1     2   512   502  1.297277064E+01 -2.860487911E+01  4.477834531E+00  3.172669048E+01  1.460009660E-07  0.00000E+00  9.000E+00
#rwgt            1           1   1.2523076643980863E-002           4      162886           0
</event>
<event>
      5   9999  3.19816E-02  1.65031E+02 -1.00000E+00  1.14773E-01
      21    -1     0     0   502   501  0.000000000E+00  0.000000000E+00  3.886029896E+02  3.886029896E+02  0.000000000E+00  0.00000E+00  9.000E+00
      21    -1     0     0   501   511  0.000000000E+00  0.000000000E+00 -4.610252998E+02  4.610252998E+02  0.000000000E+00  0.00000E+00  9.000E+00
      25     1     1     2     0     0 -7.267229640E+01  3.779632268E+01  3.183115628E+00  1.494822963E+02  1.250000000E+02  0.00000E+00  9.000E+00
      25     1     1     2     0     0  1.939074504E+02  7.417332172E+01  2.418408091E+02  3.423649484E+02  1.250000000E+02  0.00000E+00  9.000E+00
      21     1     1     2   502   511 -1.212351540E+02 -1.119696444E+02 -3.174462349E+02  3.577810446E+02  7.629394531E-06  0.00000E+00  9.000E+00
#rwgt            1           1   2.1506969036177995E-002           4      163115           0
</event>
<event>
      5   9999  3.19816E-02  1.06701E+01 -1.00000E+00  1.92556E-01
      21    -1     0     0   502   501  0.000000000E+00  0.000000000E+00  2.212478929E+02  2.212478929E+02  0.000000000E+00  0.00000E+00  9.000E+00
      21    -1     0     0   512   502  0.000000000E+00  0.000000000E+00 -2.901027335E+02  2.901027335E+02  0.000000000E+00  0.00000E+00  9.000E+00
      25     1     1     2     0     0 -1.865364706E+02 -1.090443954E+02  7.403296047E-02  2.496227964E+02  1.250000000E+02  0.00000E+00  9.000E+00
      25     1     1     2     0     0  1.805516823E+02  1.002107982E+02 -6.278545816E+01  2.494155725E+02  1.250000000E+02  0.00000E+00  9.000E+00
      21     1     1     2   512   501  5.984788290E+00  8.833597194E+00 -6.143415347E+00  1.231225740E+01  1.884864366E-07  0.00000E+00  9.000E+00
#rwgt            1           1   2.5245762938814850E-002           4      163165           0
</event>
<event>
      5   9999  3.19816E-02  1.07196E+02 -1.00000E+00  1.22486E-01
      21    -1     0     0   511   501  0.000000000E+00  0.000000000E+00  2.727634169E+02  2.727634169E+02  0.000000000E+00  0.00000E+00  9.000E+00
      21    -1     0     0   501   502  0.000000000E+00  0.000000000E+00 -4.191800468E+02  4.191800468E+02  0.000000000E+00  0.00000E+00  9.000E+00
      25     1     1     2     0     0  6.480261223E-01 -9.851949743E+01  1.224065950E+00  1.591634683E+02  1.250000000E+02  0.00000E+00  9.000E+00
      25     1     1     2     0     0  1.033448015E+02  7.250939511E+01 -2.987059568E+02  3.475456934E+02  1.250000000E+02  0.00000E+00  9.000E+00
      21     1     1     2   511   502 -1.039928276E+02  2.601010232E+01  1.510652609E+02  1.852343021E+02  2.697398305E-06  0.00000E+00  9.000E+00
#rwgt            1           1   2.8031629776057460E-002           4      163401           0
</event>
<event>
      5   9999  3.19816E-02  1.88712E+01 -1.00000E+00  1.68478E-01
       2    -1     0     0   502     0  0.000000000E+00  0.000000000E+00  3.519207104E+02  3.519207104E+02  0.000000000E+00  0.00000E+00  9.000E+00
      21    -1     0     0   501   502  0.000000000E+00  0.000000000E+00 -4.105402657E+02  4.105402657E+02  0.000000000E+00  0.00000E+00  9.000E+00
      25     1     1     2     0     0  1.651497606E+02  4.985229735E+01 -3.152075638E+02  3.804477668E+02  1.250000000E+02  0.00000E+00  9.000E+00
      25     1     1     2     0     0 -1.826965906E+02 -5.679720055E+01  1.490817229E+02  2.728632007E+02  1.250000000E+02  0.00000E+00  9.000E+00
       2     1     1     2   501     0  1.754683000E+01  6.944903199E+00  1.075062856E+02  1.091500085E+02  1.348699152E-06  0.00000E+00  9.000E+00
#rwgt            1           1   2.6193509500989160E-002           4      163467           0
</event>
<event>
      5   9999  3.19816E-02  4.97934E+01 -1.00000E+00  1.39178E-01
      21    -1     0     0   511   501  0.000000000E+00  0.000000000E+00  2.834764684E+02  2.834764684E+02  0.000000000E+00  0.00000E+00  9.000E+00
      21    -1     0     0   501   502  0.000000000E+00  0.000000000E+00 -5.506825660E+02  5.506825660E+02  0.000000000E+00  0.00000E+00  9.000E+00
      25     1     1     2     0     0  2.179237912E+02  5.527201989E+01 -2.082598160E+02  3.309726966E+02  1.250000000E+02  0.00000E+00  9.000E+00
      25     1     1     2     0     0 -2.570072574E+02 -8.612433581E+01 -1.961884380E+02  3.571904741E+02  1.250000000E+02  0.00000E+00  9.000E+00
      21     1     1     2   511   502  3.908346622E+01  3.085231592E+01  1.372421564E+02  1.459958637E+02  1.907348633E-06  0.00000E+00  9.000E+00
#rwgt            1           1   3.0156735630596267E-002           4      163666           0
</event>
<event>
      5   9999  3.19816E-02  1.09851E+01 -1.00000E+00  1.91156E-01
      21    -1     0     0   502   501  0.000000000E+00  0.000000000E+00  4.789470964E+02  4.789470964E+02  0.000000000E+00  0.00000E+00  9.000E+00
      21    -1     0     0   501   512  0.000000000E+00  0.000000000E+00 -3.632845144E+02  3.632845144E+02  0.000000000E+00  0.00000E+00  9.000E+00
      25     1     1     2     0     0  1.239182095E+02 -2.953481210E+02 -1.679773005E+02  3.826586059E+02  1.250000000E+02  0.00000E+00  9.000E+00
      25     1     1     2     0     0 -1.305504028E+02  2.865910379E+02  2.907620307E+02  4.464811185E+02  1.250000000E+02  0.00000E+00  9.000E+00
      21     1     1     2   502   512  6.632193335E+00  8.757083133E+00 -7.122148204E+00  1.309188636E+01  1.460009660E-07  0.00000E+00  9.000E+00
#rwgt            1           1   2.6354675292585918E-002           4      163763           0
</event>
<event>
      5   9999  3.19816E-02  1.91551E+01 -1.00000E+00  1.67931E-01
      21    -1     0     0   502   511  0.000000000E+00  0.000000000E+00  1.361288583E+02  1.361288583E+02  0.000000000E+00  0.00000E+00  9.000E+00
      21    -1     0     0   501   502  0.000000000E+00  0.000000000E+00 -6.444031907E+02  6.444031907E+02  0.000000000E+00  0.00000E+00  9.000E+00
      25     1     1     2     0     0 -7.082642778E+00 -8.470639366E+00 -5.906801598E+02  6.038625396E+02  1.250000000E+02  0.00000E+00  9.000E+00
      25     1     1     2     0     0  2.071192895E+01 -4.988935038E+00  9.059151838E+01  1.558386880E+02  1.250000000E+02  0.00000E+00  9.000E+00
      21     1     1     2   501   511 -1.362928617E+01  1.345957440E+01 -8.185690932E+00  2.083082141E+01  2.665600750E-07  0.00000E+00  9.000E+00
#rwgt            1           1   2.8856391084805005E-002           4      163919           0
</event>
<event>
      5   9999  3.19816E-02  4.28617E+01 -1.00000E+00  1.43003E-01
      21    -1     0     0   502   501  0.000000000E+00  0.000000000E+00  3.214670587E+02  3.214670587E+02  0.000000000E+00  0.00000E+00  9.000E+00
      21    -1     0     0   512   502  0.000000000E+00  0.000000000E+00 -4.007675499E+02  4.007675499E+02  0.000000000E+00  0.00000E+00  9.000E+00
      25     1     1     2     0     0 -2.969206553E+01  1.784103415E+02  9.546006803E+01  2.396862393E+02  1.250000000E+02  0.00000E+00  9.000E+00
      25     1     1     2     0     0 -1.293294848E+01 -1.829080357E+02  7.106125630E+01  2.330178380E+02  1.250000000E+02  0.00000E+00  9.000E+00
      21     1     1     2   512   501  4.262501401E+01  4.497694219E+00 -2.458218155E+02  2.495305313E+02  2.697398305E-06  0.00000E+00  9.000E+00
#rwgt            1           1   2.9994237595562856E-002           4      164111           0
</event>
<event>
      5   9999  3.19816E-02  6.22862E+01 -1.00000E+00  1.33841E-01
      21    -1     0     0   502   511  0.000000000E+00  0.000000000E+00  3.211244208E+02  3.211244208E+02  0.000000000E+00  0.00000E+00  9.000E+00
      21    -1     0     0   501   502  0.000000000E+00  0.000000000E+00 -2.637154232E+02  2.637154232E+02  0.000000000E+00  0.00000E+00  9.000E+00
      25     1     1     2     0     0  1.298572584E+02  1.025130357E+02  1.549075360E+02  2.588303977E+02  1.250000000E+02  0.00000E+00  9.000E+00
      25     1     1     2     0     0 -1.052355152E+02 -1.597261548E+02 -1.220579922E+02  2.590561940E+02  1.250000000E+02  0.00000E+00  9.000E+00
      21     1     1     2   501   511 -2.462174321E+01  5.721311911E+01  2.455945379E+01  6.695325240E+01  4.768371582E-07  0.00000E+00  9.000E+00
#rwgt            1           1   2.6390864584989251E-002           4      164199           0
</event>
<event>
      5   9999  3.19816E-02  4.02607E+01 -1.00000E+00  1.44665E-01
      21    -1     0     0   502   501  0.000000000E+00  0.000000000E+00  5.754314383E+02  5.754314383E+02  0.000000000E+00  0.00000E+00  9.000E+00
      21    -1     0     0   512   502  0.000000000E+00  0.000000000E+00 -1.283789878E+02  1.283789878E+02  0.000000000E+00  0.00000E+00  9.000E+00
      25     1     1     2     0     0 -1.379427277E+02 -4.718924022E+01  9.145696888E+00  1.922593672E+02  1.250000000E+02  0.00000E+00  9.000E+00
      25     1     1     2     0     0  1.703287810E+02  2.327134194E+01  4.122235206E+02  4.637959464E+02  1.250000000E+02  0.00000E+00  9.000E+00
      21     1     1     2   512   501 -3.238605328E+01  2.391789828E+01  2.568323297E+01  4.775511241E+01  7.539457465E-07  0.00000E+00  9.000E+00
#rwgt            1           1   2.9912067750580498E-002           4      164312           0
</event>
<event>
      5   9999  3.19816E-02  6.69871E+01 -1.00000E+00  1.32196E-01
      21    -1     0     0   502   501  0.000000000E+00  0.000000000E+00  2.647840409E+01  2.647840409E+01  0.000000000E+00  0.00000E+00  9.000E+00
      21    -1     0     0   501   511  0.000000000E+00  0.000000000E+00 -3.514984910E+03  3.514984910E+03  0.000000000E+00  0.00000E+00  9.000E+00
      25     1     1     2     0     0  1.755259785E+02  6.316894683E+01 -2.088635693E+03  2.100672212E+03  1.250000000E+02  0.00000E+00  9.000E+00
      25     1     1     2     0     0 -2.357019192E+02 -3.373887449E+01 -1.009016852E+03  1.044238342E+03  1.250000000E+02  0.00000E+00  9.000E+00
      21     1     1     2   502   511  6.017594068E+01 -2.943007233E+01 -3.908539614E+02  3.965527608E+02  0.000000000E+00  0.00000E+00  9.000E+00
#rwgt            1           1   2.6416456789292924E-002           4      164396           0
</event>
<event>
      5   9999  3.19816E-02  1.55055E+02 -1.00000E+00  1.15826E-01
       2    -1     0     0   502     0  0.000000000E+00  0.000000000E+00  2.080889882E+03  2.080889882E+03  0.000000000E+00  0.00000E+00  9.000E+00
      21    -1     0     0   501   502  0.000000000E+00  0.000000000E+00 -1.260142254E+03  1.260142254E+03  0.000000000E+00  0.00000E+00  9.000E+00
      25     1     1     2     0     0  3.043008145E+01 -3.597094475E+02 -1.170042575E+03  1.230829600E+03  1.250000000E+02  0.00000E+00  9.000E+00
      25     1     1     2     0     0 -1.076307949E+02  4.941794870E+02  1.265890700E+03  1.368905409E+03  1.250000000E+02  0.00000E+00  9.000E+00
       2     1     1     2   501     0  7.720071342E+01 -1.344700395E+02  7.248995031E+02  7.412971275E+02  0.000000000E+00  0.00000E+00  9.000E+00
#rwgt            1           1   6.3104579633811719E-002           4      164502           0
</event>
<event>
      5   9999  3.19816E-02  1.50404E+02 -1.00000E+00  1.16347E-01
       2    -1     0     0   502     0  0.000000000E+00  0.000000000E+00  2.963138830E+03  2.963138830E+03  0.000000000E+00  0.00000E+00  9.000E+00
      21    -1     0     0   501   502  0.000000000E+00  0.000000000E+00 -3.872549583E+01  3.872549583E+01  0.000000000E+00  0.00000E+00  9.000E+00
      25     1     1     2     0     0 -3.307521180E+01 -2.567506134E+02  7.819191587E+02  8.330890816E+02  1.250000000E+02  0.00000E+00  9.000E+00
      25     1     1     2     0     0  7.708060107E+01  1.129285695E+02  1.100894571E+03  1.116372759E+03  1.250000000E+02  0.00000E+00  9.000E+00
       2     1     1     2   501     0 -4.400538926E+01  1.438220439E+02  1.041599604E+03  1.052402485E+03  1.525878906E-05  0.00000E+00  9.000E+00
#rwgt            1           1   3.2964942804672041E-002           4      164607           0
</event>
<event>
      5   9999  3.19816E-02  4.59535E+01 -1.00000E+00  1.41199E-01
      21    -1     0     0   502   511  0.000000000E+00  0.000000000E+00  1.830538937E+03  1.830538937E+03  0.000000000E+00  0.00000E+00  9.000E+00
      21    -1     0     0   501   502  0.000000000E+00  0.000000000E+00 -2.558589517E+02  2.558589517E+02  0.000000000E+00  0.00000E+00  9.000E+00
      25     1     1     2     0     0  3.213584907E+01 -1.478634355E+02  1.562369268E+03  1.574648862E+03  1.250000000E+02  0.00000E+00  9.000E+00
      25     1     1     2     0     0 -7.369361381E+01  1.674765716E+02 -1.975796745E+02  2.968869794E+02  1.250000000E+02  0.00000E+00  9.000E+00
      21     1     1     2   501   511  4.155776474E+01 -1.961313609E+01  2.098903916E+02  2.148620473E+02  2.697398305E-06  0.00000E+00  9.000E+00
#rwgt            1           1   3.3476502193568708E-002           4      164669           0
</event>
<event>
      5   9999  3.19816E-02  4.60400E+01 -1.00000E+00  1.41151E-01
      21    -1     0     0   502   501  0.000000000E+00  0.000000000E+00  4.790896172E+02  4.790896172E+02  0.000000000E+00  0.00000E+00  9.000E+00
      21    -1     0     0   512   502  0.000000000E+00  0.000000000E+00 -2.591946339E+03  2.591946339E+03  0.000000000E+00  0.00000E+00  9.000E+00
      25     1     1     2     0     0  5.697923667E+02  2.464419351E+02 -2.255100235E+03  2.342327696E+03  1.250000000E+02  0.00000E+00  9.000E+00
      25     1     1     2     0     0 -5.396405636E+02 -2.116489418E+02  2.248123707E+02  6.341709663E+02  1.250000000E+02  0.00000E+00  9.000E+00
      21     1     1     2   512   501 -3.015180315E+01 -3.479299331E+01 -8.256885787E+01  9.453729374E+01  1.348699152E-06  0.00000E+00  9.000E+00
#rwgt            1           1   3.0373889051689293E-002           4      164785           0
</event>
<event>
      5   9999  3.19816E-02  2.98404E+01 -1.00000E+00  1.53201E-01
      21    -1     0     0   502   501  0.000000000E+00  0.000000000E+00  1.960455010E+03  1.960455010E+03  0.000000000E+00  0.00000E+00  9.000E+00
      21    -1     0     0   501   511  0.000000000E+00  0.000000000E+00 -1.106092801E+02  1.106092801E+02  0.000000000E+00  0.00000E+00  9.000E+00
      25     1     1     2     0     0  4.087253991E+02 -3.213949898E+01  7.741421413E+02  8.848787794E+02  1.250000000E+02  0.00000E+00  9.000E+00
      25     1     1     2     0     0 -3.793016407E+02  3.710858754E+01  1.083490704E+03  1.155345787E+03  1.250000000E+02  0.00000E+00  9.000E+00
      21     1     1     2   502   511 -2.942375839E+01 -4.969088554E+00 -7.787115343E+00  3.083972380E+01  8.344650269E-07  0.00000E+00  9.000E+00
#rwgt            1           1   3.4186289082248612E-002           4      164962           0
</event>
<event>
      5   9999  3.19816E-02  4.25735E+01 -1.00000E+00  1.43181E-01
      21    -1     0     0   502   501  0.000000000E+00  0.000000000E+00  4.903788188E+02  4.903788188E+02  0.000000000E+00  0.00000E+00  9.000E+00
      -2    -1     0     0     0   502  0.000000000E+00  0.000000000E+00 -4.979874207E+02  4.979874207E+02  0.000000000E+00  0.00000E+00  9.000E+00
      25     1     1     2     0     0 -9.143815264E+01 -9.465842618E+01  3.581215444E+02  4.014937035E+02  1.250000000E+02  0.00000E+00  9.000E+00
      25     1     1     2     0     0  1.055071945E+02  1.348400382E+02  6.625673630E+00  2.120907908E+02  1.250000000E+02  0.00000E+00  9.000E+00
      -2     1     1     2     0   501 -1.406904189E+01 -4.018161202E+01 -3.723558199E+02  3.747817452E+02  0.000000000E+00  0.00000E+00  9.000E+00
#rwgt            1           1   2.9028856228739734E-002           4      165072           0
</event>
<event>
      5   9999  3.19816E-02  6.70814E+01 -1.00000E+00  1.32164E-01
      21    -1     0     0   502   501  0.000000000E+00  0.000000000E+00  5.410651546E+02  5.410651546E+02  0.000000000E+00  0.00000E+00  9.000E+00
      21    -1     0     0   511   502  0.000000000E+00  0.000000000E+00 -7.489654857E+02  7.489654857E+02  0.000000000E+00  0.00000E+00  9.000E+00
      25     1     1     2     0     0  1.598072408E+02 -5.458715050E+02 -1.085947504E+02  5.923950321E+02  1.250000000E+02  0.00000E+00  9.000E+00
      25     1     1     2     0     0 -1.614926129E+02  4.788113109E+02  6.076449621E+01  5.240777227E+02  1.250000000E+02  0.00000E+00  9.000E+00
      21     1     1     2   511   501  1.685372047E+00  6.706019415E+01 -1.600700770E+02  1.735578856E+02  2.697398305E-06  0.00000E+00  9.000E+00
#rwgt            1           1   3.0494432141233388E-002           4      165181           0
</event>
<event>
      5   9999  3.19816E-02  2.20536E+01 -1.00000E+00  1.62941E-01
      21    -1     0     0   512   501  0.000000000E+00  0.000000000E+00  2.685217531E+02  2.685217531E+02  0.000000000E+00  0.00000E+00  9.000E+00
      21    -1     0     0   501   502  0.000000000E+00  0.000000000E+00 -8.999353070E+02  8.999353070E+02  0.000000000E+00  0.00000E+00  9.000E+00
      25     1     1     2     0     0 -2.601724001E+02 -2.606215926E+02 -3.673334932E+02  5.349506403E+02  1.250000000E+02  0.00000E+00  9.000E+00
      25     1     1     2     0     0  2.800560927E+02  2.701609474E+02 -3.541346310E+02  5.407908001E+02  1.250000000E+02  0.00000E+00  9.000E+00
      21     1     1     2   512   502 -1.988369254E+01 -9.539354811E+00  9.005457025E+01  9.271561973E+01  9.536743164E-07  0.00000E+00  9.000E+00
#rwgt            1           1   2.7938345544726274E-002           4      165284           0
</event>
<event>
      5   9999  3.19816E-02  2.04985E+01 -1.00000E+00  1.65492E-01
      21    -1     0     0   502   501  0.000000000E+00  0.000000000E+00  2.584396168E+02  2.584396168E+02  0.000000000E+00  0.00000E+00  9.000E+00
       2    -1     0     0   501     0  0.000000000E+00  0.000000000E+00 -1.213099266E+03  1.213099266E+03  0.000000000E+00  0.00000E+00  9.000E+00
      25     1     1     2     0     0  3.128391478E+02 -1.601033401E+02  1.512345860E+01  3.733030015E+02  1.250000000E+02  0.00000E+00  9.000E+00
      25     1     1     2     0     0 -3.024400763E+02  1.424385226E+02 -4.333239259E+02  5.613852129E+02  1.250000000E+02  0.00000E+00  9.000E+00
       2     1     1     2   502     0 -1.039907149E+01  1.766481748E+01 -5.364591819E+02  5.368506685E+02  7.629394531E-06  0.00000E+00  9.000E+00
#rwgt            1           1   2.6087994749536891E-002           4      165436           0
</event>
<event>
      5   9999  3.19816E-02  3.52274E+02 -1.00000E+00  1.03374E-01
      -2    -1     0     0     0   501  0.000000000E+00  0.000000000E+00  1.732868732E+03  1.732868732E+03  0.000000000E+00  0.00000E+00  9.000E+00
      21    -1     0     0   501   502  0.000000000E+00  0.000000000E+00 -3.086467053E+02  3.086467053E+02  0.000000000E+00  0.00000E+00  9.000E+00
      25     1     1     2     0     0 -3.798486956E+02  1.341323729E+01  3.235026223E+02  5.145326940E+02  1.250000000E+02  0.00000E+00  9.000E+00
      25     1     1     2     0     0  2.463077412E+02  3.125679614E+02  5.160341910E+01  4.203024467E+02  1.250000000E+02  0.00000E+00  9.000E+00
      -2     1     1     2     0   502  1.335409545E+02 -3.259811987E+02  1.049115986E+03  1.106680297E+03  1.525878906E-05  0.00000E+00  9.000E+00
#rwgt            1           1   3.1796734431254157E-002           4      165614           0
</event>
<event>
      5   9999  3.19816E-02  2.85138E+01 -1.00000E+00  1.54588E-01
      21    -1     0     0   502   501  0.000000000E+00  0.000000000E+00  1.201743533E+02  1.201743533E+02  0.000000000E+00  0.00000E+00  9.000E+00
       2    -1     0     0   501     0  0.000000000E+00  0.000000000E+00 -1.374356973E+03  1.374356973E+03  0.000000000E+00  0.00000E+00  9.000E+00
      25     1     1     2     0     0  2.572441090E+02  5.226268556E+01 -3.077374981E+02  4.233595253E+02  1.250000000E+02  0.00000E+00  9.000E+00
      25     1     1     2     0     0 -2.711918644E+02 -2.739314344E+01 -3.002473346E+02  4.243452292E+02  1.250000000E+02  0.00000E+00  9.000E+00
       2     1     1     2   502     0  1.394775542E+01 -2.486954212E+01 -6.461977868E+02  6.468265715E+02  1.078959322E-05  0.00000E+00  9.000E+00
#rwgt            1           1   3.0894628950124070E-002           4      165643           0
</event>
<event>
      5   9999  3.19816E-02  7.41174E+01 -1.00000E+00  1.29976E-01
      21    -1     0     0   511   501  0.000000000E+00  0.000000000E+00  3.464456967E+02  3.464456967E+02  0.000000000E+00  0.00000E+00  9.000E+00
      21    -1     0     0   501   502  0.000000000E+00  0.000000000E+00 -4.232398822E+02  4.232398822E+02  0.000000000E+00  0.00000E+00  9.000E+00
      25     1     1     2     0     0  6.513552644E+01 -3.521963913E+01 -5.664233566E+01  1.559372116E+02  1.250000000E+02  0.00000E+00  9.000E+00
      25     1     1     2     0     0 -1.152428436E+02  8.983318747E+01 -2.821631727E+02  3.414556642E+02  1.250000000E+02  0.00000E+00  9.000E+00
      21     1     1     2   511   502  5.010731718E+01 -5.461354833E+01  2.620113228E+02  2.722927031E+02  5.394796609E-06  0.00000E+00  9.000E+00
#rwgt            1           1   3.3781389292755946E-002           4      165803           0
</event>
<event>
      5   9999  3.19816E-02  4.31130E+01 -1.00000E+00  1.42850E-01
      21    -1     0     0   502   512  0.000000000E+00  0.000000000E+00  1.706611034E+02  1.706611034E+02  0.000000000E+00  0.00000E+00  9.000E+00
      21    -1     0     0   501   502  0.000000000E+00  0.000000000E+00 -1.037495904E+03  1.037495904E+03  0.000000000E+00  0.00000E+00  9.000E+00
      25     1     1     2     0     0  1.547625204E+01 -2.776896237E+02 -4.323081522E+02  5.290239881E+02  1.250000000E+02  0.00000E+00  9.000E+00
      25     1     1     2     0     0  1.909444324E+00  2.382375626E+02 -5.188328112E+02  5.844426988E+02  1.250000000E+02  0.00000E+00  9.000E+00
      21     1     1     2   501   512 -1.738569636E+01  3.945206104E+01  8.430616329E+01  9.469032013E+01  1.651812370E-06  0.00000E+00  9.000E+00
#rwgt            1           1   2.8244927908507057E-002           4      165859           0
</event>
<event>
      5   9999  3.19816E-02  8.42461E+01 -1.00000E+00  1.27272E-01
      21    -1     0     0   502   501  0.000000000E+00  0.000000000E+00  8.170059267E+02  8.170059267E+02  0.000000000E+00  0.00000E+00  9.000E+00
      21    -1     0     0   501   511  0.000000000E+00  0.000000000E+00 -2.300231177E+02  2.300231177E+02  0.000000000E+00  0.00000E+00  9.000E+00
      25     1     1     2     0     0  3.428678651E+02  6.409155367E+01  1.610724215E+02  4.040240403E+02  1.250000000E+02  0.00000E+00  9.000E+00
      25     1     1     2     0     0 -2.682469578E+02 -2.498760029E+01  4.637114153E+02  5.506669476E+02  1.250000000E+02  0.00000E+00  9.000E+00
      21     1     1     2   502   511 -7.462090728E+01 -3.910395338E+01 -3.780102780E+01  9.233805649E+01  8.259061849E-07  0.00000E+00  9.000E+00
#rwgt            1           1   2.7498835306648785E-002           4      165971           0
</event>
<event>
      5   9999  3.19816E-02  5.51258E+01 -1.00000E+00  1.36700E-01
      21    -1     0     0   502   512  0.000000000E+00  0.000000000E+00  5.166432394E+02  5.166432394E+02  0.000000000E+00  0.00000E+00  9.000E+00
      21    -1     0     0   501   502  0.000000000E+00  0.000000000E+00 -3.926176965E+02  3.926176965E+02  0.000000000E+00  0.00000E+00  9.000E+00
      25     1     1     2     0     0 -3.207691921E+02  8.344192113E+01  1.947294688E+02  4.042276523E+02  1.250000000E+02  0.00000E+00  9.000E+00
      25     1     1     2     0     0  3.661836726E+02 -1.146889785E+02 -1.300762873E+02  4.240151936E+02  1.250000000E+02  0.00000E+00  9.000E+00
      21     1     1     2   501   512 -4.541448048E+01  3.124705736E+01  5.937236129E+01  8.101809005E+01  1.348699152E-06  0.00000E+00  9.000E+00
#rwgt            1           1   2.4748004521713239E-002           4      166059           0
</event>
<event>
      5   9999  3.19816E-02  7.37420E+01 -1.00000E+00  1.30085E-01
      21    -1     0     0   502   511  0.000000000E+00  0.000000000E+00  1.279582185E+03  1.279582185E+03  0.000000000E+00  0.00000E+00  9.000E+00
      21    -1     0     0   501   502  0.000000000E+00  0.000000000E+00 -1.903584623E+02  1.903584623E+02  0.000000000E+00  0.00000E+00  9.000E+00
      25     1     1     2     0     0  6.394654940E+01 -2.324088452E+02  5.234651899E+02  5.896980902E+02  1.250000000E+02  0.00000E+00  9.000E+00
      25     1     1     2     0     0 -2.557943110E+01  2.953838251E+02  1.240936471E+01  3.220014034E+02  1.250000000E+02  0.00000E+00  9.000E+00
      21     1     1     2   501   511 -3.836711830E+01 -6.297497992E+01  5.533491678E+02  5.582411534E+02  1.078959322E-05  0.00000E+00  9.000E+00
#rwgt            1           1   2.6371883292265426E-002           4      166203           0
</event>
<event>
      5   9999  3.19816E-02  5.84607E+01 -1.00000E+00  1.35309E-01
      21    -1     0     0   502   501  0.000000000E+00  0.000000000E+00  1.021097696E+03  1.021097696E+03  0.000000000E+00  0.00000E+00  9.000E+00
       2    -1     0     0   501     0  0.000000000E+00  0.000000000E+00 -1.343755309E+03  1.343755309E+03  0.000000000E+00  0.00000E+00  9.000E+00
      25     1     1     2     0     0 -4.206588097E+02 -5.562895641E+02  6.280662741E+02  9.468390349E+02  1.250000000E+02  0.00000E+00  9.000E+00
      25     1     1     2     0     0  4.152335933E+02  6.144979896E+02 -3.769593084E+02  8.412788102E+02  1.250000000E+02  0.00000E+00  9.000E+00
       2     1     1     2   502     0  5.425216446E+00 -5.820842556E+01 -5.737645784E+02  5.767351604E+02  0.000000000E+00  0.00000E+00  9.000E+00
#rwgt            1           1   1.6787365698721243E-002           4      166259           0
</event>
<event>
      5   9999  3.19816E-02  1.19483E+02 -1.00000E+00  1.20448E-01
      21    -1     0     0   502   501  0.000000000E+00  0.000000000E+00  1.745305767E+03  1.745305767E+03  0.000000000E+00  0.00000E+00  9.000E+00
      -2    -1     0     0     0   502  0.000000000E+00  0.000000000E+00 -2.552051414E+02  2.552051414E+02  0.000000000E+00  0.00000E+00  9.000E+00
      25     1     1     2     0     0  3.857633812E+02  4.533800921E+02  9.119782130E+02  1.096219027E+03  1.250000000E+02  0.00000E+00  9.000E+00
      25     1     1     2     0     0 -3.341422901E+02 -3.456237386E+02  6.040239281E+02  7.820337234E+02  1.250000000E+02  0.00000E+00  9.000E+00
      -2     1     1     2     0   501 -5.162109105E+01 -1.077563535E+02 -2.590151524E+01  1.222581582E+02  4.768371582E-07  0.00000E+00  9.000E+00
#rwgt            1           1   2.8991769054013378E-002           4      166429           0
</event>
<event>
      5   9999  3.19816E-02  2.60926E+02 -1.00000E+00  1.07599E-01
      21    -1     0     0   502   501  0.000000000E+00  0.000000000E+00  9.878505847E+02  9.878505847E+02  0.000000000E+00  0.00000E+00  9.000E+00
      -1    -1     0     0     0   502  0.000000000E+00  0.000000000E+00 -1.199278492E+03  1.199278492E+03  0.000000000E+00  0.00000E+00  9.000E+00
      25     1     1     2     0     0  2.311613270E+02 -1.781259036E+02  7.824055615E+02  8.443623981E+02  1.250000000E+02  0.00000E+00  9.000E+00
      25     1     1     2     0     0 -6.872058381E+01  3.823197982E+02 -1.001799025E+03  1.081719572E+03  1.250000000E+02  0.00000E+00  9.000E+00
      -1     1     1     2     0   501 -1.624407431E+02 -2.041938946E+02  7.965556159E+00  2.610471063E+02  5.937173159E-06  0.00000E+00  9.000E+00
#rwgt            2          10   4.6341845487582394E-005           4      166694           0
</event>
<event>
      5   9999  3.19816E-02  7.86015E+01 -1.00000E+00  1.28721E-01
      21    -1     0     0   502   501  0.000000000E+00  0.000000000E+00  1.185702003E+03  1.185702003E+03  0.000000000E+00  0.00000E+00  9.000E+00
      21    -1     0     0   501   511  0.000000000E+00  0.000000000E+00 -1.773384977E+02  1.773384977E+02  0.000000000E+00  0.00000E+00  9.000E+00
      25     1     1     2     0     0  1.300914160E+02 -8.415703071E+01  5.874430018E+02  6.202583838E+02  1.250000000E+02  0.00000E+00  9.000E+00
      25     1     1     2     0     0 -1.932160085E+02  3.732237053E+01  5.467735091E+02  5.944002486E+02  1.250000000E+02  0.00000E+00  9.000E+00
      21     1     1     2   502   511  6.312459248E+01  4.683466018E+01 -1.258530060E+02  1.483818678E+02  3.303624740E-06  0.00000E+00  9.000E+00
#rwgt            1           1   3.6309720424171667E-002           4      166728           0
</event>
<event>
      5   9999  3.19816E-02  4.16595E+01 -1.00000E+00  1.43754E-01
      21    -1     0     0   502   501  0.000000000E+00  0.000000000E+00  3.163352166E+02  3.163352166E+02  0.000000000E+00  0.00000E+00  9.000E+00
      21    -1     0     0   512   502  0.000000000E+00  0.000000000E+00 -1.426680886E+02  1.426680886E+02  0.000000000E+00  0.00000E+00  9.000E+00
      25     1     1     2     0     0 -1.504949493E+02  1.224772296E+01  1.320851878E+02  2.363688501E+02  1.250000000E+02  0.00000E+00  9.000E+00
      25     1     1     2     0     0  1.109727362E+02  9.246090050E-01  5.930222644E+01  1.773627840E+02  1.250000000E+02  0.00000E+00  9.000E+00
      21     1     1     2   512   501  3.952221315E+01 -1.317233197E+01 -1.772028627E+01  4.527167113E+01  5.331201500E-07  0.00000E+00  9.000E+00
#rwgt            1           1   2.5593292147766050E-002           4      166780           0
</event>
<event>
      5   9999  3.19816E-02  5.91286E+01 -1.00000E+00  1.35044E-01
      21    -1     0     0   502   501  0.000000000E+00  0.000000000E+00  5.417843187E+01  5.417843187E+01  0.000000000E+00  0.00000E+00  9.000E+00
       2    -1     0     0   501     0  0.000000000E+00  0.000000000E+00 -2.223556964E+03  2.223556964E+03  0.000000000E+00  0.00000E+00  9.000E+00
      25     1     1     2     0     0  1.552782378E+02 -1.336655851E+02 -2.958424352E+02  3.809534962E+02  1.250000000E+02  0.00000E+00  9.000E+00
      25     1     1     2     0     0 -1.800501859E+02  7.997624191E+01 -1.362096084E+03  1.381935241E+03  1.250000000E+02  0.00000E+00  9.000E+00
       2     1     1     2   502     0  2.477194807E+01  5.368934317E+01 -5.114400131E+02  5.148466587E+02  7.629394531E-06  0.00000E+00  9.000E+00
#rwgt            1           1   2.8852358235300531E-002           4      166924           0
</event>
<event>
      5   9999  3.19816E-02  1.56497E+02 -1.00000E+00  1.15668E-01
      21    -1     0     0   502   511  0.000000000E+00  0.000000000E+00  1.129851611E+02  1.129851611E+02  0.000000000E+00  0.00000E+00  9.000E+00
      21    -1     0     0   501   502  0.000000000E+00  0.000000000E+00 -3.348741173E+03  3.348741173E+03  0.000000000E+00  0.00000E+00  9.000E+00
      25     1     1     2     0     0  1.987140537E+02  1.014454095E+02 -1.136553336E+02  2.798588592E+02  1.250000000E+02  0.00000E+00  9.000E+00
      25     1     1     2     0     0 -2.643644190E+02 -2.435069834E+02 -2.776855304E+03  2.802808337E+03  1.250000000E+02  0.00000E+00  9.000E+00
      21     1     1     2   501   511  6.565036533E+01  1.420615739E+02 -3.452453746E+02  3.790591378E+02  6.607249480E-06  0.00000E+00  9.000E+00
#rwgt            1           1   4.6460647859427454E-002           4      167039           0
</event>
<event>
      5   9999  3.19816E-02  8.68655E+01 -1.00000E+00  1.26642E-01
      21    -1     0     0   502   501  0.000000000E+00  0.000000000E+00  6.463469767E+02  6.463469767E+02  0.000000000E+00  0.00000E+00  9.000E+00
      21    -1     0     0   512   502  0.000000000E+00  0.000000000E+00 -1.876573399E+02  1.876573399E+02  0.000000000E+00  0.00000E+00  9.000E+00
      25     1     1     2     0     0  1.094479958E+02 -5.691528342E+01  1.466092922E+02  2.287739011E+02  1.250000000E+02  0.00000E+00  9.000E+00
      25     1     1     2     0     0 -6.590558483E+01 -1.824905133E+01  4.332856479E+02  4.561118576E+02  1.250000000E+02  0.00000E+00  9.000E+00
      21     1     1     2   512   501 -4.354241102E+01  7.516433475E+01 -1.212053032E+02  1.491185579E+02  1.907348633E-06  0.00000E+00  9.000E+00
#rwgt            1           1   2.7565540862206282E-002           4      167089           0
</event>
<event>
      5   9999  3.19816E-02  2.17194E+01 -1.00000E+00  1.63467E-01
      21    -1     0     0   502   501  0.000000000E+00  0.000000000E+00  2.814298433E+02  2.814298433E+02  0.000000000E+00  0.00000E+00  9.000E+00
      21    -1     0     0   511   502  0.000000000E+00  0.000000000E+00 -5.898378745E+02  5.898378745E+02  0.000000000E+00  0.00000E+00  9.000E+00
      25     1     1     2     0     0  1.174124526E+02  3.451384542E+02 -1.346508666E+02  4.082426882E+02  1.250000000E+02  0.00000E+00  9.000E+00
      25     1     1     2     0     0 -1.273993995E+02 -3.258513484E+02 -9.803105748E+01  3.842457501E+02  1.250000000E+02  0.00000E+00  9.000E+00
      21     1     1     2   511   501  9.986946910E+00 -1.928710583E+01 -7.572610717E+01  7.877927943E+01  0.000000000E+00  0.00000E+00  9.000E+00
#rwgt            1           1   2.7525649190628228E-002           4      167154           0
</event>
<event>
      5   9999  3.19816E-02  1.57080E+01 -1.00000E+00  1.75517E-01
      21    -1     0     0   502   512  0.000000000E+00  0.000000000E+00  6.665431264E+02  6.665431264E+02  0.000000000E+00  0.00000E+00  9.000E+00
      21    -1     0     0   501   502  0.000000000E+00  0.000000000E+00 -1.857863317E+03  1.857863317E+03  0.000000000E+00  0.00000E+00  9.000E+00
      25     1     1     2     0     0 -9.336350075E+01 -2.060309957E+02 -1.492386580E+02  2.984337305E+02  1.250000000E+02  0.00000E+00  9.000E+00
      25     1     1     2     0     0  1.036206552E+02  1.941342587E+02 -1.624121062E+03  1.643721258E+03  1.250000000E+02  0.00000E+00  9.000E+00
      21     1     1     2   501   512 -1.025715442E+01  1.189673707E+01  5.820395299E+02  5.822514542E+02  1.078959322E-05  0.00000E+00  9.000E+00
#rwgt            1           1   3.1330397786631520E-002           4      167379           0
</event>
<event>
      5   9999  3.19816E-02  4.23746E+01 -1.00000E+00  1.43304E-01
      21    -1     0     0   502   501  0.000000000E+00  0.000000000E+00  3.637495091E+01  3.637495091E+01  0.000000000E+00  0.00000E+00  9.000E+00
      21    -1     0     0   511   502  0.000000000E+00  0.000000000E+00 -1.714408664E+03  1.714408664E+03  0.000000000E+00  0.00000E+00  9.000E+00
      25     1     1     2     0     0  1.340468747E+01  1.970248968E+02 -8.151291939E+02  8.479735246E+02  1.250000000E+02  0.00000E+00  9.000E+00
      25     1     1     2     0     0 -1.295899265E+01 -1.546526462E+02 -5.129294037E+02  5.502789743E+02  1.250000000E+02  0.00000E+00  9.000E+00
      21     1     1     2   511   501 -4.456948223E-01 -4.237225061E+01 -3.499751157E+02  3.525311161E+02  3.814697266E-06  0.00000E+00  9.000E+00
#rwgt            1           1   3.2091246166061883E-002           4      167540           0
</event>
<event>
      5   9999  3.19816E-02  4.99403E+01 -1.00000E+00  1.39105E-01
      21    -1     0     0   502   512  0.000000000E+00  0.000000000E+00  4.225151346E+02  4.225151346E+02  0.000000000E+00  0.00000E+00  9.000E+00
      21    -1     0     0   501   502  0.000000000E+00  0.000000000E+00 -1.951128915E+03  1.951128915E+03  0.000000000E+00  0.00000E+00  9.000E+00
      25     1     1     2     0     0  7.018093043E+02  9.360158815E+01 -6.645960362E+02  9.790865376E+02  1.250000000E+02  0.00000E+00  9.000E+00
      25     1     1     2     0     0 -7.422338443E+02 -1.229255511E+02 -9.954133089E+02  1.253991398E+03  1.250000000E+02  0.00000E+00  9.000E+00
      21     1     1     2   501   512  4.042454005E+01  2.932396297E+01  1.313955642E+02  1.405661144E+02  0.000000000E+00  0.00000E+00  9.000E+00
#rwgt            1           1   2.8513210924022824E-002           4      167688           0
</event>
<event>
      5   9999  3.19816E-02  6.88796E+01 -1.00000E+00  1.31577E-01
      21    -1     0     0   502   501  0.000000000E+00  0.000000000E+00  1.264012415E+03  1.264012415E+03  0.000000000E+00  0.00000E+00  9.000E+00
      21    -1     0     0   501   511  0.000000000E+00  0.000000000E+00 -3.730642089E+02  3.730642089E+02  0.000000000E+00  0.00000E+00  9.000E+00
      25     1     1     2     0     0 -2.698014475E+02  4.877133439E+02  4.099473113E+02  7.030924014E+02  1.250000000E+02  0.00000E+00  9.000E+00
      25     1     1     2     0     0  2.146434846E+02 -5.289686956E+02  5.734152289E+02  8.187244538E+02  1.250000000E+02  0.00000E+00  9.000E+00
      21     1     1     2   502   511  5.515796292E+01  4.125535173E+01 -9.241433464E+01  1.152597682E+02  1.348699152E-06  0.00000E+00  9.000E+00
#rwgt            1           1   2.9381118311003838E-002           4      167805           0
</event>
<event>
      5   9999  3.19816E-02  6.75954E+01 -1.00000E+00  1.31994E-01
      21    -1     0     0   512   501  0.000000000E+00  0.000000000E+00  7.970640878E+02  7.970640878E+02  0.000000000E+00  0.00000E+00  9.000E+00
      21    -1     0     0   501   502  0.000000000E+00  0.000000000E+00 -5.459717549E+02  5.459717549E+02  0.000000000E+00  0.00000E+00  9.000E+00
      25     1     1     2     0     0  8.239442879E+01  4.837001183E+02  4.068296038E+02  6.495305789E+02  1.250000000E+02  0.00000E+00  9.000E+00
      25     1     1     2     0     0 -1.496304055E+02 -4.906617730E+02 -2.445739547E+02  5.818759774E+02  1.250000000E+02  0.00000E+00  9.000E+00
      21     1     1     2   512   502  6.723597672E+01  6.961654685E+00  8.883668378E+01  1.116292864E+02  1.348699152E-06  0.00000E+00  9.000E+00
#rwgt            1           1   3.0369668152687192E-002           4      167974           0
</event>
<event>
      5   9999  3.19816E-02  2.18610E+01 -1.00000E+00  1.63243E-01
      21    -1     0     0   502   511  0.000000000E+00  0.000000000E+00  2.091307721E+02  2.091307721E+02  0.000000000E+00  0.00000E+00  9.000E+00
      21    -1     0     0   501   502  0.000000000E+00  0.000000000E+00 -6.459468478E+02  6.459468478E+02  0.000000000E+00  0.00000E+00  9.000E+00
      25     1     1     2     0     0  7.732664796E+01  8.437931916E+01  1.251723521E+02  2.106950349E+02  1.250000000E+02  0.00000E+00  9.000E+00
      25     1     1     2     0     0 -9.385526823E+01 -7.007175559E+01 -5.868129080E+02  6.113045488E+02  1.250000000E+02  0.00000E+00  9.000E+00
      21     1     1     2   501   511  1.652862027E+01 -1.430756358E+01  2.482448025E+01  3.307803627E+01  4.768371582E-07  0.00000E+00  9.000E+00
#rwgt            1           1   3.1076122749022456E-002           4      168108           0
</event>
<event>
      5   9999  3.19816E-02  1.11865E+02 -1.00000E+00  1.21677E-01
      21    -1     0     0   502   501  0.000000000E+00  0.000000000E+00  2.005363632E+02  2.005363632E+02  0.000000000E+00  0.00000E+00  9.000E+00
      21    -1     0     0   512   502  0.000000000E+00  0.000000000E+00 -7.526703018E+02  7.526703018E+02  0.000000000E+00  0.00000E+00  9.000E+00
      25     1     1     2     0     0 -1.028224212E+02  2.052783869E+02 -2.893874321E+02  3.899766048E+02  1.250000000E+02  0.00000E+00  9.000E+00
      25     1     1     2     0     0  2.113744594E+02 -2.323031662E+02 -7.746807874E+01  3.467999803E+02  1.250000000E+02  0.00000E+00  9.000E+00
      21     1     1     2   512   501 -1.085520382E+02  2.702477926E+01 -1.852784277E+02  2.164300799E+02  2.697398305E-06  0.00000E+00  9.000E+00
#rwgt            1           1   2.7330250822129191E-002           4      168237           0
</event>
<event>
      5   9999  3.19816E-02  4.09253E+01 -1.00000E+00  1.44227E-01
      21    -1     0     0   502   511  0.000000000E+00  0.000000000E+00  4.112578761E+02  4.112578761E+02  0.000000000E+00  0.00000E+00  9.000E+00
      21    -1     0     0   501   502  0.000000000E+00  0.000000000E+00 -2.394610430E+02  2.394610430E+02  0.000000000E+00  0.00000E+00  9.000E+00
      25     1     1     2     0     0 -5.726983386E+01 -2.576369970E+02  3.919999365E+01  2.946494453E+02  1.250000000E+02  0.00000E+00  9.000E+00
      25     1     1     2     0     0  6.117095246E+01  2.168980123E+02  4.806040199E+01  2.621477358E+02  1.250000000E+02  0.00000E+00  9.000E+00
      21     1     1     2   501   511 -3.901118604E+00  4.073898473E+01  8.453643751E+01  9.392173801E+01  1.651812370E-06  0.00000E+00  9.000E+00
#rwgt            1           1   2.7662022710798869E-002           4      168320           0
</event>
<event>
      5   9999  3.19816E-02  1.58619E+01 -1.00000E+00  1.75128E-01
      21    -1     0     0   502   512  0.000000000E+00  0.000000000E+00  5.217497750E+02  5.217497750E+02  0.000000000E+00  0.00000E+00  9.000E+00
      21    -1     0     0   501   502  0.000000000E+00  0.000000000E+00 -3.520802634E+02  3.520802634E+02  0.000000000E+00  0.00000E+00  9.000E+00
      25     1     1     2     0     0  1.206114673E+02 -6.739711456E+01  1.318012124E+02  2.282236988E+02  1.250000000E+02  0.00000E+00  9.000E+00
      25     1     1     2     0     0 -1.322661318E+02  7.815669486E+01 -2.713705399E+02  3.359609628E+02  1.250000000E+02  0.00000E+00  9.000E+00
      21     1     1     2   501   512  1.165466447E+01 -1.075958030E+01  3.092388391E+02  3.096453769E+02  3.814697266E-06  0.00000E+00  9.000E+00
#rwgt            1           1   2.6831551462657428E-002           4      168408           0
</event>
<event>
      5   9999  3.19816E-02  4.62011E+01 -1.00000E+00  1.41062E-01
      21    -1     0     0   502   501  0.000000000E+00  0.000000000E+00  7.942706043E+01  7.942706043E+01  0.000000000E+00  0.00000E+00  9.000E+00
       2    -1     0     0   501     0  0.000000000E+00  0.000000000E+00 -1.064033978E+03  1.064033978E+03  0.000000000E+00  0.00000E+00  9.000E+00
      25     1     1     2     0     0  6.374191808E+00  1.706083919E+02 -2.095134748E+02  2.977729837E+02  1.250000000E+02  0.00000E+00  9.000E+00
      25     1     1     2     0     0 -1.384111314E+01 -2.162021240E+02 -4.295098628E+02  4.970298352E+02  1.250000000E+02  0.00000E+00  9.000E+00
       2     1     1     2   502     0  7.466921329E+00  4.559373209E+01 -3.455835796E+02  3.486582191E+02  0.000000000E+00  0.00000E+00  9.000E+00
#rwgt            1           1   2.6455691559606420E-002           4      168579           0
</event>
<event>
      5   9999  3.19816E-02  2.59008E+01 -1.00000E+00  1.57608E-01
      21    -1     0     0   502   501  0.000000000E+00  0.000000000E+00  5.499506500E+01  5.499506500E+01  0.000000000E+00  0.00000E+00  9.000E+00
       2    -1     0     0   501     0  0.000000000E+00  0.000000000E+00 -2.094946138E+03  2.094946138E+03  0.000000000E+00  0.00000E+00  9.000E+00
      25     1     1     2     0     0  9.959813605E+01  1.817733745E+01 -1.121794345E+03  1.133268617E+03  1.250000000E+02  0.00000E+00  9.000E+00
      25     1     1     2     0     0 -1.110774101E+02  5.040729567E+00 -9.358549571E+01  1.916946660E+02  1.250000000E+02  0.00000E+00  9.000E+00
       2     1     1     2   502     0  1.147927403E+01 -2.321806702E+01 -8.245712322E+02  8.249779205E+02  1.078959322E-05  0.00000E+00  9.000E+00
#rwgt            1           1   2.5483380411691587E-002           4      168678           0
</event>
<event>
      5   9999  3.19816E-02  1.53881E+01 -1.00000E+00  1.76345E-01
      21    -1     0     0   511   501  0.000000000E+00  0.000000000E+00  9.664907311E+02  9.664907311E+02  0.000000000E+00  0.00000E+00  9.000E+00
      21    -1     0     0   501   502  0.000000000E+00  0.000000000E+00 -3.137702459E+02  3.137702459E+02  0.000000000E+00  0.00000E+00  9.000E+00
      25     1     1     2     0     0 -4.320411676E+02 -2.924540659E+02  3.295647474E+02  6.296243911E+02  1.250000000E+02  0.00000E+00  9.000E+00
      25     1     1     2     0     0  4.384148637E+02  3.064601603E+02  3.139213749E+02  6.326903288E+02  1.250000000E+02  0.00000E+00  9.000E+00
      21     1     1     2   511   502 -6.373696155E+00 -1.400609439E+01  9.234363031E+00  1.794625708E+01  3.153981341E-07  0.00000E+00  9.000E+00
#rwgt            1           1   3.2603995425399941E-002           4      168792           0
</event>
<event>
      5   9999  3.19816E-02  3.23830E+02 -1.00000E+00  1.04525E-01
      21    -1     0     0   502   501  0.000000000E+00  0.000000000E+00  4.703040191E+02  4.703040191E+02  0.000000000E+00  0.00000E+00  9.000E+00
       2    -1     0     0   501     0  0.000000000E+00  0.000000000E+00 -2.437304149E+03  2.437304149E+03  0.000000000E+00  0.00000E+00  9.000E+00
      25     1     1     2     0     0 -3.891178840E+02 -1.808273386E+02  1.694066215E+02  4.779485929E+02  1.250000000E+02  0.00000E+00  9.000E+00
      25     1     1     2     0     0  6.512994840E+02  3.708971919E+02 -1.050574440E+03  1.296567545E+03  1.250000000E+02  0.00000E+00  9.000E+00
       2     1     1     2   502     0 -2.621816000E+02 -1.900698532E+02 -1.085832312E+03  1.133092031E+03  1.525878906E-05  0.00000E+00  9.000E+00
#rwgt            1           1   3.0009516860022338E-002           4      169037           0
</event>
<event>
      5   9999  3.19816E-02  4.01979E+01 -1.00000E+00  1.44707E-01
      21    -1     0     0   511   501  0.000000000E+00  0.000000000E+00  1.770113548E+01  1.770113548E+01  0.000000000E+00  0.00000E+00  9.000E+00
      21    -1     0     0   501   502  0.000000000E+00  0.000000000E+00 -2.431423152E+03  2.431423152E+03  0.000000000E+00  0.00000E+00  9.000E+00
      25     1     1     2     0     0 -7.826375408E+01 -5.312849859E+01 -1.531695398E+03  1.539695958E+03  1.250000000E+02  0.00000E+00  9.000E+00
      25     1     1     2     0     0  6.614441770E+01  1.480102304E+01 -8.373168617E+02  8.493048222E+02  1.250000000E+02  0.00000E+00  9.000E+00
      21     1     1     2   511   502  1.211933638E+01  3.832747555E+01 -4.470975692E+01  6.012350672E+01  1.719260824E-06  0.00000E+00  9.000E+00
#rwgt            1           1   9.0707736864350838E-002           4      169120           0
</event>
<event>
      5   9999  3.19816E-02  2.14542E+01 -1.00000E+00  1.63893E-01
      21    -1     0     0   502   501  0.000000000E+00  0.000000000E+00  3.727503433E+02  3.727503433E+02  0.000000000E+00  0.00000E+00  9.000E+00
      21    -1     0     0   512   502  0.000000000E+00  0.000000000E+00 -6.399210890E+02  6.399210890E+02  0.000000000E+00  0.00000E+00  9.000E+00
      25     1     1     2     0     0 -1.764572248E+01  3.730642818E+01  3.454181294E+02  3.696509506E+02  1.250000000E+02  0.00000E+00  9.000E+00
      25     1     1     2     0     0  3.422223893E+01 -2.368659724E+01 -2.768761383E+02  3.066229158E+02  1.250000000E+02  0.00000E+00  9.000E+00
      21     1     1     2   512   501 -1.657651646E+01 -1.361983094E+01 -3.357127368E+02  3.363975659E+02  0.000000000E+00  0.00000E+00  9.000E+00
#rwgt            1           1   3.0805917348040869E-002           4      169190           0
</event>
<event>
      5   9999  3.19816E-02  6.70740E+01 -1.00000E+00  1.32167E-01
      21    -1     0     0   511   501  0.000000000E+00  0.000000000E+00  3.090655242E+03  3.090655242E+03  0.000000000E+00  0.00000E+00  9.000E+00
      21    -1     0     0   501   502  0.000000000E+00  0.000000000E+00 -4.932293149E+02  4.932293149E+02  0.000000000E+00  0.00000E+00  9.000E+00
      25     1     1     2     0     0  2.344043473E+02  3.020965121E+02 -3.840527924E+02  5.561737570E+02  1.250000000E+02  0.00000E+00  9.000E+00
      25     1     1     2     0     0 -2.972097980E+02 -2.785509054E+02  2.831989923E+03  2.863863857E+03  1.250000000E+02  0.00000E+00  9.000E+00
      21     1     1     2   511   502  6.280545074E+01 -2.354560670E+01  1.494887965E+02  1.638469424E+02  1.907348633E-06  0.00000E+00  9.000E+00
#rwgt            1           1   6.8610936717449639E-002           4      169329           0
</event>
<event>
      5   9999  3.19816E-02  2.63727E+01 -1.00000E+00  1.57031E-01
      21    -1     0     0   502   501  0.000000000E+00  0.000000000E+00  8.325177986E+02  8.325177986E+02  0.000000000E+00  0.00000E+00  9.000E+00
      21    -1     0     0   512   502  0.000000000E+00  0.000000000E+00 -6.547320082E+01  6.547320082E+01  0.000000000E+00  0.00000E+00  9.000E+00
      25     1     1     2     0     0 -1.067365518E+02 -8.055276570E+00  5.513455086E+02  5.753820025E+02  1.250000000E+02  0.00000E+00  9.000E+00
      25     1     1     2     0     0  1.331042281E+02  8.569808920E+00  2.290484912E+02  2.930501467E+02  1.250000000E+02  0.00000E+00  9.000E+00
      21     1     1     2   512   501 -2.636767621E+01 -5.145323506E-01 -1.334940199E+01  2.955885021E+01  1.052827938E-06  0.00000E+00  9.000E+00
#rwgt            1           1   2.5226787855428826E-002           4      169452           0
</event>
<event>
      5   9999  3.19816E-02  2.71637E+01 -1.00000E+00  1.56097E-01
      21    -1     0     0   502   501  0.000000000E+00  0.000000000E+00  1.810007178E+02  1.810007178E+02  0.000000000E+00  0.00000E+00  9.000E+00
      21    -1     0     0   501   511  0.000000000E+00  0.000000000E+00 -6.840995985E+02  6.840995985E+02  0.000000000E+00  0.00000E+00  9.000E+00
      25     1     1     2     0     0  8.719503619E+01 -2.416721315E+02 -9.688536928E+01  3.016954893E+02  1.250000000E+02  0.00000E+00  9.000E+00
      25     1     1     2     0     0 -1.012792808E+02  2.184450201E+02 -1.584912183E+02  3.141976859E+02  1.250000000E+02  0.00000E+00  9.000E+00
      21     1     1     2   502   511  1.408424465E+01  2.322711149E+01 -2.477222932E+02  2.492071411E+02  4.672030912E-06  0.00000E+00  9.000E+00
#rwgt            1           1   2.6901369552417877E-002           4      169587           0
</event>
<event>
      5   9999  3.19816E-02  1.13062E+01 -1.00000E+00  1.89789E-01
      21    -1     0     0   502   501  0.000000000E+00  0.000000000E+00  6.496998854E+01  6.496998854E+01  0.000000000E+00  0.00000E+00  9.000E+00
      21    -1     0     0   501   512  0.000000000E+00  0.000000000E+00 -1.878604597E+03  1.878604597E+03  0.000000000E+00  0.00000E+00  9.000E+00
      25     1     1     2     0     0  2.478057914E+02  5.393491562E+01 -1.382435025E+03  1.411052190E+03  1.250000000E+02  0.00000E+00  9.000E+00
      25     1     1     2     0     0 -2.387646477E+02 -4.714608019E+01 -3.211472842E+02  4.218908485E+02  1.250000000E+02  0.00000E+00  9.000E+00
      21     1     1     2   502   512 -9.041143694E+00 -6.788835432E+00 -1.100522995E+02  1.106315470E+02  0.000000000E+00  0.00000E+00  9.000E+00
#rwgt            1           1   2.9461274681774490E-002           4      169702           0
</event>
<event>
      5   9999  3.19816E-02  4.84263E+01 -1.00000E+00  1.39873E-01
      21    -1     0     0   502   511  0.000000000E+00  0.000000000E+00  2.539774185E+02  2.539774185E+02  0.000000000E+00  0.00000E+00  9.000E+00
      21    -1     0     0   501   502  0.000000000E+00  0.000000000E+00 -7.187788771E+02  7.187788771E+02  0.000000000E+00  0.00000E+00  9.000E+00
      25     1     1     2     0     0 -1.720183665E+02 -7.115433214E+01 -5.229101918E+02  5.689581058E+02  1.250000000E+02  0.00000E+00  9.000E+00
      25     1     1     2     0     0  1.236614556E+02  6.856224627E+01 -1.170436045E+02  2.220746329E+02  1.250000000E+02  0.00000E+00  9.000E+00
      21     1     1     2   501   511  4.835691086E+01  2.592085877E+00  1.751523377E+02  1.817235569E+02  3.303624740E-06  0.00000E+00  9.000E+00
#rwgt            1           1   2.6208551228447480E-002           4      169971           0
</event>
<event>
      5   9999  3.19816E-02  3.87701E+01 -1.00000E+00  1.45686E-01
      21    -1     0     0   512   501  0.000000000E+00  0.000000000E+00  3.470922516E+02  3.470922516E+02  0.000000000E+00  0.00000E+00  9.000E+00
      21    -1     0     0   501   502  0.000000000E+00  0.000000000E+00 -1.557445428E+02  1.557445428E+02  0.000000000E+00  0.00000E+00  9.000E+00
      25     1     1     2     0     0 -5.257205888E+01  1.158094304E+02 -1.804195438E+01  1.792377127E+02  1.250000000E+02  0.00000E+00  9.000E+00
      25     1     1     2     0     0  6.001944492E+01 -1.538575351E+02  1.661920216E+02  2.655546326E+02  1.250000000E+02  0.00000E+00  9.000E+00
      21     1     1     2   512   502 -7.447386040E+00  3.804810470E+01  4.319764154E+01  5.804444905E+01  4.768371582E-07  0.00000E+00  9.000E+00
#rwgt            1           1   3.5392875926787977E-002           4      170027           0
</event>
<event>
      5   9999  3.19816E-02  1.35660E+02 -1.00000E+00  1.18150E-01
       1    -1     0     0   502     0  0.000000000E+00  0.000000000E+00  3.134093666E+02  3.134093666E+02  0.000000000E+00  0.00000E+00  9.000E+00
      21    -1     0     0   501   502  0.000000000E+00  0.000000000E+00 -1.124815150E+03  1.124815150E+03  0.000000000E+00  0.00000E+00  9.000E+00
      25     1     1     2     0     0 -4.102345153E+02 -1.623639337E+01 -4.356814230E+02  6.115548057E+02  1.250000000E+02  0.00000E+00  9.000E+00
      25     1     1     2     0     0  2.868722427E+02 -4.020400876E+01 -5.327489431E+02  6.191594967E+02  1.250000000E+02  0.00000E+00  9.000E+00
       1     1     1     2   501     0  1.233622726E+02  5.644040213E+01  1.570245830E+02  2.075102141E+02  4.672030912E-06  0.00000E+00  9.000E+00
#rwgt            1           1   2.8905505872575364E-002           4      170133           0
</event>
<event>
      5   9999  3.19816E-02  5.75475E+01 -1.00000E+00  1.35679E-01
      21    -1     0     0   502   511  0.000000000E+00  0.000000000E+00  5.016172354E+01  5.016172354E+01  0.000000000E+00  0.00000E+00  9.000E+00
      21    -1     0     0   501   502  0.000000000E+00  0.000000000E+00 -1.957122167E+03  1.957122167E+03  0.000000000E+00  0.00000E+00  9.000E+00
      25     1     1     2     0     0 -7.500869264E+01 -8.051065234E+01 -1.548592115E+02  2.274085409E+02  1.250000000E+02  0.00000E+00  9.000E+00
      25     1     1     2     0     0  1.222598029E+02  4.766177063E+01 -1.668900646E+03  1.678711849E+03  1.250000000E+02  0.00000E+00  9.000E+00
      21     1     1     2   501   511 -4.725111027E+01  3.284888171E+01 -8.320058561E+01  1.011635008E+02  1.907348633E-06  0.00000E+00  9.000E+00
#rwgt            1           1   2.9217153230928439E-002           4      170200           0
</event>
<event>
      5   9999  3.19816E-02  4.97430E+01 -1.00000E+00  1.39203E-01
      21    -1     0     0   502   501  0.000000000E+00  0.000000000E+00  3.921643434E+02  3.921643434E+02  0.000000000E+00  0.00000E+00  9.000E+00
      21    -1     0     0   512   502  0.000000000E+00  0.000000000E+00 -9.603673647E+02  9.603673647E+02  0.000000000E+00  0.00000E+00  9.000E+00
      25     1     1     2     0     0 -3.770967570E+02  1.049212551E+02  1.988849497E+02  4.564982553E+02  1.250000000E+02  0.00000E+00  9.000E+00
      25     1     1     2     0     0  3.558140949E+02 -1.498814266E+02 -7.250883578E+02  8.309309471E+02  1.250000000E+02  0.00000E+00  9.000E+00
      21     1     1     2   512   501  2.128266210E+01  4.496017154E+01 -4.199961324E+01  6.510250566E+01  1.168007728E-06  0.00000E+00  9.000E+00
#rwgt            1           1   2.9279769949462756E-002           4      170319           0
</event>
<event>
      5   9999  3.19816E-02  1.66488E+02 -1.00000E+00  1.14626E-01
      21    -1     0     0   511   501  0.000000000E+00  0.000000000E+00  1.076514145E+03  1.076514145E+03  0.000000000E+00  0.00000E+00  9.000E+00
      21    -1     0     0   501   502  0.000000000E+00  0.000000000E+00 -3.536340698E+02  3.536340698E+02  0.000000000E+00  0.00000E+00  9.000E+00
      25     1     1     2     0     0  3.690671630E+02 -3.322303057E+02  4.736699823E+02  6.975498541E+02  1.250000000E+02  0.00000E+00  9.000E+00
      25     1     1     2     0     0 -2.711255282E+02  1.975990215E+02 -7.713709045E+01  3.662370217E+02  1.250000000E+02  0.00000E+00  9.000E+00
      21     1     1     2   511   502 -9.794163481E+01  1.346312842E+02  3.263471832E+02  3.663613387E+02  0.000000000E+00  0.00000E+00  9.000E+00
#rwgt            1           1   3.3006743522766141E-002           4      170464           0
</event>
<event>
      5   9999  3.19816E-02  3.06488E+02 -1.00000E+00  1.05291E-01
      21    -1     0     0   502   501  0.000000000E+00  0.000000000E+00  5.815624405E+02  5.815624405E+02  0.000000000E+00  0.00000E+00  9.000E+00
       2    -1     0     0   501     0  0.000000000E+00  0.000000000E+00 -9.189578078E+02  9.189578078E+02  0.000000000E+00  0.00000E+00  9.000E+00
      25     1     1     2     0     0  2.414992864E+01 -1.433738324E+02 -2.520792610E+02  3.167147434E+02  1.250000000E+02  0.00000E+00  9.000E+00
      25     1     1     2     0     0 -1.450453012E+02 -1.382630083E+02  4.832599152E+02  5.378846944E+02  1.250000000E+02  0.00000E+00  9.000E+00
       2     1     1     2   502     0  1.208953725E+02  2.816368407E+02 -5.685760215E+02  6.459208105E+02  7.629394531E-06  0.00000E+00  9.000E+00
#rwgt            2          13   1.0809634430554900E-003           4      170502           0
</event>
<event>
      5   9999  3.19816E-02  3.76539E+01 -1.00000E+00  1.46487E-01
      21    -1     0     0   502   501  0.000000000E+00  0.000000000E+00  2.558146622E+02  2.558146622E+02  0.000000000E+00  0.00000E+00  9.000E+00
      21    -1     0     0   511   502  0.000000000E+00  0.000000000E+00 -5.173642535E+02  5.173642535E+02  0.000000000E+00  0.00000E+00  9.000E+00
      25     1     1     2     0     0 -5.633646066E+01  2.774997711E+02 -1.376297763E+01  3.098295327E+02  1.250000000E+02  0.00000E+00  9.000E+00
      25     1     1     2     0     0  8.312693660E+01 -3.039588798E+02 -1.752602258E+02  3.816310194E+02  1.250000000E+02  0.00000E+00  9.000E+00
      21     1     1     2   511   501 -2.679047594E+01  2.645910867E+01 -7.252638782E+01  8.171836368E+01  2.132480600E-06  0.00000E+00  9.000E+00
#rwgt            1           1   2.7914323104974683E-002           4      170536           0
</event>
<event>
      5   9999  3.19816E-02  1.42064E+01 -1.00000E+00  1.79637E-01
      21    -1     0     0   502   501  0.000000000E+00  0.000000000E+00  1.775747225E+03  1.775747225E+03  0.000000000E+00  0.00000E+00  9.000E+00
      21    -1     0     0   501   512  0.000000000E+00  0.000000000E+00 -1.328340465E+02  1.328340465E+02  0.000000000E+00  0.00000E+00  9.000E+00
      25     1     1     2     0     0 -1.525551219E+02 -2.233871325E+02  8.531975042E+01  3.099666691E+02  1.250000000E+02  0.00000E+00  9.000E+00
      25     1     1     2     0     0  1.385501893E+02  2.210032164E+02  1.557781087E+03  1.584406985E+03  1.250000000E+02  0.00000E+00  9.000E+00
      21     1     1     2   502   512  1.400493261E+01  2.383916026E+00 -1.876590050E-01  1.420761799E+01  2.731935995E-07  0.00000E+00  9.000E+00
#rwgt            1           1   3.7888064666139053E-002           4      170672           0
</event>
<event>
      5   9999  3.19816E-02  2.91494E+01 -1.00000E+00  1.53913E-01
      21    -1     0     0   502   501  0.000000000E+00  0.000000000E+00  2.405173910E+02  2.405173910E+02  0.000000000E+00  0.00000E+00  9.000E+00
       2    -1     0     0   501     0  0.000000000E+00  0.000000000E+00 -2.328393723E+03  2.328393723E+03  0.000000000E+00  0.00000E+00  9.000E+00
      25     1     1     2     0     0  1.270307618E+02 -2.058878810E+02 -9.075288610E+02  9.475021201E+02  1.250000000E+02  0.00000E+00  9.000E+00
      25     1     1     2     0     0 -1.108277650E+02  2.301191179E+02  1.286328378E+02  3.121041635E+02  1.250000000E+02  0.00000E+00  9.000E+00
       2     1     1     2   502     0 -1.620299678E+01 -2.423123689E+01 -1.308980309E+03  1.309304830E+03  2.157918644E-05  0.00000E+00  9.000E+00
#rwgt            1           1   2.5561352438716513E-002           4      170887           0
</event>
<event>
      5   9999  3.19816E-02  1.09093E+02 -1.00000E+00  1.22151E-01
      21    -1     0     0   502   501  0.000000000E+00  0.000000000E+00  1.897094137E+03  1.897094137E+03  0.000000000E+00  0.00000E+00  9.000E+00
      -1    -1     0     0     0   502  0.000000000E+00  0.000000000E+00 -6.655273663E+02  6.655273663E+02  0.000000000E+00  0.00000E+00  9.000E+00
      25     1     1     2     0     0 -3.980460719E+02 -7.593561516E+01  1.562107212E+03  1.618644752E+03  1.250000000E+02  0.00000E+00  9.000E+00
      25     1     1     2     0     0  4.988954843E+02  3.433299588E+01  7.781342188E+01  5.213016281E+02  1.250000000E+02  0.00000E+00  9.000E+00
      -1     1     1     2     0   501 -1.008494125E+02  4.160261928E+01 -4.083538630E+02  4.226751227E+02  9.344061824E-06  0.00000E+00  9.000E+00
#rwgt            2          10   4.6509987730040437E-004           4      171085           0
</event>
<event>
      5   9999  3.19816E-02  1.08958E+01 -1.00000E+00  1.91546E-01
      21    -1     0     0   502   501  0.000000000E+00  0.000000000E+00  1.317367952E+02  1.317367952E+02  0.000000000E+00  0.00000E+00  9.000E+00
       1    -1     0     0   501     0  0.000000000E+00  0.000000000E+00 -1.718384510E+03  1.718384510E+03  0.000000000E+00  0.00000E+00  9.000E+00
      25     1     1     2     0     0  2.614313162E+02  2.611237471E+02 -3.033782879E+02  4.941612389E+02  1.250000000E+02  0.00000E+00  9.000E+00
      25     1     1     2     0     0 -2.574795281E+02 -2.509698136E+02 -9.630293685E+02  1.035534702E+03  1.250000000E+02  0.00000E+00  9.000E+00
       1     1     1     2   502     0 -3.951788126E+00 -1.015393352E+01 -3.202400581E+02  3.204253639E+02  6.607249480E-06  0.00000E+00  9.000E+00
#rwgt            1           1   2.9354539565886677E-002           4      171209           0
</event>
<event>
      5   9999  3.19816E-02  4.65728E+01 -1.00000E+00  1.40858E-01
      21    -1     0     0   511   501  0.000000000E+00  0.000000000E+00  3.802399227E+02  3.802399227E+02  0.000000000E+00  0.00000E+00  9.000E+00
      21    -1     0     0   501   502  0.000000000E+00  0.000000000E+00 -5.998550456E+02  5.998550456E+02  0.000000000E+00  0.00000E+00  9.000E+00
      25     1     1     2     0     0 -3.084917288E+02 -4.985851704E+01 -4.376222632E+02  5.520790375E+02  1.250000000E+02  0.00000E+00  9.000E+00
      25     1     1     2     0     0  2.658246169E+02  6.852777037E+01  1.300229805E+02  3.284657634E+02  1.250000000E+02  0.00000E+00  9.000E+00
      21     1     1     2   511   502  4.266711185E+01 -1.866925333E+01  8.798415983E+01  9.955016743E+01  9.536743164E-07  0.00000E+00  9.000E+00
#rwgt            1           1   2.8415260121762261E-002           4      171586           0
</event>
<event>
      5   9999  3.19816E-02  4.54607E+01 -1.00000E+00  1.41476E-01
      21    -1     0     0   512   501  0.000000000E+00  0.000000000E+00  8.170752718E+02  8.170752718E+02  0.000000000E+00  0.00000E+00  9.000E+00
      21    -1     0     0   501   502  0.000000000E+00  0.000000000E+00 -6.126923251E+01  6.126923251E+01  0.000000000E+00  0.00000E+00  9.000E+00
      25     1     1     2     0     0  2.574921780E+00  2.175353532E+01  4.562174354E+02  4.735390110E+02  1.250000000E+02  0.00000E+00  9.000E+00
      25     1     1     2     0     0  3.787232789E+01 -4.250676045E+01  4.257332446E+01  1.438006462E+02  1.250000000E+02  0.00000E+00  9.000E+00
      21     1     1     2   512   502 -4.044724967E+01  2.075322513E+01  2.570152794E+02  2.610048471E+02  3.814697266E-06  0.00000E+00  9.000E+00
#rwgt            1           1   2.9171388698255016E-002           4      171692           0
</event>
<event>
      5   9999  3.19816E-02  3.95113E+01 -1.00000E+00  1.45172E-01
      21    -1     0     0   502   511  0.000000000E+00  0.000000000E+00  1.288961849E+02  1.288961849E+02  0.000000000E+00  0.00000E+00  9.000E+00
      21    -1     0     0   501   502  0.000000000E+00  0.000000000E+00 -1.572507560E+03  1.572507560E+03  0.000000000E+00  0.00000E+00  9.000E+00
      25     1     1     2     0     0 -1.970996944E+02 -6.930182808E+01 -1.393092725E+03  1.414207684E+03  1.250000000E+02  0.00000E+00  9.000E+00
      25     1     1     2     0     0  2.047407049E+02  3.053639313E+01 -5.317320821E+01  2.475956737E+02  1.250000000E+02  0.00000E+00  9.000E+00
      21     1     1     2   501   511 -7.641010533E+00  3.876543495E+01  2.654558100E+00  3.960038722E+01  7.805705579E-07  0.00000E+00  9.000E+00
#rwgt            1           1   2.7473476870939664E-002           4      171746           0
</event>
<event>
      5   9999  3.19816E-02  1.63545E+02 -1.00000E+00  1.14925E-01
      21    -1     0     0   502   501  0.000000000E+00  0.000000000E+00  7.044192802E+02  7.044192802E+02  0.000000000E+00  0.00000E+00  9.000E+00
       2    -1     0     0   501     0  0.000000000E+00  0.000000000E+00 -2.703533641E+03  2.703533641E+03  0.000000000E+00  0.00000E+00  9.000E+00
      25     1     1     2     0     0 -8.056305036E+02  1.583254663E+02  1.725615191E+02  8.482393174E+02  1.250000000E+02  0.00000E+00  9.000E+00
      25     1     1     2     0     0  6.447575686E+02 -1.877677953E+02 -4.230807865E+02  8.034870373E+02  1.250000000E+02  0.00000E+00  9.000E+00
       2     1     1     2   502     0  1.608729350E+02  2.944232899E+01 -1.748595094E+03  1.756226567E+03  2.157918644E-05  0.00000E+00  9.000E+00
#rwgt            2          13   2.9462867762045774E-003           4      171909           0
</event>
<event>
      5   9999  3.19816E-02  1.05705E+02 -1.00000E+00  1.22754E-01
      21    -1     0     0   502   501  0.000000000E+00  0.000000000E+00  1.577152996E+03  1.577152996E+03  0.000000000E+00  0.00000E+00  9.000E+00
      21    -1     0     0   511   502  0.000000000E+00  0.000000000E+00 -7.189759266E+02  7.189759266E+02  0.000000000E+00  0.00000E+00  9.000E+00
      25     1     1     2     0     0  5.950738266E+02 -6.407388520E+02  2.518451520E+00  8.833405222E+02  1.250000000E+02  0.00000E+00  9.000E+00
      25     1     1     2     0     0 -5.848022546E+02  5.355339441E+02  9.686549991E+02  1.258057149E+03  1.250000000E+02  0.00000E+00  9.000E+00
      21     1     1     2   511   501 -1.027157199E+01  1.052049079E+02 -1.129963816E+02  1.547312512E+02  1.348699152E-06  0.00000E+00  9.000E+00
#rwgt            1           1   4.5700039871911076E-002           4      171958           0
</event>
<event>
      5   9999  3.19816E-02  6.83602E+02 -1.00000E+00  9.51405E-02
       2    -1     0     0   502     0  0.000000000E+00  0.000000000E+00  2.848794468E+03  2.848794468E+03  0.000000000E+00  0.00000E+00  9.000E+00
      21    -1     0     0   501   502  0.000000000E+00  0.000000000E+00 -5.637686171E+02  5.637686171E+02  0.000000000E+00  0.00000E+00  9.000E+00
      25     1     1     2     0     0  2.672209653E+02  3.959252358E+01 -1.898575065E+02  3.530516747E+02  1.250000000E+02  0.00000E+00  9.000E+00
      25     1     1     2     0     0 -3.798426943E+02 -7.138531986E+02  4.751932631E+02  9.462032017E+02  1.250000000E+02  0.00000E+00  9.000E+00
       2     1     1     2   501     0  1.126217290E+02  6.742606750E+02  1.999690094E+03  2.113308209E+03  3.737624730E-05  0.00000E+00  9.000E+00
#rwgt            2          18   1.4663083908250563E-003           4      172086           0
</event>
<event>
      5   9999  3.19816E-02  2.66717E+01 -1.00000E+00  1.56674E-01
      21    -1     0     0   502   501  0.000000000E+00  0.000000000E+00  1.523818564E+02  1.523818564E+02  0.000000000E+00  0.00000E+00  9.000E+00
      21    -1     0     0   501   511  0.000000000E+00  0.000000000E+00 -9.061518831E+02  9.061518831E+02  0.000000000E+00  0.00000E+00  9.000E+00
      25     1     1     2     0     0 -1.578821867E+02 -5.653643646E+01 -2.780441588E+01  2.110005665E+02  1.250000000E+02  0.00000E+00  9.000E+00
      25     1     1     2     0     0  1.844959111E+02  5.477908015E+01 -1.572541253E+02  2.781966009E+02  1.250000000E+02  0.00000E+00  9.000E+00
      21     1     1     2   502   511 -2.661372437E+01  1.757356310E+00 -5.687114855E+02  5.693365722E+02  0.000000000E+00  0.00000E+00  9.000E+00
#rwgt            1           1   2.7523343510667889E-002           4      172120           0
</event>
<event>
      5   9999  3.19816E-02  3.32347E+01 -1.00000E+00  1.50014E-01
      21    -1     0     0   502   501  0.000000000E+00  0.000000000E+00  5.909652879E+02  5.909652879E+02  0.000000000E+00  0.00000E+00  9.000E+00
      21    -1     0     0   501   512  0.000000000E+00  0.000000000E+00 -5.788554382E+02  5.788554382E+02  0.000000000E+00  0.00000E+00  9.000E+00
      25     1     1     2     0     0  6.891406005E+01 -3.845571444E+02 -3.941374033E+02  5.688608245E+02  1.250000000E+02  0.00000E+00  9.000E+00
      25     1     1     2     0     0 -7.485761596E+01  3.518582556E+02  4.182211728E+02  5.656340196E+02  1.250000000E+02  0.00000E+00  9.000E+00
      21     1     1     2   502   512  5.943555907E+00  3.269888878E+01 -1.197391985E+01  3.532588202E+01  6.743495762E-07  0.00000E+00  9.000E+00
#rwgt            1           1   3.3566917524070719E-002           4      172335           0
</event>
<event>
      5   9999  3.19816E-02  1.15007E+02 -1.00000E+00  1.21157E-01
      21    -1     0     0   502   511  0.000000000E+00  0.000000000E+00  3.565367606E+02  3.565367606E+02  0.000000000E+00  0.00000E+00  9.000E+00
      21    -1     0     0   501   502  0.000000000E+00  0.000000000E+00 -4.855455939E+02  4.855455939E+02  0.000000000E+00  0.00000E+00  9.000E+00
      25     1     1     2     0     0  2.312647533E+02 -2.653358935E+02  9.075855838E+00  3.736226621E+02  1.250000000E+02  0.00000E+00  9.000E+00
      25     1     1     2     0     0 -1.167539677E+02  2.760101374E+02 -1.395838877E+02  3.534427063E+02  1.250000000E+02  0.00000E+00  9.000E+00
      21     1     1     2   501   511 -1.145107856E+02 -1.067424386E+01  1.499198562E+00  1.150169861E+02  7.853915663E-07  0.00000E+00  9.000E+00
#rwgt            1           1   2.7224077539629639E-002           4      172577           0
</event>
<event>
      5   9999  3.63882E-02  3.32534E+01 -1.00000E+00  1.49998E-01
      21    -1     0     0   512   501  0.000000000E+00  0.000000000E+00  1.029043263E+03  1.029043263E+03  0.000000000E+00  0.00000E+00  9.000E+00
      21    -1     0     0   501   502  0.000000000E+00  0.000000000E+00 -3.183452844E+01  3.183452844E+01  0.000000000E+00  0.00000E+00  9.000E+00
      25     1     1     2     0     0  4.235364230E+01  7.353841628E+01  3.044428794E+02  3.398708526E+02  1.250000000E+02  0.00000E+00  9.000E+00
      25     1     1     2     0     0 -2.776344419E+01 -1.034200897E+02  5.337892222E+02  5.585897041E+02  1.250000000E+02  0.00000E+00  9.000E+00
      21     1     1     2   512   502 -1.459019811E+01  2.988167342E+01  1.589766332E+02  1.624172349E+02  1.907348633E-06  0.00000E+00  9.000E+00
#rwgt            1           1   2.9510406895572713E-002           4      172627           0
</event>
<event>
      5   9999  3.19816E-02  2.25310E+02 -1.00000E+00  1.09796E-01
      21    -1     0     0   511   501  0.000000000E+00  0.000000000E+00  8.602155893E+02  8.602155893E+02  0.000000000E+00  0.00000E+00  9.000E+00
      21    -1     0     0   501   502  0.000000000E+00  0.000000000E+00 -7.468833827E+02  7.468833827E+02  0.000000000E+00  0.00000E+00  9.000E+00
      25     1     1     2     0     0 -3.373910678E+02  6.912028836E+02 -2.922823075E+01  7.797906440E+02  1.250000000E+02  0.00000E+00  9.000E+00
      25     1     1     2     0     0  1.797280732E+02 -5.302460931E+02  2.750441619E+01  5.743209838E+02  1.250000000E+02  0.00000E+00  9.000E+00
      21     1     1     2   511   502  1.576629946E+02 -1.609567906E+02  1.150560211E+02  2.529873441E+02  1.348699152E-06  0.00000E+00  9.000E+00
#rwgt            1           1   2.5211434589972749E-002           4      172688           0
</event>
<event>
      5   9999  3.19816E-02  2.37081E+02 -1.00000E+00  1.09023E-01
      21    -1     0     0   502   501  0.000000000E+00  0.000000000E+00  7.579514993E+02  7.579514993E+02  0.000000000E+00  0.00000E+00  9.000E+00
      21    -1     0     0   512   502  0.000000000E+00  0.000000000E+00 -1.500205688E+03  1.500205688E+03  0.000000000E+00  0.00000E+00  9.000E+00
      25     1     1     2     0     0  1.979280034E+01 -1.238207999E+02 -2.718681604E+02  3.244389651E+02  1.250000000E+02  0.00000E+00  9.000E+00
      25     1     1     2     0     0 -2.329909223E+02  2.275222743E+02  6.772750157E+02  7.618251781E+02  1.250000000E+02  0.00000E+00  9.000E+00
      21     1     1     2   512   501  2.131981219E+02 -1.037014743E+02 -1.147661044E+03  1.171893044E+03  0.000000000E+00  0.00000E+00  9.000E+00
#rwgt            1           1   2.9195228040352437E-002           4      172806           0
</event>
<event>
      5   9999  3.19816E-02  1.67031E+01 -1.00000E+00  1.73094E-01
      21    -1     0     0   502   511  0.000000000E+00  0.000000000E+00  1.616840772E+02  1.616840772E+02  0.000000000E+00  0.00000E+00  9.000E+00
      21    -1     0     0   501   502  0.000000000E+00  0.000000000E+00 -7.365120907E+02  7.365120907E+02  0.000000000E+00  0.00000E+00  9.000E+00
      25     1     1     2     0     0 -1.391788915E+02 -1.027220367E+02  6.104233461E+01  2.219769071E+02  1.250000000E+02  0.00000E+00  9.000E+00
      25     1     1     2     0     0  1.312110603E+02  8.804192476E+01 -6.240211020E+02  6.557400847E+02  1.250000000E+02  0.00000E+00  9.000E+00
      21     1     1     2   501   511  7.967831204E+00  1.468011195E+01 -1.184924609E+01  2.047917610E+01  2.384185791E-07  0.00000E+00  9.000E+00
#rwgt            2          11   6.2013300462326650E-003           4      173012           0
</event>
<event>
      5   9999  3.19816E-02  2.99877E+02 -1.00000E+00  1.05598E-01
      21    -1     0     0   512   501  0.000000000E+00  0.000000000E+00  5.510811765E+02  5.510811765E+02  0.000000000E+00  0.00000E+00  9.000E+00
      21    -1     0     0   501   502  0.000000000E+00  0.000000000E+00 -5.747127214E+02  5.747127214E+02  0.000000000E+00  0.00000E+00  9.000E+00
      25     1     1     2     0     0 -1.204226958E+02 -9.219906694E+01  2.061375195E+02  2.848156782E+02  1.250000000E+02  0.00000E+00  9.000E+00
      25     1     1     2     0     0 -1.681107656E+02  1.050195322E+01 -4.313507905E+02  4.796457286E+02  1.250000000E+02  0.00000E+00  9.000E+00
      21     1     1     2   512   502  2.885334614E+02  8.169711372E+01  2.015817261E+02  3.613324910E+02  5.394796609E-06  0.00000E+00  9.000E+00
#rwgt            1           1   2.7735277661280831E-002           4      173047           0
</event>
<event>
      5   9999  3.19816E-02  3.18063E+01 -1.00000E+00  1.51297E-01
       2    -1     0     0   502     0  0.000000000E+00  0.000000000E+00  9.190835023E+02  9.190835023E+02  0.000000000E+00  0.00000E+00  9.000E+00
      21    -1     0     0   501   502  0.000000000E+00  0.000000000E+00 -5.156374071E+02  5.156374071E+02  0.000000000E+00  0.00000E+00  9.000E+00
      25     1     1     2     0     0 -3.837086869E+01 -6.080372198E+01 -3.659068904E+02  3.932966674E+02  1.250000000E+02  0.00000E+00  9.000E+00
      25     1     1     2     0     0  6.294761049E+01  8.099349810E+01 -8.758376402E+01  1.838974283E+02  1.250000000E+02  0.00000E+00  9.000E+00
       2     1     1     2   501     0 -2.457674180E+01 -2.018977612E+01  8.569367496E+02  8.575268137E+02  0.000000000E+00  0.00000E+00  9.000E+00
#rwgt            1           1   2.9437413646865886E-002           4      173103           0
</event>
<event>
      5   9999  3.19816E-02  1.61661E+02 -1.00000E+00  1.15119E-01
      21    -1     0     0   502   501  0.000000000E+00  0.000000000E+00  1.129712850E+02  1.129712850E+02  0.000000000E+00  0.00000E+00  9.000E+00
      21    -1     0     0   511   502  0.000000000E+00  0.000000000E+00 -1.849903877E+03  1.849903877E+03  0.000000000E+00  0.00000E+00  9.000E+00
      25     1     1     2     0     0 -2.414830374E+02 -5.941791819E+00 -4.106833410E+02  4.925801141E+02  1.250000000E+02  0.00000E+00  9.000E+00
      25     1     1     2     0     0  3.797676950E+02  8.967762065E+01 -6.019366425E+02  7.281609021E+02  1.250000000E+02  0.00000E+00  9.000E+00
      21     1     1     2   511   501 -1.382846576E+02 -8.373582883E+01 -7.243126083E+02  7.421341456E+02  1.078959322E-05  0.00000E+00  9.000E+00
#rwgt            2          11   1.8044933127621449E-003           4      173204           0
</event>
<event>
      5   9999  3.19816E-02  3.87459E+01 -1.00000E+00  1.45703E-01
      21    -1     0     0   512   501  0.000000000E+00  0.000000000E+00  4.775340566E+02  4.775340566E+02  0.000000000E+00  0.00000E+00  9.000E+00
      21    -1     0     0   501   502  0.000000000E+00  0.000000000E+00 -5.139954714E+02  5.139954714E+02  0.000000000E+00  0.00000E+00  9.000E+00
      25     1     1     2     0     0  2.895166573E+02  1.817591724E+02  2.792130122E+02  4.587387032E+02  1.250000000E+02  0.00000E+00  9.000E+00
      25     1     1     2     0     0 -3.166998516E+02 -1.541490876E+02 -3.222530972E+02  4.934904212E+02  1.250000000E+02  0.00000E+00  9.000E+00
      21     1     1     2   512   502  2.718319422E+01 -2.761008475E+01  6.578670116E+00  3.930040366E+01  8.172577143E-07  0.00000E+00  9.000E+00
#rwgt            1           1   3.1035955878673444E-002           4      173224           0
</event>
<event>
      5   9999  3.19816E-02  6.72253E+01 -1.00000E+00  1.32116E-01
      21    -1     0     0   502   511  0.000000000E+00  0.000000000E+00  8.134798539E+02  8.134798539E+02  0.000000000E+00  0.00000E+00  9.000E+00
      21    -1     0     0   501   502  0.000000000E+00  0.000000000E+00 -9.546328525E+01  9.546328525E+01  0.000000000E+00  0.00000E+00  9.000E+00
      25     1     1     2     0     0 -1.333041303E+00 -1.577883840E+02  3.105170131E+02  3.700604904E+02  1.250000000E+02  0.00000E+00  9.000E+00
      25     1     1     2     0     0 -1.977325997E+01  2.216144640E+02  2.107817185E+02  3.309952950E+02  1.250000000E+02  0.00000E+00  9.000E+00
      21     1     1     2   501   511  2.110630127E+01 -6.382608002E+01  1.967178371E+02  2.078873538E+02  2.697398305E-06  0.00000E+00  9.000E+00
#rwgt            1           1   3.3075345741226454E-002           4      173385           0
</event>
<event>
      5   9999  3.19816E-02  1.99796E+01 -1.00000E+00  1.66406E-01
      21    -1     0     0   502   501  0.000000000E+00  0.000000000E+00  2.228888292E+02  2.228888292E+02  0.000000000E+00  0.00000E+00  9.000E+00
      21    -1     0     0   501   512  0.000000000E+00  0.000000000E+00 -4.805162777E+02  4.805162777E+02  0.000000000E+00  0.00000E+00  9.000E+00
      25     1     1     2     0     0 -2.663458396E+02 -6.508447016E+01 -1.472391615E+02  3.353810746E+02  1.250000000E+02  0.00000E+00  9.000E+00
      25     1     1     2     0     0  2.848857762E+02  7.253128601E+01 -7.617264566E+01  3.284021390E+02  1.250000000E+02  0.00000E+00  9.000E+00
      21     1     1     2   502   512 -1.853993665E+01 -7.446815858E+00 -3.421564132E+01  3.962189330E+01  4.768371582E-07  0.00000E+00  9.000E+00
#rwgt            1           1   2.9577599282327251E-002           4      173449           0
</event>
<event>
      5   9999  3.19816E-02  3.14887E+01 -1.00000E+00  1.51593E-01
      21    -1     0     0   502   501  0.000000000E+00  0.000000000E+00  2.575854729E+02  2.575854729E+02  0.000000000E+00  0.00000E+00  9.000E+00
      21    -1     0     0   511   502  0.000000000E+00  0.000000000E+00 -7.427855087E+02  7.427855087E+02  0.000000000E+00  0.00000E+00  9.000E+00
      25     1     1     2     0     0  1.260324575E+02 -2.953885421E+02 -4.026629919E+02  5.300009964E+02  1.250000000E+02  0.00000E+00  9.000E+00
      25     1     1     2     0     0 -9.537240920E+01  2.882120854E+02  5.181859460E+01  3.323736894E+02  1.250000000E+02  0.00000E+00  9.000E+00
      21     1     1     2   511   501 -3.066004829E+01  7.176456624E+00 -1.343556384E+02  1.379962958E+02  2.697398305E-06  0.00000E+00  9.000E+00
#rwgt            1           1   3.5123318281060585E-002           4      173631           0
</event>
<event>
      5   9999  3.19816E-02  4.64872E+01 -1.00000E+00  1.40905E-01
       1    -1     0     0   502     0  0.000000000E+00  0.000000000E+00  7.277100468E+02  7.277100468E+02  0.000000000E+00  0.00000E+00  9.000E+00
      21    -1     0     0   501   502  0.000000000E+00  0.000000000E+00 -1.234024874E+02  1.234024874E+02  0.000000000E+00  0.00000E+00  9.000E+00
      25     1     1     2     0     0 -1.851959157E+02 -3.705137399E+01  8.771428767E+01  2.428767749E+02  1.250000000E+02  0.00000E+00  9.000E+00
      25     1     1     2     0     0  2.192191546E+02  5.373698512E+00  3.273308731E+02  4.133478134E+02  1.250000000E+02  0.00000E+00  9.000E+00
       1     1     1     2   501     0 -3.402323895E+01  3.167767548E+01  1.892623986E+02  1.948879459E+02  2.697398305E-06  0.00000E+00  9.000E+00
#rwgt            1           1   2.8195923662646050E-002           4      173781           0
</event>
<event>
      5   9999  3.19816E-02  9.45975E+01 -1.00000E+00  1.24923E-01
      21    -1     0     0   502   501  0.000000000E+00  0.000000000E+00  2.300928647E+03  2.300928647E+03  0.000000000E+00  0.00000E+00  9.000E+00
      21    -1     0     0   501   511  0.000000000E+00  0.000000000E+00 -9.373072063E+02  9.373072063E+02  0.000000000E+00  0.00000E+00  9.000E+00
      25     1     1     2     0     0  4.855483049E+02  2.614949166E+02  6.798618992E+02  8.842929095E+02  1.250000000E+02  0.00000E+00  9.000E+00
      25     1     1     2     0     0 -5.651181999E+02 -2.103351433E+02  1.453416572E+03  1.578494278E+03  1.250000000E+02  0.00000E+00  9.000E+00
      21     1     1     2   502   511  7.956989497E+01 -5.115977333E+01 -7.696570302E+02  7.754486667E+02  1.078959322E-05  0.00000E+00  9.000E+00
#rwgt            1           1   3.7450971414634826E-002           4      173843           0
</event>
<event>
      5   9999  3.19816E-02  1.09420E+02 -1.00000E+00  1.22095E-01
      21    -1     0     0   502   512  0.000000000E+00  0.000000000E+00  1.382477983E+03  1.382477983E+03  0.000000000E+00  0.00000E+00  9.000E+00
      21    -1     0     0   501   502  0.000000000E+00  0.000000000E+00 -1.455230612E+03  1.455230612E+03  0.000000000E+00  0.00000E+00  9.000E+00
      25     1     1     2     0     0  1.094771726E+03 -3.435277624E+02  3.866918938E+02  1.217247747E+03  1.250000000E+02  0.00000E+00  9.000E+00
      25     1     1     2     0     0 -1.116827422E+03  2.363534536E+02 -7.078557047E+02  1.349018586E+03  1.250000000E+02  0.00000E+00  9.000E+00
      21     1     1     2   501   512  2.205569580E+01  1.071743088E+02  2.484111823E+02  2.714422621E+02  0.000000000E+00  0.00000E+00  9.000E+00
#rwgt            1           1   5.6432431322216293E-002           4      173897           0
</event>
<event>
      5   9999  3.19816E-02  2.22717E+01 -1.00000E+00  1.62604E-01
      21    -1     0     0   502   501  0.000000000E+00  0.000000000E+00  1.236652357E+02  1.236652357E+02  0.000000000E+00  0.00000E+00  9.000E+00
      21    -1     0     0   501   511  0.000000000E+00  0.000000000E+00 -7.956943670E+02  7.956943670E+02  0.000000000E+00  0.00000E+00  9.000E+00
      25     1     1     2     0     0  1.084761721E+02  6.051085721E+01  3.771525335E+01  1.802112208E+02  1.250000000E+02  0.00000E+00  9.000E+00
      25     1     1     2     0     0 -1.242612722E+02 -4.479914434E+01 -5.915279918E+02  6.188523186E+02  1.250000000E+02  0.00000E+00  9.000E+00
      21     1     1     2   502   511  1.578510011E+01 -1.571171287E+01 -1.182163929E+02  1.202960633E+02  1.348699152E-06  0.00000E+00  9.000E+00
#rwgt            1           1   2.7202294442718770E-002           4      174031           0
</event>
<event>
      5   9999  3.19816E-02  3.58159E+02 -1.00000E+00  1.03150E-01
      21    -1     0     0   502   501  0.000000000E+00  0.000000000E+00  8.886660649E+02  8.886660649E+02  0.000000000E+00  0.00000E+00  9.000E+00
       2    -1     0     0   501     0  0.000000000E+00  0.000000000E+00 -7.915575034E+02  7.915575034E+02  0.000000000E+00  0.00000E+00  9.000E+00
      25     1     1     2     0     0  2.124818169E+02  1.512933232E+02  2.488912497E+02  3.815888446E+02  1.250000000E+02  0.00000E+00  9.000E+00
      25     1     1     2     0     0 -1.405520867E+02  1.995687617E+02  4.912336135E+02  5.625993626E+02  1.250000000E+02  0.00000E+00  9.000E+00
       2     1     1     2   502     0 -7.192973020E+01 -3.508620850E+02 -6.430163017E+02  7.360353612E+02  1.078959322E-05  0.00000E+00  9.000E+00
#rwgt            2          13   3.2300556133141294E-003           4      174143           0
</event>
<event>
      5   9999  3.19816E-02  2.01945E+02 -1.00000E+00  1.11495E-01
       2    -1     0     0   502     0  0.000000000E+00  0.000000000E+00  1.522835520E+03  1.522835520E+03  0.000000000E+00  0.00000E+00  9.000E+00
      21    -1     0     0   501   502  0.000000000E+00  0.000000000E+00 -1.655097264E+02  1.655097264E+02  0.000000000E+00  0.00000E+00  9.000E+00
      25     1     1     2     0     0 -5.179253212E+01  1.693396476E+02  7.841939610E+02  8.135991342E+02  1.250000000E+02  0.00000E+00  9.000E+00
      25     1     1     2     0     0  2.231991796E+02 -6.256211429E+01 -3.911912130E+00  2.633860189E+02  1.250000000E+02  0.00000E+00  9.000E+00
       2     1     1     2   501     0 -1.714066475E+02 -1.067775333E+02  5.770437447E+02  6.113600934E+02  0.000000000E+00  0.00000E+00  9.000E+00
#rwgt            2          18   1.1424528154087615E-003           4      174177           0
</event>
<event>
      5   9999  3.19816E-02  2.82713E+01 -1.00000E+00  1.54852E-01
      21    -1     0     0   502   501  0.000000000E+00  0.000000000E+00  1.001616876E+03  1.001616876E+03  0.000000000E+00  0.00000E+00  9.000E+00
      21    -1     0     0   511   502  0.000000000E+00  0.000000000E+00 -6.431388121E+01  6.431388121E+01  0.000000000E+00  0.00000E+00  9.000E+00
      25     1     1     2     0     0 -2.791462771E+01 -1.119996296E+02  7.770567477E+02  7.954654818E+02  1.250000000E+02  0.00000E+00  9.000E+00
      25     1     1     2     0     0  4.637850766E+01  1.334087885E+02  1.300504251E+02  2.291003795E+02  1.250000000E+02  0.00000E+00  9.000E+00
      21     1     1     2   511   501 -1.846387995E+01 -2.140915882E+01  3.019582142E+01  4.136489545E+01  6.743495762E-07  0.00000E+00  9.000E+00
#rwgt            1           1   3.1850001747548908E-002           4      174211           0
</event>
<event>
      5   9999  3.19816E-02  3.56462E+01 -1.00000E+00  1.48014E-01
      21    -1     0     0   502   501  0.000000000E+00  0.000000000E+00  3.463099905E+02  3.463099905E+02  0.000000000E+00  0.00000E+00  9.000E+00
      21    -1     0     0   501   512  0.000000000E+00  0.000000000E+00 -8.141431485E+02  8.141431485E+02  0.000000000E+00  0.00000E+00  9.000E+00
      25     1     1     2     0     0  3.485027697E+01 -1.393487562E+02  2.313288201E+01  1.918143579E+02  1.250000000E+02  0.00000E+00  9.000E+00
      25     1     1     2     0     0 -2.363187774E+01  1.055138729E+02  2.097354999E+02  2.670311273E+02  1.250000000E+02  0.00000E+00  9.000E+00
      21     1     1     2   502   512 -1.121839923E+01  3.383488332E+01 -7.007015400E+02  7.016076538E+02  7.629394531E-06  0.00000E+00  9.000E+00
#rwgt            1           1   2.8872114041729607E-002           4      174317           0
</event>
<event>
      5   9999  3.19816E-02  8.12805E+02 -1.00000E+00  9.32054E-02
       1    -1     0     0   502     0  0.000000000E+00  0.000000000E+00  2.454129181E+03  2.454129181E+03  0.000000000E+00  0.00000E+00  9.000E+00
      21    -1     0     0   501   502  0.000000000E+00  0.000000000E+00 -8.012217056E+02  8.012217056E+02  0.000000000E+00  0.00000E+00  9.000E+00
      25     1     1     2     0     0 -3.729232935E+01 -1.574001257E+02 -2.504294104E+02  3.232729605E+02  1.250000000E+02  0.00000E+00  9.000E+00
      25     1     1     2     0     0  6.568710833E+02 -3.686923803E+02 -1.000397793E+02  7.700952206E+02  1.250000000E+02  0.00000E+00  9.000E+00
       1     1     1     2   501     0 -6.195787539E+02  5.260925060E+02  2.003376665E+03  2.161982706E+03  2.157918644E-05  0.00000E+00  9.000E+00
#rwgt            1           1   2.7370395753584981E-002           4      174417           0
</event>
<event>
      5   9999  3.19816E-02  3.21810E+02 -1.00000E+00  1.04611E-01
      21    -1     0     0   502   501  0.000000000E+00  0.000000000E+00  3.425761702E+02  3.425761702E+02  0.000000000E+00  0.00000E+00  9.000E+00
      21    -1     0     0   501   511  0.000000000E+00  0.000000000E+00 -1.331758316E+03  1.331758316E+03  0.000000000E+00  0.00000E+00  9.000E+00
      25     1     1     2     0     0  5.298864979E+01 -1.569907397E+02  1.094470544E+02  2.346434467E+02  1.250000000E+02  0.00000E+00  9.000E+00
      25     1     1     2     0     0 -3.696905977E+02  9.988314156E+01 -1.367548707E+02  4.254111830E+02  1.250000000E+02  0.00000E+00  9.000E+00
      21     1     1     2   502   511  3.167019479E+02  5.710759814E+01 -9.618743295E+02  1.014279856E+03  1.868812365E-05  0.00000E+00  9.000E+00
#rwgt            2          11   2.5369215410732961E-003           4      174499           0
</event>
<event>
      5   9999  3.19816E-02  1.27909E+02 -1.00000E+00  1.19203E-01
      21    -1     0     0   502   512  0.000000000E+00  0.000000000E+00  6.686193630E+01  6.686193630E+01  0.000000000E+00  0.00000E+00  9.000E+00
      21    -1     0     0   501   502  0.000000000E+00  0.000000000E+00 -3.269348294E+03  3.269348294E+03  0.000000000E+00  0.00000E+00  9.000E+00
      25     1     1     2     0     0  2.963234777E+02 -1.897773976E+02 -9.343561060E+02  1.006215383E+03  1.250000000E+02  0.00000E+00  9.000E+00
      25     1     1     2     0     0 -3.088664732E+02  6.248463579E+01 -2.044099629E+03  2.072021024E+03  1.250000000E+02  0.00000E+00  9.000E+00
      21     1     1     2   501   512  1.254299546E+01  1.272927618E+02 -2.240306224E+02  2.579738237E+02  2.697398305E-06  0.00000E+00  9.000E+00
#rwgt            1           1   4.2201385852076938E-002           4      174534           0
</event>
<event>
      5   9999  3.19816E-02  5.76452E+01 -1.00000E+00  1.35639E-01
      21    -1     0     0   502   501  0.000000000E+00  0.000000000E+00  6.467892593E+01  6.467892593E+01  0.000000000E+00  0.00000E+00  9.000E+00
      21    -1     0     0   501   511  0.000000000E+00  0.000000000E+00 -1.202863486E+03  1.202863486E+03  0.000000000E+00  0.00000E+00  9.000E+00
      25     1     1     2     0     0 -1.917252792E+02 -3.229286725E+01 -3.937949883E+02  4.566189930E+02  1.250000000E+02  0.00000E+00  9.000E+00
      25     1     1     2     0     0  2.218977385E+02 -1.682530385E+01 -5.202296313E+02  5.794700738E+02  1.250000000E+02  0.00000E+00  9.000E+00
      21     1     1     2   502   511 -3.017245926E+01  4.911817110E+01 -2.241599403E+02  2.314533449E+02  0.000000000E+00  0.00000E+00  9.000E+00
#rwgt            1           1   2.2788622964536671E-002           4      174679           0
</event>
<event>
      5   9999  3.19816E-02  2.29329E+02 -1.00000E+00  1.09527E-01
      21    -1     0     0   512   501  0.000000000E+00  0.000000000E+00  1.264349878E+03  1.264349878E+03  0.000000000E+00  0.00000E+00  9.000E+00
      21    -1     0     0   501   502  0.000000000E+00  0.000000000E+00 -3.338285790E+02  3.338285790E+02  0.000000000E+00  0.00000E+00  9.000E+00
      25     1     1     2     0     0 -1.223559898E+02  3.131472617E+02 -1.802111392E+02  4.014140636E+02  1.250000000E+02  0.00000E+00  9.000E+00
      25     1     1     2     0     0  1.114952452E+02 -8.407528384E+01  2.957653839E+02  3.501456916E+02  1.250000000E+02  0.00000E+00  9.000E+00
      21     1     1     2   512   502  1.086074460E+01 -2.290719779E+02  8.149670543E+02  8.466187019E+02  0.000000000E+00  0.00000E+00  9.000E+00
#rwgt            1           1   2.7046555655878473E-002           4      174775           0
</event>
<event>
      5   9999  3.19816E-02  1.86103E+02 -1.00000E+00  1.12799E-01
      21    -1     0     0   511   501  0.000000000E+00  0.000000000E+00  4.479919700E+02  4.479919700E+02  0.000000000E+00  0.00000E+00  9.000E+00
      21    -1     0     0   501   502  0.000000000E+00  0.000000000E+00 -3.975635646E+02  3.975635646E+02  0.000000000E+00  0.00000E+00  9.000E+00
      25     1     1     2     0     0 -1.600160851E+01 -1.784503816E+02 -1.130102464E+02  2.459611879E+02  1.250000000E+02  0.00000E+00  9.000E+00
      25     1     1     2     0     0  1.295842678E+02  3.102845582E+01 -1.491163687E+02  2.358294701E+02  1.250000000E+02  0.00000E+00  9.000E+00
      21     1     1     2   511   502 -1.135826593E+02  1.474219258E+02  3.125550205E+02  3.637648767E+02  0.000000000E+00  0.00000E+00  9.000E+00
#rwgt            1           1   2.9206795243490475E-002           4      174817           0
</event>
<event>
      5   9999  3.19816E-02  3.15448E+01 -1.00000E+00  1.51541E-01
      21    -1     0     0   502   501  0.000000000E+00  0.000000000E+00  6.960550111E+02  6.960550111E+02  0.000000000E+00  0.00000E+00  9.000E+00
      21    -1     0     0   512   502  0.000000000E+00  0.000000000E+00 -8.971756998E+02  8.971756998E+02  0.000000000E+00  0.00000E+00  9.000E+00
      25     1     1     2     0     0  7.879508875E+01  4.994759803E+02  2.962847601E+02  5.992450083E+02  1.250000000E+02  0.00000E+00  9.000E+00
      25     1     1     2     0     0 -9.887084281E+01 -4.751441503E+02 -5.623012034E+00  5.011926031E+02  1.250000000E+02  0.00000E+00  9.000E+00
      21     1     1     2   512   501  2.007575406E+01 -2.433183000E+01 -4.917824368E+02  4.927930995E+02  5.394796609E-06  0.00000E+00  9.000E+00
#rwgt            1           1   2.8917589736106634E-002           4      174862           0
</event>
<event>
      5   9999  3.19816E-02  5.20874E+01 -1.00000E+00  1.38070E-01
      21    -1     0     0   511   501  0.000000000E+00  0.000000000E+00  6.397844019E+02  6.397844019E+02  0.000000000E+00  0.00000E+00  9.000E+00
      21    -1     0     0   501   502  0.000000000E+00  0.000000000E+00 -1.586066857E+03  1.586066857E+03  0.000000000E+00  0.00000E+00  9.000E+00
      25     1     1     2     0     0 -1.514213325E+02  3.328433164E+02 -1.426405898E+03  1.477826742E+03  1.250000000E+02  0.00000E+00  9.000E+00
      25     1     1     2     0     0  1.465163651E+02 -3.846992512E+02  2.208887940E+02  4.836087452E+02  1.250000000E+02  0.00000E+00  9.000E+00
      21     1     1     2   511   502  4.904967381E+00  5.185593482E+01  2.592346494E+02  2.644157713E+02  6.607249480E-06  0.00000E+00  9.000E+00
#rwgt            1           1   2.8002740858941635E-002           4      174993           0
</event>
<event>
      5   9999  3.19816E-02  5.88772E+00 -1.00000E+00  2.26754E-01
      21    -1     0     0   502   501  0.000000000E+00  0.000000000E+00  1.168610485E+03  1.168610485E+03  0.000000000E+00  0.00000E+00  9.000E+00
      21    -1     0     0   501   512  0.000000000E+00  0.000000000E+00 -5.030640307E+02  5.030640307E+02  0.000000000E+00  0.00000E+00  9.000E+00
      25     1     1     2     0     0  1.863125187E+02 -2.950505953E+02  7.339137310E+02  8.222053107E+02  1.250000000E+02  0.00000E+00  9.000E+00
      25     1     1     2     0     0 -1.918172449E+02  2.929617685E+02  3.020284045E+02  4.790267324E+02  1.250000000E+02  0.00000E+00  9.000E+00
      21     1     1     2   502   512  5.504726176E+00  2.088826767E+00 -3.703956810E+02  3.704424728E+02  5.394796609E-06  0.00000E+00  9.000E+00
#rwgt            1           1   3.4658289983143208E-002           4      175183           0
</event>
<event>
      5   9999  3.19816E-02  1.23432E+02 -1.00000E+00  1.19851E-01
      21    -1     0     0   502   501  0.000000000E+00  0.000000000E+00  1.290086071E+02  1.290086071E+02  0.000000000E+00  0.00000E+00  9.000E+00
      21    -1     0     0   511   502  0.000000000E+00  0.000000000E+00 -7.732427875E+02  7.732427875E+02  0.000000000E+00  0.00000E+00  9.000E+00
      25     1     1     2     0     0  5.849453123E+01 -4.028253157E+00 -9.275266704E+01  1.663306774E+02  1.250000000E+02  0.00000E+00  9.000E+00
      25     1     1     2     0     0  5.603634405E+01 -4.199584113E+01  2.580683964E+01  1.455840496E+02  1.250000000E+02  0.00000E+00  9.000E+00
      21     1     1     2   511   501 -1.145308753E+02  4.602409429E+01 -5.772883530E+02  5.903366676E+02  1.078959322E-05  0.00000E+00  9.000E+00
#rwgt            2          11   1.0652598305068593E-003           4      175352           0
</event>
<event>
      5   9999  3.19816E-02  1.57571E+02 -1.00000E+00  1.15552E-01
      21    -1     0     0   502   501  0.000000000E+00  0.000000000E+00  7.168999783E+02  7.168999783E+02  0.000000000E+00  0.00000E+00  9.000E+00
      21    -1     0     0   501   512  0.000000000E+00  0.000000000E+00 -1.266804008E+03  1.266804008E+03  0.000000000E+00  0.00000E+00  9.000E+00
      25     1     1     2     0     0 -2.545992184E+02 -4.968063211E+02 -7.089261823E+02  9.109547819E+02  1.250000000E+02  0.00000E+00  9.000E+00
      25     1     1     2     0     0  2.093788803E+02  6.477492366E+02  3.890105556E+02  7.939602014E+02  1.250000000E+02  0.00000E+00  9.000E+00
      21     1     1     2   502   512  4.522033819E+01 -1.509429155E+02 -2.299884034E+02  2.787890034E+02  3.814697266E-06  0.00000E+00  9.000E+00
#rwgt            1           1   1.8551888661092843E-002           4      175372           0
</event>
<event>
      5   9999  3.19816E-02  1.20347E+02 -1.00000E+00  1.20315E-01
      21    -1     0     0   502   501  0.000000000E+00  0.000000000E+00  1.162447156E+02  1.162447156E+02  0.000000000E+00  0.00000E+00  9.000E+00
       1    -1     0     0   501     0  0.000000000E+00  0.000000000E+00 -1.468966605E+03  1.468966605E+03  0.000000000E+00  0.00000E+00  9.000E+00
      25     1     1     2     0     0  1.202955086E+01  3.174899386E+02 -2.999068716E+02  4.544377877E+02  1.250000000E+02  0.00000E+00  9.000E+00
      25     1     1     2     0     0  9.603900732E+00 -1.991033838E+02 -3.775147866E+02  4.448334592E+02  1.250000000E+02  0.00000E+00  9.000E+00
       1     1     1     2   502     0 -2.163345160E+01 -1.183865548E+02 -6.753002314E+02  6.859400740E+02  7.629394531E-06  0.00000E+00  9.000E+00
#rwgt            1           1   2.6472740390750954E-002           4      175481           0
</event>
<event>
      5   9999  3.19816E-02  3.99940E+01 -1.00000E+00  1.44844E-01
      21    -1     0     0   502   511  0.000000000E+00  0.000000000E+00  1.588656347E+03  1.588656347E+03  0.000000000E+00  0.00000E+00  9.000E+00
      21    -1     0     0   501   502  0.000000000E+00  0.000000000E+00 -2.163692750E+02  2.163692750E+02  0.000000000E+00  0.00000E+00  9.000E+00
      25     1     1     2     0     0 -3.925572026E+02  2.001799450E+02  9.280657640E+02  1.034941655E+03  1.250000000E+02  0.00000E+00  9.000E+00
      25     1     1     2     0     0  4.285230539E+02 -1.826876564E+02  1.992257208E+02  5.218454516E+02  1.250000000E+02  0.00000E+00  9.000E+00
      21     1     1     2   501   511 -3.596585134E+01 -1.749228856E+01  2.449955875E+02  2.482385154E+02  4.672030912E-06  0.00000E+00  9.000E+00
#rwgt            1           1   3.1538250654387957E-002           4      175545           0
</event>
<event>
      5   9999  3.19816E-02  4.77491E+01 -1.00000E+00  1.40227E-01
       1    -1     0     0   502     0  0.000000000E+00  0.000000000E+00  2.918416318E+03  2.918416318E+03  0.000000000E+00  0.00000E+00  9.000E+00
      21    -1     0     0   501   502  0.000000000E+00  0.000000000E+00 -1.497356527E+03  1.497356527E+03  0.000000000E+00  0.00000E+00  9.000E+00
      25     1     1     2     0     0  9.473603784E+02 -1.152497626E+03 -2.160967301E+02  1.512635205E+03  1.250000000E+02  0.00000E+00  9.000E+00
      25     1     1     2     0     0 -9.689676769E+02  1.195078203E+03  3.091395560E+02  1.574262537E+03  1.250000000E+02  0.00000E+00  9.000E+00
       1     1     1     2   501     0  2.160729845E+01 -4.258057633E+01  1.328016965E+03  1.328875103E+03  2.157918644E-05  0.00000E+00  9.000E+00
#rwgt            1           1   1.8802524774295754E-002           4      175745           0
</event>
<event>
      5   9999  3.19816E-02  3.15654E+02 -1.00000E+00  1.04879E-01
      21    -1     0     0   502   501  0.000000000E+00  0.000000000E+00  4.093500912E+02  4.093500912E+02  0.000000000E+00  0.00000E+00  9.000E+00
       1    -1     0     0   501     0  0.000000000E+00  0.000000000E+00 -8.725363903E+02  8.725363903E+02  0.000000000E+00  0.00000E+00  9.000E+00
      25     1     1     2     0     0 -3.285768070E+02  3.198131326E+02 -3.866258132E+02  6.126562473E+02  1.250000000E+02  0.00000E+00  9.000E+00
      25     1     1     2     0     0  3.212369246E+02 -4.244873931E+00 -1.300602370E+00  3.447286937E+02  1.250000000E+02  0.00000E+00  9.000E+00
       1     1     1     2   502     0  7.339882337E+00 -3.155682587E+02 -7.525988341E+01  3.245015405E+02  5.722045898E-06  0.00000E+00  9.000E+00
#rwgt            1           1   2.8604721786381359E-002           4      175926           0
</event>
<event>
      5   9999  3.19816E-02  4.82068E+01 -1.00000E+00  1.39987E-01
      21    -1     0     0   511   501  0.000000000E+00  0.000000000E+00  4.052126238E+02  4.052126238E+02  0.000000000E+00  0.00000E+00  9.000E+00
      21    -1     0     0   501   502  0.000000000E+00  0.000000000E+00 -4.254712204E+02  4.254712204E+02  0.000000000E+00  0.00000E+00  9.000E+00
      25     1     1     2     0     0 -8.234368438E+01 -3.120072536E+02  1.546534267E+02  3.790404873E+02  1.250000000E+02  0.00000E+00  9.000E+00
      25     1     1     2     0     0  6.221792145E+01  2.682025315E+02 -2.289177727E+02  3.792519141E+02  1.250000000E+02  0.00000E+00  9.000E+00
      21     1     1     2   511   502  2.012576294E+01  4.380472207E+01  5.400574943E+01  7.239144273E+01  9.536743164E-07  0.00000E+00  9.000E+00
#rwgt            2          11   2.5791380363551154E-003           4      175955           0
</event>
<event>
      5   9999  3.19816E-02  1.14922E+02 -1.00000E+00  1.21171E-01
      21    -1     0     0   502   501  0.000000000E+00  0.000000000E+00  8.378981586E+02  8.378981586E+02  0.000000000E+00  0.00000E+00  9.000E+00
      21    -1     0     0   512   502  0.000000000E+00  0.000000000E+00 -4.349089309E+02  4.349089309E+02  0.000000000E+00  0.00000E+00  9.000E+00
      25     1     1     2     0     0  9.873268566E+01 -3.026874451E+02 -2.855351396E+02  4.455593659E+02  1.250000000E+02  0.00000E+00  9.000E+00
      25     1     1     2     0     0 -2.556269337E+01  2.140688880E+02  6.647024219E+02  7.098825606E+02  1.250000000E+02  0.00000E+00  9.000E+00
      21     1     1     2   512   501 -7.316999229E+01  8.861855709E+01  2.382194532E+01  1.173651631E+02  1.066240300E-06  0.00000E+00  9.000E+00
#rwgt            2          11   6.3448783212025116E-003           4      176020           0
</event>
<event>
      5   9999  3.19816E-02  7.85150E+01 -1.00000E+00  1.28745E-01
      21    -1     0     0   502   511  0.000000000E+00  0.000000000E+00  2.626949786E+02  2.626949786E+02  0.000000000E+00  0.00000E+00  9.000E+00
      21    -1     0     0   501   502  0.000000000E+00  0.000000000E+00 -1.673667703E+03  1.673667703E+03  0.000000000E+00  0.00000E+00  9.000E+00
      25     1     1     2     0     0 -8.416314382E+01  5.266434097E+02 -1.878825094E+02  5.791040952E+02  1.250000000E+02  0.00000E+00  9.000E+00
      25     1     1     2     0     0  1.142934009E+02 -4.541397927E+02 -1.157735662E+03  1.255102703E+03  1.250000000E+02  0.00000E+00  9.000E+00
      21     1     1     2   501   511 -3.013025707E+01 -7.250361693E+01 -6.535455335E+01  1.021558834E+02  1.348699152E-06  0.00000E+00  9.000E+00
#rwgt            1           1   2.0289006198441546E-002           4      176040           0
</event>
<event>
      5   9999  3.19816E-02  5.24465E+01 -1.00000E+00  1.37902E-01
      21    -1     0     0   502   501  0.000000000E+00  0.000000000E+00  1.617600184E+02  1.617600184E+02  0.000000000E+00  0.00000E+00  9.000E+00
      21    -1     0     0   501   512  0.000000000E+00  0.000000000E+00 -4.198779470E+02  4.198779470E+02  0.000000000E+00  0.00000E+00  9.000E+00
      25     1     1     2     0     0  1.565163741E+02 -1.046829139E+02 -7.838683991E+01  2.392182780E+02  1.250000000E+02  0.00000E+00  9.000E+00
      25     1     1     2     0     0 -1.815402117E+02  5.859122312E+01 -1.048897238E+02  2.510311416E+02  1.250000000E+02  0.00000E+00  9.000E+00
      21     1     1     2   502   512  2.502383757E+01  4.609169081E+01 -7.484136494E+01  9.138854586E+01  9.536743164E-07  0.00000E+00  9.000E+00
#rwgt            1           1   2.7006530374258920E-002           4      176149           0
</event>
<event>
      5   9999  3.19816E-02  4.74709E+01 -1.00000E+00  1.40374E-01
      21    -1     0     0   502   501  0.000000000E+00  0.000000000E+00  1.498571462E+03  1.498571462E+03  0.000000000E+00  0.00000E+00  9.000E+00
      21    -1     0     0   501   511  0.000000000E+00  0.000000000E+00 -3.519488500E+02  3.519488500E+02  0.000000000E+00  0.00000E+00  9.000E+00
      25     1     1     2     0     0 -4.408422258E+02  4.927755784E+02  7.780262967E+02  1.028649385E+03  1.250000000E+02  0.00000E+00  9.000E+00
      25     1     1     2     0     0  4.090479631E+02 -4.575248731E+02  4.182847787E+02  7.531509820E+02  1.250000000E+02  0.00000E+00  9.000E+00
      21     1     1     2   502   511  3.179426276E+01 -3.525070532E+01 -4.968846379E+01  6.871994473E+01  1.784161275E-06  0.00000E+00  9.000E+00
#rwgt            1           1   2.9562708109728959E-002           4      176228           0
</event>
<event>
      5   9999  3.19816E-02  5.95474E+01 -1.00000E+00  1.34879E-01
      -3    -1     0     0     0   501  0.000000000E+00  0.000000000E+00  1.422254288E+02  1.422254288E+02  0.000000000E+00  0.00000E+00  9.000E+00
      21    -1     0     0   501   502  0.000000000E+00  0.000000000E+00 -2.596120779E+03  2.596120779E+03  0.000000000E+00  0.00000E+00  9.000E+00
      25     1     1     2     0     0 -3.509890276E+02  3.149091513E+02 -5.750370505E+02  7.540912945E+02  1.250000000E+02  0.00000E+00  9.000E+00
      25     1     1     2     0     0  3.123229635E+02 -3.601951927E+02 -1.856239758E+03  1.920556495E+03  1.250000000E+02  0.00000E+00  9.000E+00
      -3     1     1     2     0   502  3.866606408E+01  4.528604144E+01 -2.261854125E+01  6.369841810E+01  1.168007728E-06  0.00000E+00  9.000E+00
#rwgt            1           1   8.5661713008772927E-002           4      176388           0
</event>
<event>
      5   9999  3.19816E-02  1.58609E+02 -1.00000E+00  1.15441E-01
      21    -1     0     0   502   511  0.000000000E+00  0.000000000E+00  2.775164902E+02  2.775164902E+02  0.000000000E+00  0.00000E+00  9.000E+00
      21    -1     0     0   501   502  0.000000000E+00  0.000000000E+00 -5.117552697E+02  5.117552697E+02  0.000000000E+00  0.00000E+00  9.000E+00
      25     1     1     2     0     0  9.396495656E+01 -1.110135136E+02 -4.076503034E+02  4.505076949E+02  1.250000000E+02  0.00000E+00  9.000E+00
      25     1     1     2     0     0 -2.695253530E+01 -3.274411418E+01  6.987310492E+01  1.493514880E+02  1.250000000E+02  0.00000E+00  9.000E+00
      21     1     1     2   501   511 -6.701242127E+01  1.437576278E+02  1.035384190E+02  1.894125771E+02  4.046097457E-06  0.00000E+00  9.000E+00
#rwgt            1           1   2.6918249729123107E-002           4      176461           0
</event>
<event>
      5   9999  3.19816E-02  1.34757E+02 -1.00000E+00  1.18268E-01
       2    -1     0     0   502     0  0.000000000E+00  0.000000000E+00  1.222680945E+03  1.222680945E+03  0.000000000E+00  0.00000E+00  9.000E+00
      21    -1     0     0   501   502  0.000000000E+00  0.000000000E+00 -4.694097984E+02  4.694097984E+02  0.000000000E+00  0.00000E+00  9.000E+00
      25     1     1     2     0     0 -1.560100453E+02  2.789350126E+01 -3.410814613E+02  3.963316097E+02  1.250000000E+02  0.00000E+00  9.000E+00
      25     1     1     2     0     0  2.155450047E+02  9.299870570E+01  8.757789407E+01  2.800058854E+02  1.250000000E+02  0.00000E+00  9.000E+00
       2     1     1     2   501     0 -5.953495944E+01 -1.208922070E+02  1.006774714E+03  1.015753249E+03  1.078959322E-05  0.00000E+00  9.000E+00
#rwgt            1           1   2.7562427578031467E-002           4      176503           0
</event>
<event>
      5   9999  3.19816E-02  1.77369E+02 -1.00000E+00  1.13580E-01
      21    -1     0     0   502   501  0.000000000E+00  0.000000000E+00  1.785463541E+03  1.785463541E+03  0.000000000E+00  0.00000E+00  9.000E+00
      21    -1     0     0   501   511  0.000000000E+00  0.000000000E+00 -4.164952642E+02  4.164952642E+02  0.000000000E+00  0.00000E+00  9.000E+00
      25     1     1     2     0     0  1.706940102E+02  1.421677059E+02  1.122139001E+02  2.785050468E+02  1.250000000E+02  0.00000E+00  9.000E+00
      25     1     1     2     0     0 -2.810959981E+02 -2.809889483E+02  1.536626527E+03  1.592110497E+03  1.250000000E+02  0.00000E+00  9.000E+00
      21     1     1     2   502   511  1.104019879E+02  1.388212424E+02 -2.798721507E+02  3.313432616E+02  6.607249480E-06  0.00000E+00  9.000E+00
#rwgt            1           1   3.4323971721596881E-002           4      176542           0
</event>
<event>
      5   9999  3.19816E-02  4.48752E+01 -1.00000E+00  1.41809E-01
      21    -1     0     0   502   501  0.000000000E+00  0.000000000E+00  6.885462261E+01  6.885462261E+01  0.000000000E+00  0.00000E+00  9.000E+00
      21    -1     0     0   512   502  0.000000000E+00  0.000000000E+00 -1.971816349E+03  1.971816349E+03  0.000000000E+00  0.00000E+00  9.000E+00
      25     1     1     2     0     0 -7.270882761E+01 -2.021540746E+02 -1.496513080E+03  1.517013264E+03  1.250000000E+02  0.00000E+00  9.000E+00
      25     1     1     2     0     0  1.077552577E+02  1.741266768E+02 -1.998572495E+02  3.122486434E+02  1.250000000E+02  0.00000E+00  9.000E+00
      21     1     1     2   512   501 -3.504643009E+01  2.802739776E+01 -2.065913968E+02  2.114090644E+02  2.697398305E-06  0.00000E+00  9.000E+00
#rwgt            1           1   3.2744671414452649E-002           4      176617           0
</event>
<event>
      5   9999  3.19816E-02  1.11624E+02 -1.00000E+00  1.21717E-01
       2    -1     0     0   502     0  0.000000000E+00  0.000000000E+00  2.076886933E+03  2.076886933E+03  0.000000000E+00  0.00000E+00  9.000E+00
      21    -1     0     0   501   502  0.000000000E+00  0.000000000E+00 -3.224732134E+02  3.224732134E+02  0.000000000E+00  0.00000E+00  9.000E+00
      25     1     1     2     0     0  6.195593663E+01 -4.205144182E+02  4.837696739E+00  4.430793578E+02  1.250000000E+02  0.00000E+00  9.000E+00
      25     1     1     2     0     0 -2.647438771E+01  3.146799782E+02  1.831200003E+02  3.858527133E+02  1.250000000E+02  0.00000E+00  9.000E+00
       2     1     1     2   501     0 -3.548154892E+01  1.058344400E+02  1.566456022E+03  1.570428075E+03  2.157918644E-05  0.00000E+00  9.000E+00
#rwgt            1           1   2.7403537001267270E-002           4      176723           0
</event>
<event>
      5   9999  3.19816E-02  5.31462E+01 -1.00000E+00  1.37580E-01
      21    -1     0     0   502   501  0.000000000E+00  0.000000000E+00  1.017395291E+02  1.017395291E+02  0.000000000E+00  0.00000E+00  9.000E+00
      21    -1     0     0   501   511  0.000000000E+00  0.000000000E+00 -5.887218880E+02  5.887218880E+02  0.000000000E+00  0.00000E+00  9.000E+00
      25     1     1     2     0     0  7.428902241E+00 -1.186106143E+02 -1.409163604E+02  2.227242399E+02  1.250000000E+02  0.00000E+00  9.000E+00
      25     1     1     2     0     0 -4.718382049E+01  8.333929042E+01 -4.750005726E+01  1.644779793E+02  1.250000000E+02  0.00000E+00  9.000E+00
      21     1     1     2   502   511  3.975491825E+01  3.527132391E+01 -2.985659412E+02  3.032591978E+02  3.814697266E-06  0.00000E+00  9.000E+00
#rwgt            1           1   3.4117492491012258E-002           4      176784           0
</event>
<event>
      5   9999  3.19816E-02  2.15641E+01 -1.00000E+00  1.63715E-01
      21    -1     0     0   502   501  0.000000000E+00  0.000000000E+00  3.737907126E+02  3.737907126E+02  0.000000000E+00  0.00000E+00  9.000E+00
      21    -1     0     0   501   512  0.000000000E+00  0.000000000E+00 -6.512473165E+02  6.512473165E+02  0.000000000E+00  0.00000E+00  9.000E+00
      25     1     1     2     0     0 -3.093437046E+02  5.921341240E+01 -3.280465836E+02  4.716347281E+02  1.250000000E+02  0.00000E+00  9.000E+00
      25     1     1     2     0     0  3.232803142E+02 -7.566889036E+01  1.967411450E+02  4.056698419E+02  1.250000000E+02  0.00000E+00  9.000E+00
      21     1     1     2   502   512 -1.393660960E+01  1.645547796E+01 -1.461511652E+02  1.477334591E+02  0.000000000E+00  0.00000E+00  9.000E+00
#rwgt            1           1   3.0482662534218746E-002           4      176840           0
</event>
<event>
      5   9999  3.19816E-02  2.55174E+01 -1.00000E+00  1.58087E-01
      21    -1     0     0   502   501  0.000000000E+00  0.000000000E+00  4.551466211E+02  4.551466211E+02  0.000000000E+00  0.00000E+00  9.000E+00
      -1    -1     0     0     0   502  0.000000000E+00  0.000000000E+00 -2.977215984E+02  2.977215984E+02  0.000000000E+00  0.00000E+00  9.000E+00
      25     1     1     2     0     0 -1.118005937E+02 -8.998557460E+00  1.340231510E+02  2.148663580E+02  1.250000000E+02  0.00000E+00  9.000E+00
      25     1     1     2     0     0  1.192651688E+02 -1.540258152E+01  2.531321405E+02  3.068587632E+02  1.250000000E+02  0.00000E+00  9.000E+00
      -1     1     1     2     0   501 -7.464575063E+00  2.440113898E+01 -2.297302688E+02  2.311430983E+02  3.814697266E-06  0.00000E+00  9.000E+00
#rwgt            1           1   2.5947841330043089E-002           4      177059           0
</event>
<event>
      5   9999  3.19816E-02  5.98042E+01 -1.00000E+00  1.34779E-01
      21    -1     0     0   502   501  0.000000000E+00  0.000000000E+00  3.987718925E+02  3.987718925E+02  0.000000000E+00  0.00000E+00  9.000E+00
       2    -1     0     0   501     0  0.000000000E+00  0.000000000E+00 -1.000012665E+03  1.000012665E+03  0.000000000E+00  0.00000E+00  9.000E+00
      25     1     1     2     0     0 -2.397953017E+02 -3.766189816E+02 -7.369683701E+02  8.706842267E+02  1.250000000E+02  0.00000E+00  9.000E+00
      25     1     1     2     0     0  1.807502734E+02  3.671202353E+02  1.685611259E+02  4.598758329E+02  1.250000000E+02  0.00000E+00  9.000E+00
       2     1     1     2   502     0  5.904502833E+01  9.498746308E+00 -3.283352841E+01  6.822449809E+01  6.743495762E-07  0.00000E+00  9.000E+00
#rwgt            1           1   3.1297140923152202E-002           4      177186           0
</event>
<event>
      5   9999  3.19816E-02  2.79087E+01 -1.00000E+00  1.55252E-01
      21    -1     0     0   502   511  0.000000000E+00  0.000000000E+00  7.318175198E+02  7.318175198E+02  0.000000000E+00  0.00000E+00  9.000E+00
      21    -1     0     0   501   502  0.000000000E+00  0.000000000E+00 -2.035387253E+03  2.035387253E+03  0.000000000E+00  0.00000E+00  9.000E+00
      25     1     1     2     0     0  2.922895990E+02 -1.502214374E+02 -2.930019783E+02  4.576842244E+02  1.250000000E+02  0.00000E+00  9.000E+00
      25     1     1     2     0     0 -3.182644441E+02  1.400134381E+02 -1.639170849E+03  1.680298215E+03  1.250000000E+02  0.00000E+00  9.000E+00
      21     1     1     2   501   511  2.597484511E+01  1.020799937E+01  6.286030938E+02  6.292223338E+02  7.629394531E-06  0.00000E+00  9.000E+00
#rwgt            1           1   2.9701498552594002E-002           4      177301           0
</event>
<event>
      5   9999  3.19816E-02  3.08003E+01 -1.00000E+00  1.52250E-01
      21    -1     0     0   502   501  0.000000000E+00  0.000000000E+00  7.238856439E+02  7.238856439E+02  0.000000000E+00  0.00000E+00  9.000E+00
      21    -1     0     0   512   502  0.000000000E+00  0.000000000E+00 -2.456868653E+02  2.456868653E+02  0.000000000E+00  0.00000E+00  9.000E+00
      25     1     1     2     0     0 -2.717616707E+02 -4.665903685E+01 -9.202175697E+01  3.164245173E+02  1.250000000E+02  0.00000E+00  9.000E+00
      25     1     1     2     0     0  2.409644097E+02  4.622592854E+01  5.532309994E+02  6.179726709E+02  1.250000000E+02  0.00000E+00  9.000E+00
      21     1     1     2   512   501  3.079726099E+01  4.331083101E-01  1.698953613E+01  3.517532097E+01  4.768371582E-07  0.00000E+00  9.000E+00
#rwgt            1           1   2.5866244417240697E-002           4      177455           0
</event>
<event>
      5   9999  3.19816E-02  1.48245E+01 -1.00000E+00  1.77866E-01
      21    -1     0     0   511   501  0.000000000E+00  0.000000000E+00  3.389022656E+01  3.389022656E+01  0.000000000E+00  0.00000E+00  9.000E+00
      21    -1     0     0   501   502  0.000000000E+00  0.000000000E+00 -1.057266241E+03  1.057266241E+03  0.000000000E+00  0.00000E+00  9.000E+00
      25     1     1     2     0     0  7.571205147E+01  4.390979829E+01 -2.877082654E+02  3.256707403E+02  1.250000000E+02  0.00000E+00  9.000E+00
      25     1     1     2     0     0 -7.504128390E+01 -2.910047630E+01 -7.357910499E+02  7.506607097E+02  1.250000000E+02  0.00000E+00  9.000E+00
      21     1     1     2   511   502 -6.707675723E-01 -1.480932198E+01  1.233006808E-01  1.482501770E+01  5.067969592E-07  0.00000E+00  9.000E+00
#rwgt            1           1   3.1088650888189923E-002           4      177582           0
</event>
<event>
      5   9999  3.19816E-02  1.01471E+02 -1.00000E+00  1.23543E-01
      21    -1     0     0   502   501  0.000000000E+00  0.000000000E+00  4.827141682E+02  4.827141682E+02  0.000000000E+00  0.00000E+00  9.000E+00
      21    -1     0     0   501   512  0.000000000E+00  0.000000000E+00 -2.313819242E+02  2.313819242E+02  0.000000000E+00  0.00000E+00  9.000E+00
      25     1     1     2     0     0  6.356683432E+01  1.574756366E+02  2.414473054E+02  3.205637532E+02  1.250000000E+02  0.00000E+00  9.000E+00
      25     1     1     2     0     0 -1.589798626E+02 -1.920102994E+02  5.198915422E+01  2.836730935E+02  1.250000000E+02  0.00000E+00  9.000E+00
      21     1     1     2   502   512  9.541302825E+01  3.453466282E+01 -4.210421570E+01  1.098592457E+02  1.507891493E-06  0.00000E+00  9.000E+00
#rwgt            1           1   2.4600997684315857E-002           4      177747           0
</event>
<event>
      5   9999  3.19816E-02  9.44257E+01 -1.00000E+00  1.24959E-01
      21    -1     0     0   502   501  0.000000000E+00  0.000000000E+00  4.403783722E+02  4.403783722E+02  0.000000000E+00  0.00000E+00  9.000E+00
      21    -1     0     0   501   511  0.000000000E+00  0.000000000E+00 -5.493824576E+02  5.493824576E+02  0.000000000E+00  0.00000E+00  9.000E+00
      25     1     1     2     0     0  6.349732299E+01  1.426403692E+02 -1.694375683E+02  2.621302625E+02  1.250000000E+02  0.00000E+00  9.000E+00
      25     1     1     2     0     0 -1.246488406E+02 -2.145897315E+02  3.361877147E+02  4.361573865E+02  1.250000000E+02  0.00000E+00  9.000E+00
      21     1     1     2   502   511  6.115151764E+01  7.194936232E+01 -2.757542318E+02  2.914731809E+02  3.814697266E-06  0.00000E+00  9.000E+00
#rwgt            1           1   2.8223009016398706E-002           4      177826           0
</event>
<event>
      5   9999  3.19816E-02  3.55900E+01 -1.00000E+00  1.48058E-01
      21    -1     0     0   512   501  0.000000000E+00  0.000000000E+00  4.946100665E+02  4.946100665E+02  0.000000000E+00  0.00000E+00  9.000E+00
      21    -1     0     0   501   502  0.000000000E+00  0.000000000E+00 -4.620321545E+02  4.620321545E+02  0.000000000E+00  0.00000E+00  9.000E+00
      25     1     1     2     0     0 -9.402444393E+01 -1.756666248E+01  1.025414721E+02  1.878534993E+02  1.250000000E+02  0.00000E+00  9.000E+00
      25     1     1     2     0     0  5.857939187E+01  1.435765745E+01 -4.069303445E+02  4.299476628E+02  1.250000000E+02  0.00000E+00  9.000E+00
      21     1     1     2   512   502  3.544505206E+01  3.209005033E+00  3.369667844E+02  3.388410589E+02  0.000000000E+00  0.00000E+00  9.000E+00
#rwgt            1           1   2.8599528479331612E-002           4      177878           0
</event>
<event>
      5   9999  3.19816E-02  1.84047E+01 -1.00000E+00  1.69404E-01
      21    -1     0     0   511   501  0.000000000E+00  0.000000000E+00  2.411968550E+03  2.411968550E+03  0.000000000E+00  0.00000E+00  9.000E+00
      21    -1     0     0   501   502  0.000000000E+00  0.000000000E+00 -2.147489184E+02  2.147489184E+02  0.000000000E+00  0.00000E+00  9.000E+00
      25     1     1     2     0     0 -3.250723800E+01  3.788257222E+02  5.756100462E+01  4.043561766E+02  1.250000000E+02  0.00000E+00  9.000E+00
      25     1     1     2     0     0  2.971028968E+01 -3.606347420E+02  8.462159567E+02  9.287876850E+02  1.250000000E+02  0.00000E+00  9.000E+00
      21     1     1     2   511   502  2.796948321E+00 -1.819098016E+01  1.293442670E+03  1.293573607E+03  3.051757812E-05  0.00000E+00  9.000E+00
#rwgt            1           1   2.9219768927531867E-002           4      177988           0
</event>
<event>
      5   9999  3.19816E-02  2.05886E+02 -1.00000E+00  1.11191E-01
      21    -1     0     0   502   501  0.000000000E+00  0.000000000E+00  5.551864230E+02  5.551864230E+02  0.000000000E+00  0.00000E+00  9.000E+00
       2    -1     0     0   501     0  0.000000000E+00  0.000000000E+00 -1.827538348E+03  1.827538348E+03  0.000000000E+00  0.00000E+00  9.000E+00
      25     1     1     2     0     0 -5.463304203E+01  4.125401009E+02  1.825337909E+01  4.348934237E+02  1.250000000E+02  0.00000E+00  9.000E+00
      25     1     1     2     0     0  7.518315060E+01 -6.173983643E+02  6.558610628E+00  6.344298714E+02  1.250000000E+02  0.00000E+00  9.000E+00
       2     1     1     2   502     0 -2.055010857E+01  2.048582633E+02 -1.297163915E+03  1.313401476E+03  2.157918644E-05  0.00000E+00  9.000E+00
#rwgt            1           1   3.2222818687078193E-002           4      178177           0
</event>
<event>
      5   9999  3.19816E-02  1.11778E+02 -1.00000E+00  1.21691E-01
      21    -1     0     0   511   501  0.000000000E+00  0.000000000E+00  2.667537590E+02  2.667537590E+02  0.000000000E+00  0.00000E+00  9.000E+00
      21    -1     0     0   501   502  0.000000000E+00  0.000000000E+00 -2.330722989E+03  2.330722989E+03  0.000000000E+00  0.00000E+00  9.000E+00
      25     1     1     2     0     0 -6.911646830E+02 -1.362822660E+02 -5.905127836E+02  9.276916636E+02  1.250000000E+02  0.00000E+00  9.000E+00
      25     1     1     2     0     0  6.529543511E+02  3.123788185E+01 -1.336164101E+03  1.492744015E+03  1.250000000E+02  0.00000E+00  9.000E+00
      21     1     1     2   511   502  3.821033191E+01  1.050443841E+02 -1.372923454E+02  1.770410693E+02  1.907348633E-06  0.00000E+00  9.000E+00
#rwgt            1           1   3.4482963865458363E-002           4      178222           0
</event>
<event>
      5   9999  3.19816E-02  1.43987E+02 -1.00000E+00  1.17102E-01
       2    -1     0     0   502     0  0.000000000E+00  0.000000000E+00  2.517303330E+03  2.517303330E+03  0.000000000E+00  0.00000E+00  9.000E+00
      21    -1     0     0   501   502  0.000000000E+00  0.000000000E+00 -9.832998209E+01  9.832998209E+01  0.000000000E+00  0.00000E+00  9.000E+00
      25     1     1     2     0     0  2.536808840E+01  1.179122415E+02  6.925758718E+02  7.140260323E+02  1.250000000E+02  0.00000E+00  9.000E+00
      25     1     1     2     0     0 -2.648246813E+01 -2.618945472E+02  1.675759345E+02  3.361499201E+02  1.250000000E+02  0.00000E+00  9.000E+00
       2     1     1     2   501     0  1.114379732E+00  1.439823057E+02  1.558821542E+03  1.565457360E+03  2.157918644E-05  0.00000E+00  9.000E+00
#rwgt            1           1   2.9257544621241693E-002           4      178273           0
</event>
<event>
      5   9999  3.19816E-02  1.89216E+01 -1.00000E+00  1.68380E-01
      21    -1     0     0   502   511  0.000000000E+00  0.000000000E+00  1.377896525E+03  1.377896525E+03  0.000000000E+00  0.00000E+00  9.000E+00
      21    -1     0     0   501   502  0.000000000E+00  0.000000000E+00 -5.068010622E+01  5.068010622E+01  0.000000000E+00  0.00000E+00  9.000E+00
      25     1     1     2     0     0 -1.544358629E+02 -1.017334498E+02  4.265781469E+02  4.814499412E+02  1.250000000E+02  0.00000E+00  9.000E+00
      25     1     1     2     0     0  1.729068748E+02  9.762851398E+01  5.762552449E+02  6.221922704E+02  1.250000000E+02  0.00000E+00  9.000E+00
      21     1     1     2   501   511 -1.847101194E+01  4.104935836E+00  3.243830272E+02  3.249344197E+02  0.000000000E+00  0.00000E+00  9.000E+00
#rwgt            1           1   3.0689194784574585E-002           4      178339           0
</event>
<event>
      5   9999  3.19816E-02  1.26250E+02 -1.00000E+00  1.19440E-01
      21    -1     0     0   502   501  0.000000000E+00  0.000000000E+00  3.068225440E+02  3.068225440E+02  0.000000000E+00  0.00000E+00  9.000E+00
      21    -1     0     0   501   512  0.000000000E+00  0.000000000E+00 -2.452746975E+02  2.452746975E+02  0.000000000E+00  0.00000E+00  9.000E+00
      25     1     1     2     0     0  3.974160060E+01 -1.782696442E+02 -3.426617992E+01  2.239612286E+02  1.250000000E+02  0.00000E+00  9.000E+00
      25     1     1     2     0     0 -7.098158894E+00  5.631271775E+01  1.383595063E+02  1.949098741E+02  1.250000000E+02  0.00000E+00  9.000E+00
      21     1     1     2   502   512 -3.264344171E+01  1.219569264E+02 -4.254547997E+01  1.332261388E+02  2.023048729E-06  0.00000E+00  9.000E+00
#rwgt            1           1   2.5187657857763252E-002           4      178522           0
</event>
<event>
      5   9999  3.19816E-02  1.11027E+02 -1.00000E+00  1.21819E-01
      21    -1     0     0   511   501  0.000000000E+00  0.000000000E+00  1.507560776E+03  1.507560776E+03  0.000000000E+00  0.00000E+00  9.000E+00
      21    -1     0     0   501   502  0.000000000E+00  0.000000000E+00 -2.719439741E+02  2.719439741E+02  0.000000000E+00  0.00000E+00  9.000E+00
      25     1     1     2     0     0 -1.422459029E+02  4.972759471E+02  5.362019950E+02  7.554169999E+02  1.250000000E+02  0.00000E+00  9.000E+00
      25     1     1     2     0     0  2.246890486E+02 -5.716411885E+02  5.264556229E+02  8.185593075E+02  1.250000000E+02  0.00000E+00  9.000E+00
      21     1     1     2   511   502 -8.244314569E+01  7.436524143E+01  1.729591838E+02  2.055284425E+02  2.697398305E-06  0.00000E+00  9.000E+00
#rwgt            1           1   2.7209042503083002E-002           4      178552           0
</event>
<event>
      5   9999  3.19816E-02  2.40762E+01 -1.00000E+00  1.59986E-01
      21    -1     0     0   512   501  0.000000000E+00  0.000000000E+00  8.669058598E+02  8.669058598E+02  0.000000000E+00  0.00000E+00  9.000E+00
      21    -1     0     0   501   502  0.000000000E+00  0.000000000E+00 -1.029111483E+02  1.029111483E+02  0.000000000E+00  0.00000E+00  9.000E+00
      25     1     1     2     0     0 -2.225020631E+02  1.083016152E+02  3.514704086E+02  4.476526064E+02  1.250000000E+02  0.00000E+00  9.000E+00
      25     1     1     2     0     0  2.069375466E+02 -8.993294095E+01  2.546594636E+02  3.624741707E+02  1.250000000E+02  0.00000E+00  9.000E+00
      21     1     1     2   512   502  1.556451646E+01 -1.836867421E+01  1.578648393E+02  1.596902310E+02  2.697398305E-06  0.00000E+00  9.000E+00
#rwgt            1           1   2.7414726569314405E-002           4      178652           0
</event>
<event>
      5   9999  3.19816E-02  2.40648E+02 -1.00000E+00  1.08799E-01
      21    -1     0     0   511   501  0.000000000E+00  0.000000000E+00  2.226628318E+02  2.226628318E+02  0.000000000E+00  0.00000E+00  9.000E+00
      21    -1     0     0   501   502  0.000000000E+00  0.000000000E+00 -9.106521023E+02  9.106521023E+02  0.000000000E+00  0.00000E+00  9.000E+00
      25     1     1     2     0     0  1.290166103E+02  1.314476091E+02 -1.985063206E+02  2.982507653E+02  1.250000000E+02  0.00000E+00  9.000E+00
      25     1     1     2     0     0 -2.118818260E+02 -3.573784886E+02 -3.455619215E+02  5.546632617E+02  1.250000000E+02  0.00000E+00  9.000E+00
      21     1     1     2   511   502  8.286521564E+01  2.259308796E+02 -1.439210284E+02  2.804009071E+02  0.000000000E+00  0.00000E+00  9.000E+00
#rwgt            2          11   3.5049871985484652E-003           4      178944           0
</event>
<event>
      5   9999  3.19816E-02  4.17071E+02 -1.00000E+00  1.01142E-01
      21    -1     0     0   502   501  0.000000000E+00  0.000000000E+00  9.667543512E+02  9.667543512E+02  0.000000000E+00  0.00000E+00  9.000E+00
      21    -1     0     0   501   512  0.000000000E+00  0.000000000E+00 -4.274696800E+02  4.274696800E+02  0.000000000E+00  0.00000E+00  9.000E+00
      25     1     1     2     0     0  1.983544016E+02 -1.269678234E+02  7.604517448E+01  2.772601042E+02  1.250000000E+02  0.00000E+00  9.000E+00
      25     1     1     2     0     0  1.771088175E+01  4.837090444E+02  4.887212892E+02  6.991148786E+02  1.250000000E+02  0.00000E+00  9.000E+00
      21     1     1     2   502   512 -2.160652834E+02 -3.567412210E+02 -2.548179249E+01  4.178490483E+02  2.023048729E-06  0.00000E+00  9.000E+00
#rwgt            2          11   3.3164484883364213E-003           4      178964           0
</event>
<event>
      5   9999  3.19816E-02  1.95093E+02 -1.00000E+00  1.12042E-01
      21    -1     0     0   502   501  0.000000000E+00  0.000000000E+00  6.004929530E+02  6.004929530E+02  0.000000000E+00  0.00000E+00  9.000E+00
      21    -1     0     0   511   502  0.000000000E+00  0.000000000E+00 -4.328237289E+02  4.328237289E+02  0.000000000E+00  0.00000E+00  9.000E+00
      25     1     1     2     0     0  4.037173489E+01 -1.062465365E+02 -2.044189824E+00  1.689597059E+02  1.250000000E+02  0.00000E+00  9.000E+00
      25     1     1     2     0     0  1.399414219E+01  2.936111432E+02  4.321280903E+02  5.373667517E+02  1.250000000E+02  0.00000E+00  9.000E+00
      21     1     1     2   511   501 -5.436587707E+01 -1.873646067E+02 -2.624146764E+02  3.269902243E+02  6.607249480E-06  0.00000E+00  9.000E+00
#rwgt            1           1   2.7631039910818150E-002           4      178984           0
</event>
<event>
      5   9999  3.19816E-02  6.58904E+01 -1.00000E+00  1.32565E-01
      21    -1     0     0   512   501  0.000000000E+00  0.000000000E+00  2.875837429E+01  2.875837429E+01  0.000000000E+00  0.00000E+00  9.000E+00
      21    -1     0     0   501   502  0.000000000E+00  0.000000000E+00 -2.271375833E+03  2.271375833E+03  0.000000000E+00  0.00000E+00  9.000E+00
      25     1     1     2     0     0  9.905939372E+01  5.683394217E+00 -3.549549903E+02  3.891826173E+02  1.250000000E+02  0.00000E+00  9.000E+00
      25     1     1     2     0     0 -1.019230897E+02 -7.151155060E+01 -1.743978647E+03  1.752880127E+03  1.250000000E+02  0.00000E+00  9.000E+00
      21     1     1     2   512   502  2.863695958E+00  6.582815638E+01 -1.436838217E+02  1.580714634E+02  3.814697266E-06  0.00000E+00  9.000E+00
#rwgt            1           1   6.8569752570943512E-002           4      179014           0
</event>
<event>
      5   9999  3.19816E-02  6.29929E+01 -1.00000E+00  1.33583E-01
      21    -1     0     0   502   501  0.000000000E+00  0.000000000E+00  4.684494030E+02  4.684494030E+02  0.000000000E+00  0.00000E+00  9.000E+00
      21    -1     0     0   511   502  0.000000000E+00  0.000000000E+00 -7.920231086E+02  7.920231086E+02  0.000000000E+00  0.00000E+00  9.000E+00
      25     1     1     2     0     0 -4.665666226E+02 -2.394060442E+00  1.189193186E+02  4.974504490E+02  1.250000000E+02  0.00000E+00  9.000E+00
      25     1     1     2     0     0  4.782348187E+02 -5.950873174E+01 -2.433638119E+02  5.541667402E+02  1.250000000E+02  0.00000E+00  9.000E+00
      21     1     1     2   511   501 -1.166819608E+01  6.190279218E+01 -1.991292124E+02  2.088553224E+02  2.697398305E-06  0.00000E+00  9.000E+00
#rwgt            1           1   3.2727500863515738E-002           4      179084           0
</event>
<event>
      5   9999  3.19816E-02  2.60072E+01 -1.00000E+00  1.57477E-01
      21    -1     0     0   502   501  0.000000000E+00  0.000000000E+00  2.058374950E+03  2.058374950E+03  0.000000000E+00  0.00000E+00  9.000E+00
      -3    -1     0     0     0   502  0.000000000E+00  0.000000000E+00 -4.364490863E+01  4.364490863E+01  0.000000000E+00  0.00000E+00  9.000E+00
      25     1     1     2     0     0  1.213349805E+02 -2.228564686E+01  1.157690134E+03  1.170935640E+03  1.250000000E+02  0.00000E+00  9.000E+00
      25     1     1     2     0     0 -1.297416473E+02 -2.325399738E+00  8.788581184E+02  8.971370546E+02  1.250000000E+02  0.00000E+00  9.000E+00
      -3     1     1     2     0   501  8.406666749E+00  2.461104660E+01 -2.181821035E+01  3.394716430E+01  2.622604370E-06  0.00000E+00  9.000E+00
#rwgt            1           1   8.5009310447996089E-002           4      179172           0
</event>
<event>
      5   9999  3.19816E-02  1.48054E+02 -1.00000E+00  1.16619E-01
      21    -1     0     0   511   501  0.000000000E+00  0.000000000E+00  8.681517154E+02  8.681517154E+02  0.000000000E+00  0.00000E+00  9.000E+00
      21    -1     0     0   501   502  0.000000000E+00  0.000000000E+00 -4.515768358E+02  4.515768358E+02  0.000000000E+00  0.00000E+00  9.000E+00
      25     1     1     2     0     0  2.539533649E+02  1.417627003E+02 -3.075970606E+02  4.413954309E+02  1.250000000E+02  0.00000E+00  9.000E+00
      25     1     1     2     0     0 -1.779127635E+02 -2.687973489E+02  5.511558293E+02  6.506171796E+02  1.250000000E+02  0.00000E+00  9.000E+00
      21     1     1     2   511   502 -7.604060140E+01  1.270346486E+02  1.730161109E+02  2.277159407E+02  3.814697266E-06  0.00000E+00  9.000E+00
#rwgt            1           1   2.9903960144700696E-002           4      179262           0
</event>
<event>
      5   9999  3.19816E-02  1.68879E+02 -1.00000E+00  1.14389E-01
      21    -1     0     0   502   501  0.000000000E+00  0.000000000E+00  1.421434086E+03  1.421434086E+03  0.000000000E+00  0.00000E+00  9.000E+00
      21    -1     0     0   512   502  0.000000000E+00  0.000000000E+00 -1.478200084E+02  1.478200084E+02  0.000000000E+00  0.00000E+00  9.000E+00
      25     1     1     2     0     0 -2.467198989E+02 -1.635340904E+02  3.594315771E+02  4.821101179E+02  1.250000000E+02  0.00000E+00  9.000E+00
      25     1     1     2     0     0  3.892792672E+02  7.299646774E+01  7.057016356E+02  8.188446927E+02  1.250000000E+02  0.00000E+00  9.000E+00
      21     1     1     2   512   501 -1.425593683E+02  9.053762270E+01  2.084808646E+02  2.682992835E+02  5.394796609E-06  0.00000E+00  9.000E+00
#rwgt            1           1   2.6535080505435883E-002           4      179316           0
</event>
<event>
      5   9999  3.19816E-02  6.04470E+01 -1.00000E+00  1.34531E-01
      21    -1     0     0   502   501  0.000000000E+00  0.000000000E+00  2.200642601E+03  2.200642601E+03  0.000000000E+00  0.00000E+00  9.000E+00
      21    -1     0     0   511   502  0.000000000E+00  0.000000000E+00 -4.202915780E+01  4.202915780E+01  0.000000000E+00  0.00000E+00  9.000E+00
      25     1     1     2     0     0 -1.382224178E+02 -5.238006103E+01  2.941537241E+02  3.521370770E+02  1.250000000E+02  0.00000E+00  9.000E+00
      25     1     1     2     0     0  9.156442178E+01  1.394996908E+01  1.779379044E+03  1.786167245E+03  1.250000000E+02  0.00000E+00  9.000E+00
      21     1     1     2   511   501  4.665799600E+01  3.843009195E+01  8.508067418E+01  1.043674359E+02  1.651812370E-06  0.00000E+00  9.000E+00
#rwgt            1           1   8.1490382954617427E-002           4      179348           0
</event>
<event>
      5   9999  3.19816E-02  1.30533E+02 -1.00000E+00  1.18838E-01
      21    -1     0     0   502   512  0.000000000E+00  0.000000000E+00  2.142214694E+03  2.142214694E+03  0.000000000E+00  0.00000E+00  9.000E+00
      21    -1     0     0   501   502  0.000000000E+00  0.000000000E+00 -1.457502717E+02  1.457502717E+02  0.000000000E+00  0.00000E+00  9.000E+00
      25     1     1     2     0     0  3.262893569E+02 -2.305298980E+02  3.588143324E+02  5.513451763E+02  1.250000000E+02  0.00000E+00  9.000E+00
      25     1     1     2     0     0 -4.044152466E+02  1.259584509E+02  1.357940583E+03  1.427951277E+03  1.250000000E+02  0.00000E+00  9.000E+00
      21     1     1     2   501   512  7.812588965E+01  1.045714471E+02  2.797095070E+02  3.086685123E+02  5.394796609E-06  0.00000E+00  9.000E+00
#rwgt            1           1   2.7714470243240290E-002           4      179385           0
</event>
<event>
      5   9999  3.19816E-02  2.98524E+01 -1.00000E+00  1.53189E-01
      21    -1     0     0   502   511  0.000000000E+00  0.000000000E+00  1.862124100E+02  1.862124100E+02  0.000000000E+00  0.00000E+00  9.000E+00
      21    -1     0     0   501   502  0.000000000E+00  0.000000000E+00 -1.788080848E+02  1.788080848E+02  0.000000000E+00  0.00000E+00  9.000E+00
      25     1     1     2     0     0  7.626332778E+01  1.072648046E+01  5.668212430E+01  1.573817517E+02  1.250000000E+02  0.00000E+00  9.000E+00
      25     1     1     2     0     0 -6.849216950E+01  1.809667230E+01 -8.029190985E+01  1.645917909E+02  1.250000000E+02  0.00000E+00  9.000E+00
      21     1     1     2   501   511 -7.771158277E+00 -2.882315277E+01  3.101411070E+01  4.304695226E+01  0.000000000E+00  0.00000E+00  9.000E+00
#rwgt            1           1   2.3522670497289420E-002           4      179449           0
</event>
<event>
      5   9999  3.19816E-02  9.56249E+01 -1.00000E+00  1.24708E-01
       2    -1     0     0   502     0  0.000000000E+00  0.000000000E+00  1.444056850E+03  1.444056850E+03  0.000000000E+00  0.00000E+00  9.000E+00
      21    -1     0     0   501   502  0.000000000E+00  0.000000000E+00 -5.899352975E+01  5.899352975E+01  0.000000000E+00  0.00000E+00  9.000E+00
      25     1     1     2     0     0  1.320592227E+02 -1.348305218E+02  3.722609041E+02  4.356857682E+02  1.250000000E+02  0.00000E+00  9.000E+00
      25     1     1     2     0     0 -3.714837068E+01  1.464948767E+02  3.825145459E+02  4.298640811E+02  1.250000000E+02  0.00000E+00  9.000E+00
       2     1     1     2   501     0 -9.491085203E+01 -1.166435488E+01  6.302878700E+02  6.375005303E+02  1.321449896E-05  0.00000E+00  9.000E+00
#rwgt            1           1   2.9595151734367126E-002           4      179543           0
</event>
<event>
      5   9999  3.19816E-02  1.44185E+01 -1.00000E+00  1.79017E-01
      21    -1     0     0   511   501  0.000000000E+00  0.000000000E+00  4.769988365E+02  4.769988365E+02  0.000000000E+00  0.00000E+00  9.000E+00
      21    -1     0     0   501   502  0.000000000E+00  0.000000000E+00 -6.666917309E+02  6.666917309E+02  0.000000000E+00  0.00000E+00  9.000E+00
      25     1     1     2     0     0 -3.076911590E+02  2.425768585E+02 -1.004085290E+02  4.233488565E+02  1.250000000E+02  0.00000E+00  9.000E+00
      25     1     1     2     0     0  3.029800341E+02 -2.289497038E+02 -3.058026041E+02  5.033439188E+02  1.250000000E+02  0.00000E+00  9.000E+00
      21     1     1     2   511   502  4.711124981E+00 -1.362715474E+01  2.165182387E+02  2.169977920E+02  0.000000000E+00  0.00000E+00  9.000E+00
#rwgt            1           1   3.0039921639884774E-002           4      179586           0
</event>
<event>
      5   9999  3.19816E-02  3.21733E+02 -1.00000E+00  1.04614E-01
      21    -1     0     0   502   512  0.000000000E+00  0.000000000E+00  4.781553828E+02  4.781553828E+02  0.000000000E+00  0.00000E+00  9.000E+00
      21    -1     0     0   501   502  0.000000000E+00  0.000000000E+00 -1.324645031E+03  1.324645031E+03  0.000000000E+00  0.00000E+00  9.000E+00
      25     1     1     2     0     0 -1.726749661E+02 -5.859990753E+02 -8.847277300E+01  6.298126640E+02  1.250000000E+02  0.00000E+00  9.000E+00
      25     1     1     2     0     0  3.293816352E+02  3.050095974E+02 -7.077038492E+02  8.473445901E+02  1.250000000E+02  0.00000E+00  9.000E+00
      21     1     1     2   501   512 -1.567066691E+02  2.809894779E+02 -5.031302574E+01  3.256431596E+02  1.348699152E-06  0.00000E+00  9.000E+00
#rwgt            1           1   3.1397771144662898E-002           4      179842           0
</event>
<event>
      5   9999  3.19816E-02  1.19507E+02 -1.00000E+00  1.20444E-01
      21    -1     0     0   511   501  0.000000000E+00  0.000000000E+00  3.168003187E+03  3.168003187E+03  0.000000000E+00  0.00000E+00  9.000E+00
      21    -1     0     0   501   502  0.000000000E+00  0.000000000E+00 -1.749879419E+02  1.749879419E+02  0.000000000E+00  0.00000E+00  9.000E+00
      25     1     1     2     0     0 -1.104920542E+02 -3.440533491E+02  1.218013239E+02  4.013000916E+02  1.250000000E+02  0.00000E+00  9.000E+00
      25     1     1     2     0     0  3.781727256E+01  4.389232167E+02  1.581901214E+03  1.646851598E+03  1.250000000E+02  0.00000E+00  9.000E+00
      21     1     1     2   511   502  7.267478163E+01 -9.486986762E+01  1.289312707E+03  1.294839439E+03  2.642899792E-05  0.00000E+00  9.000E+00
#rwgt            1           1   2.5581294937818754E-002           4      179892           0
</event>
<event>
      5   9999  3.19816E-02  1.12379E+02 -1.00000E+00  1.21590E-01
      21    -1     0     0   502   512  0.000000000E+00  0.000000000E+00  3.956784619E+02  3.956784619E+02  0.000000000E+00  0.00000E+00  9.000E+00
      21    -1     0     0   501   502  0.000000000E+00  0.000000000E+00 -3.969635316E+02  3.969635316E+02  0.000000000E+00  0.00000E+00  9.000E+00
      25     1     1     2     0     0  1.502839388E+02 -1.766696001E+02 -2.317869506E+02  3.509239239E+02  1.250000000E+02  0.00000E+00  9.000E+00
      25     1     1     2     0     0 -2.098261009E+02  8.136033428E+01  1.978886923E+02  3.247020652E+02  1.250000000E+02  0.00000E+00  9.000E+00
      21     1     1     2   501   512  5.954216206E+01  9.530926584E+01  3.261318868E+01  1.170160044E+02  9.536743164E-07  0.00000E+00  9.000E+00
#rwgt            1           1   2.7753942321312033E-002           4      179960           0
</event>
<event>
      5   9999  3.19816E-02  1.40116E+02 -1.00000E+00  1.17579E-01
      21    -1     0     0   502   511  0.000000000E+00  0.000000000E+00  2.588019966E+02  2.588019966E+02  0.000000000E+00  0.00000E+00  9.000E+00
      21    -1     0     0   501   502  0.000000000E+00  0.000000000E+00 -9.659560508E+02  9.659560508E+02  0.000000000E+00  0.00000E+00  9.000E+00
      25     1     1     2     0     0  6.455171153E+01  4.996775836E+01  1.463374374E+02  2.090534523E+02  1.250000000E+02  0.00000E+00  9.000E+00
      25     1     1     2     0     0 -1.834117226E+02 -1.241626692E+02 -8.368037082E+02  8.745980073E+02  1.250000000E+02  0.00000E+00  9.000E+00
      21     1     1     2   501   511  1.188600110E+02  7.419491083E+01 -1.668778350E+01  1.411065878E+02  1.118282261E-06  0.00000E+00  9.000E+00
#rwgt            1           1   2.3540891047797038E-002           4      180076           0
</event>
<event>
      5   9999  3.19816E-02  5.84293E+01 -1.00000E+00  1.35322E-01
      21    -1     0     0   512   501  0.000000000E+00  0.000000000E+00  1.276140221E+02  1.276140221E+02  0.000000000E+00  0.00000E+00  9.000E+00
      21    -1     0     0   501   502  0.000000000E+00  0.000000000E+00 -8.116407101E+02  8.116407101E+02  0.000000000E+00  0.00000E+00  9.000E+00
      25     1     1     2     0     0  1.285419705E+02  2.087217203E+02 -5.716448186E+02  6.344214635E+02  1.250000000E+02  0.00000E+00  9.000E+00
      25     1     1     2     0     0 -1.020284347E+02 -1.566542684E+02 -9.132699374E+01  2.427261442E+02  1.250000000E+02  0.00000E+00  9.000E+00
      21     1     1     2   512   502 -2.651353587E+01 -5.206745192E+01 -2.105487572E+01  6.210712459E+01  1.261592536E-06  0.00000E+00  9.000E+00
#rwgt            1           1   2.9525047390648297E-002           4      180177           0
</event>
<event>
      5   9999  3.19816E-02  5.48645E+01 -1.00000E+00  1.36813E-01
      21    -1     0     0   502   501  0.000000000E+00  0.000000000E+00  5.317106267E+02  5.317106267E+02  0.000000000E+00  0.00000E+00  9.000E+00
      21    -1     0     0   511   502  0.000000000E+00  0.000000000E+00 -3.395835913E+02  3.395835913E+02  0.000000000E+00  0.00000E+00  9.000E+00
      25     1     1     2     0     0 -1.767333644E+02  1.606084086E+02  9.026015984E+01  2.842562919E+02  1.250000000E+02  0.00000E+00  9.000E+00
      25     1     1     2     0     0  1.344645982E+02 -1.955864929E+02  2.876504751E+02  3.933225142E+02  1.250000000E+02  0.00000E+00  9.000E+00
      21     1     1     2   511   501  4.226876616E+01  3.497808423E+01 -1.857835995E+02  1.937154119E+02  2.697398305E-06  0.00000E+00  9.000E+00
#rwgt            1           1   2.8461027784711608E-002           4      180262           0
</event>
<event>
      5   9999  3.19816E-02  6.46368E+01 -1.00000E+00  1.32998E-01
      21    -1     0     0   502   501  0.000000000E+00  0.000000000E+00  1.604715353E+03  1.604715353E+03  0.000000000E+00  0.00000E+00  9.000E+00
       2    -1     0     0   501     0  0.000000000E+00  0.000000000E+00 -2.846645637E+03  2.846645637E+03  0.000000000E+00  0.00000E+00  9.000E+00
      25     1     1     2     0     0  2.054680927E+02 -5.067804007E+02  1.109312049E+02  5.718166173E+02  1.250000000E+02  0.00000E+00  9.000E+00
      25     1     1     2     0     0 -2.699718278E+02  5.026355086E+02  1.195399818E+03  1.330463440E+03  1.250000000E+02  0.00000E+00  9.000E+00
       2     1     1     2   502     0  6.450373517E+01  4.144892070E+00 -2.548261307E+03  2.549080932E+03  0.000000000E+00  0.00000E+00  9.000E+00
#rwgt            1           1   2.9443696399067729E-002           4      180352           0
</event>
<event>
      5   9999  3.19816E-02  3.50354E+01 -1.00000E+00  1.48502E-01
       5    -1     0     0   502     0  0.000000000E+00  0.000000000E+00  2.849733330E+02  2.849733330E+02  0.000000000E+00  0.00000E+00  9.000E+00
      21    -1     0     0   501   502  0.000000000E+00  0.000000000E+00 -6.163260814E+02  6.163260814E+02  0.000000000E+00  0.00000E+00  9.000E+00
      25     1     1     2     0     0  1.131737033E+02  2.204510670E+01 -5.376556869E+02  5.639086021E+02  1.250000000E+02  0.00000E+00  9.000E+00
      25     1     1     2     0     0 -1.474293463E+02 -2.939549379E+01  8.871994383E+01  2.146991748E+02  1.250000000E+02  0.00000E+00  9.000E+00
       5     1     1     2   501     0  3.425564303E+01  7.350387087E+00  1.175829948E+02  1.226916376E+02  1.348699152E-06  0.00000E+00  9.000E+00
#rwgt            1           1   2.6060492863640948E-002           4      180449           0
</event>
<event>
      5   9999  3.19816E-02  1.44699E+02 -1.00000E+00  1.17016E-01
      21    -1     0     0   502   501  0.000000000E+00  0.000000000E+00  1.017499489E+03  1.017499489E+03  0.000000000E+00  0.00000E+00  9.000E+00
      21    -1     0     0   501   511  0.000000000E+00  0.000000000E+00 -2.241020435E+02  2.241020435E+02  0.000000000E+00  0.00000E+00  9.000E+00
      25     1     1     2     0     0 -3.215895810E+02  2.135837383E+01  3.665097148E+02  5.038158491E+02  1.250000000E+02  0.00000E+00  9.000E+00
      25     1     1     2     0     0  2.223562310E+02 -1.266695528E+02  5.001827494E+02  5.755825327E+02  1.250000000E+02  0.00000E+00  9.000E+00
      21     1     1     2   502   511  9.923335003E+01  1.053111790E+02 -7.329501908E+01  1.622031504E+02  2.861022949E-06  0.00000E+00  9.000E+00
#rwgt            1           1   2.6980715051942623E-002           4      180575           0
</event>
<event>
      5   9999  3.19816E-02  8.55865E+01 -1.00000E+00  1.26946E-01
      21    -1     0     0   502   501  0.000000000E+00  0.000000000E+00  8.871756937E+02  8.871756937E+02  0.000000000E+00  0.00000E+00  9.000E+00
      -3    -1     0     0     0   502  0.000000000E+00  0.000000000E+00 -6.637215551E+02  6.637215551E+02  0.000000000E+00  0.00000E+00  9.000E+00
      25     1     1     2     0     0  4.558333629E+02  3.179861468E+02  1.785860816E+02  5.970068951E+02  1.250000000E+02  0.00000E+00  9.000E+00
      25     1     1     2     0     0 -4.039409994E+02 -3.860466374E+02  3.267958564E+02  6.592578168E+02  1.250000000E+02  0.00000E+00  9.000E+00
      -3     1     1     2     0   501 -5.189236352E+01  6.806049063E+01 -2.819277993E+02  2.946325369E+02  6.607249480E-06  0.00000E+00  9.000E+00
#rwgt            1           1   2.3913313331017667E-002           4      180607           0
</event>
<event>
      5   9999  3.19816E-02  1.29576E+01 -1.00000E+00  1.83589E-01
      21    -1     0     0   502   501  0.000000000E+00  0.000000000E+00  4.689861891E+02  4.689861891E+02  0.000000000E+00  0.00000E+00  9.000E+00
      21    -1     0     0   501   511  0.000000000E+00  0.000000000E+00 -3.088364630E+02  3.088364630E+02  0.000000000E+00  0.00000E+00  9.000E+00
      25     1     1     2     0     0 -1.170664935E+02 -2.595195041E+02  2.832191209E+02  4.205865040E+02  1.250000000E+02  0.00000E+00  9.000E+00
      25     1     1     2     0     0  1.189425361E+02  2.723406209E+02 -1.177729614E+02  3.432378346E+02  1.250000000E+02  0.00000E+00  9.000E+00
      21     1     1     2   502   511 -1.876042601E+00 -1.282111681E+01 -5.296433503E+00  1.399831347E+01  2.858538343E-07  0.00000E+00  9.000E+00
#rwgt            1           1   2.4367849120250661E-002           4      180712           0
</event>
<event>
      5   9999  3.19816E-02  9.52994E+01 -1.00000E+00  1.24776E-01
      21    -1     0     0   502   501  0.000000000E+00  0.000000000E+00  1.983857599E+02  1.983857599E+02  0.000000000E+00  0.00000E+00  9.000E+00
      21    -1     0     0   501   512  0.000000000E+00  0.000000000E+00 -5.875853811E+02  5.875853811E+02  0.000000000E+00  0.00000E+00  9.000E+00
      25     1     1     2     0     0  3.978795780E+01  8.137315566E+01 -5.308719002E+01  1.632419119E+02  1.250000000E+02  0.00000E+00  9.000E+00
      25     1     1     2     0     0 -2.246230899E+01 -1.750844417E+02  5.252119782E+01  2.225816553E+02  1.250000000E+02  0.00000E+00  9.000E+00
      21     1     1     2   502   512 -1.732564880E+01  9.371128607E+01 -3.886336290E+02  4.001475738E+02  5.394796609E-06  0.00000E+00  9.000E+00
#rwgt            1           1   2.8173214994617321E-002           4      180897           0
</event>
<event>
      5   9999  3.19816E-02  7.10317E+00 -1.00000E+00  2.14660E-01
      21    -1     0     0   502   511  0.000000000E+00  0.000000000E+00  1.795617446E+02  1.795617446E+02  0.000000000E+00  0.00000E+00  9.000E+00
      21    -1     0     0   501   502  0.000000000E+00  0.000000000E+00 -8.314558127E+02  8.314558127E+02  0.000000000E+00  0.00000E+00  9.000E+00
      25     1     1     2     0     0 -7.167131157E+01 -1.925757122E+02 -6.056805558E+02  6.516871316E+02  1.250000000E+02  0.00000E+00  9.000E+00
      25     1     1     2     0     0  7.754622722E+01  1.885831758E+02 -1.320491341E+02  2.732014007E+02  1.250000000E+02  0.00000E+00  9.000E+00
      21     1     1     2   501   511 -5.874915650E+00  3.992536430E+00  8.583562179E+01  8.612902501E+01  2.861022949E-06  0.00000E+00  9.000E+00
#rwgt            1           1   2.4448702802249499E-002           4      180961           0
</event>
<event>
      5   9999  3.19816E-02  6.42856E+00 -1.00000E+00  2.20917E-01
      21    -1     0     0   512   501  0.000000000E+00  0.000000000E+00  2.325019892E+02  2.325019892E+02  0.000000000E+00  0.00000E+00  9.000E+00
      21    -1     0     0   501   502  0.000000000E+00  0.000000000E+00 -1.011681840E+03  1.011681840E+03  0.000000000E+00  0.00000E+00  9.000E+00
      25     1     1     2     0     0 -1.664988735E+02 -3.154580311E+02 -6.731083362E+02  7.719685722E+02  1.250000000E+02  0.00000E+00  9.000E+00
      25     1     1     2     0     0  1.720922512E+02  3.186267147E+02 -1.619830442E+02  4.159353710E+02  1.250000000E+02  0.00000E+00  9.000E+00
      21     1     1     2   512   502 -5.593377685E+00 -3.168683642E+00  5.591152952E+01  5.627988596E+01  0.000000000E+00  0.00000E+00  9.000E+00
#rwgt            1           1   2.8155192256060634E-002           4      181249           0
</event>
<event>
      5   9999  3.19816E-02  4.75110E+01 -1.00000E+00  1.40353E-01
      21    -1     0     0   502   501  0.000000000E+00  0.000000000E+00  6.757790128E+02  6.757790128E+02  0.000000000E+00  0.00000E+00  9.000E+00
      21    -1     0     0   511   502  0.000000000E+00  0.000000000E+00 -1.317966026E+02  1.317966026E+02  0.000000000E+00  0.00000E+00  9.000E+00
      25     1     1     2     0     0  2.046139544E+02  1.086181016E+02  1.687070999E+02  3.126529192E+02  1.250000000E+02  0.00000E+00  9.000E+00
      25     1     1     2     0     0 -1.723836326E+02 -1.435251751E+02  3.650552069E+02  4.463248780E+02  1.250000000E+02  0.00000E+00  9.000E+00
      21     1     1     2   511   501 -3.223032177E+01  3.490707347E+01  1.022010336E+01  4.859781818E+01  3.953724850E-07  0.00000E+00  9.000E+00
#rwgt            1           1   2.6262192394100436E-002           4      181606           0
</event>
<event>
      5   9999  3.19816E-02  1.90695E+01 -1.00000E+00  1.68095E-01
      21    -1     0     0   502   501  0.000000000E+00  0.000000000E+00  1.460639687E+03  1.460639687E+03  0.000000000E+00  0.00000E+00  9.000E+00
      21    -1     0     0   501   512  0.000000000E+00  0.000000000E+00 -1.812372382E+02  1.812372382E+02  0.000000000E+00  0.00000E+00  9.000E+00
      25     1     1     2     0     0  4.163560227E+02  1.901491433E+02  7.442016341E+02  8.825928317E+02  1.250000000E+02  0.00000E+00  9.000E+00
      25     1     1     2     0     0 -4.344538711E+02 -1.841396701E+02  5.498281435E+02  7.352506862E+02  1.250000000E+02  0.00000E+00  9.000E+00
      21     1     1     2   502   512  1.809784838E+01 -6.009473230E+00 -1.462732916E+01  2.403340681E+01  4.460403188E-07  0.00000E+00  9.000E+00
#rwgt            1           1   3.3976044232271643E-002           4      181765           0
</event>
<event>
      5   9999  3.19816E-02  1.58500E+01 -1.00000E+00  1.75158E-01
      21    -1     0     0   502   501  0.000000000E+00  0.000000000E+00  6.738050611E+02  6.738050611E+02  0.000000000E+00  0.00000E+00  9.000E+00
      21    -1     0     0   501   511  0.000000000E+00  0.000000000E+00 -2.841728873E+02  2.841728873E+02  0.000000000E+00  0.00000E+00  9.000E+00
      25     1     1     2     0     0  1.810682984E+02 -1.968003701E+02  5.269764010E+02  6.040242062E+02  1.250000000E+02  0.00000E+00  9.000E+00
      25     1     1     2     0     0 -1.819564264E+02  2.126255036E+02 -1.167898373E+02  3.279978842E+02  1.250000000E+02  0.00000E+00  9.000E+00
      21     1     1     2   502   511  8.881280144E-01 -1.582513350E+01 -2.055438994E+01  2.595585805E+01  0.000000000E+00  0.00000E+00  9.000E+00
#rwgt            1           1   2.9116588954426512E-002           4      182008           0
</event>
<event>
      5   9999  3.19816E-02  2.63731E+01 -1.00000E+00  1.57031E-01
      21    -1     0     0   502   501  0.000000000E+00  0.000000000E+00  4.029704729E+03  4.029704729E+03  0.000000000E+00  0.00000E+00  9.000E+00
      21    -1     0     0   512   502  0.000000000E+00  0.000000000E+00 -7.707837262E+02  7.707837262E+02  0.000000000E+00  0.00000E+00  9.000E+00
      25     1     1     2     0     0 -1.211992730E+02 -1.467640389E+03  3.664225515E+02  1.522677925E+03  1.250000000E+02  0.00000E+00  9.000E+00
      25     1     1     2     0     0  1.141625907E+02  1.493057424E+03  2.880427790E+03  3.248806369E+03  1.250000000E+02  0.00000E+00  9.000E+00
      21     1     1     2   512   501  7.036682287E+00 -2.541703447E+01  1.207066164E+01  2.900416197E+01  3.371747881E-07  0.00000E+00  9.000E+00
#rwgt            1           1   1.5683685592386538E-002           4      182200           0
</event>
<event>
      5   9999  3.19816E-02  1.09689E+01 -1.00000E+00  1.91226E-01
      21    -1     0     0   502   511  0.000000000E+00  0.000000000E+00  5.544957980E+02  5.544957980E+02  0.000000000E+00  0.00000E+00  9.000E+00
      21    -1     0     0   501   502  0.000000000E+00  0.000000000E+00 -4.479685580E+02  4.479685580E+02  0.000000000E+00  0.00000E+00  9.000E+00
      25     1     1     2     0     0  3.189444545E+01  4.331081005E+02 -2.698292978E+00  4.519205275E+02  1.250000000E+02  0.00000E+00  9.000E+00
      25     1     1     2     0     0 -2.605343787E+01 -4.238237952E+02  1.884951536E+00  4.426442636E+02  1.250000000E+02  0.00000E+00  9.000E+00
      21     1     1     2   501   511 -5.841007580E+00 -9.284305284E+00  1.073405814E+02  1.078995649E+02  0.000000000E+00  0.00000E+00  9.000E+00
#rwgt            1           1   2.8743642754984491E-002           4      182415           0
</event>
<event>
      5   9999  3.19816E-02  1.09051E+02 -1.00000E+00  1.22159E-01
      21    -1     0     0   502   501  0.000000000E+00  0.000000000E+00  2.410545722E+03  2.410545722E+03  0.000000000E+00  0.00000E+00  9.000E+00
      21    -1     0     0   501   512  0.000000000E+00  0.000000000E+00 -9.233396702E+01  9.233396702E+01  0.000000000E+00  0.00000E+00  9.000E+00
      25     1     1     2     0     0  1.120516701E+01 -1.512199313E+02  1.942656236E+03  1.952570428E+03  1.250000000E+02  0.00000E+00  9.000E+00
      25     1     1     2     0     0  6.171917763E+01  2.323017477E+02  1.765104839E+02  3.233485887E+02  1.250000000E+02  0.00000E+00  9.000E+00
      21     1     1     2   502   512 -7.292434464E+01 -8.108181641E+01  1.990450352E+02  2.269606729E+02  3.814697266E-06  0.00000E+00  9.000E+00
#rwgt            1           1   2.7196980074012760E-002           4      182640           0
</event>
<event>
      5   9999  3.19816E-02  8.56304E+02 -1.00000E+00  9.26382E-02
      21    -1     0     0   502   501  0.000000000E+00  0.000000000E+00  2.658854095E+03  2.658854095E+03  0.000000000E+00  0.00000E+00  9.000E+00
      -1    -1     0     0     0   502  0.000000000E+00  0.000000000E+00 -9.663460699E+02  9.663460699E+02  0.000000000E+00  0.00000E+00  9.000E+00
      25     1     1     2     0     0  2.493997908E+02  6.371589788E+02  8.474611111E+02  1.096351748E+03  1.250000000E+02  0.00000E+00  9.000E+00
      25     1     1     2     0     0  2.573655294E+02  5.309105598E+01  1.450961231E+03  1.479854442E+03  1.250000000E+02  0.00000E+00  9.000E+00
      -1     1     1     2     0   501 -5.067653201E+02 -6.902500347E+02 -6.059143171E+02  1.048993975E+03  2.530383904E-05  0.00000E+00  9.000E+00
#rwgt            2          10   2.3385111367377889E-004           4      182937           0
</event>
<event>
      5   9999  3.19816E-02  3.28955E+01 -1.00000E+00  1.50312E-01
      21    -1     0     0   502   511  0.000000000E+00  0.000000000E+00  2.102716074E+02  2.102716074E+02  0.000000000E+00  0.00000E+00  9.000E+00
      21    -1     0     0   501   502  0.000000000E+00  0.000000000E+00 -3.341844061E+02  3.341844061E+02  0.000000000E+00  0.00000E+00  9.000E+00
      25     1     1     2     0     0 -8.745497714E+01 -1.874587882E+02  2.873986632E+01  2.433929954E+02  1.250000000E+02  0.00000E+00  9.000E+00
      25     1     1     2     0     0  5.963825299E+01  1.698990712E+02 -1.544064421E+02  2.681208030E+02  1.250000000E+02  0.00000E+00  9.000E+00
      21     1     1     2   501   511  2.781672415E+01  1.755971695E+01  1.753777190E+00  3.294221510E+01  1.825012075E-07  0.00000E+00  9.000E+00
#rwgt            1           1   3.0415444641098088E-002           4      182956           0
</event>
<event>
      5   9999  3.19816E-02  7.71406E+01 -1.00000E+00  1.29119E-01
      21    -1     0     0   502   501  0.000000000E+00  0.000000000E+00  3.055894835E+02  3.055894835E+02  0.000000000E+00  0.00000E+00  9.000E+00
      21    -1     0     0   501   512  0.000000000E+00  0.000000000E+00 -3.258174729E+02  3.258174729E+02  0.000000000E+00  0.00000E+00  9.000E+00
      25     1     1     2     0     0  4.355858275E+01  3.736278780E+00  2.392272906E+02  2.734337332E+02  1.250000000E+02  0.00000E+00  9.000E+00
      25     1     1     2     0     0  3.173256174E+01 -2.052670243E+01 -2.476000739E+02  2.799269505E+02  1.250000000E+02  0.00000E+00  9.000E+00
      21     1     1     2   502   512 -7.529114450E+01  1.679042365E+01 -1.185520604E+01  7.804627266E+01  1.625797951E-06  0.00000E+00  9.000E+00
#rwgt            1           1   3.0748122179932079E-002           4      183118           0
</event>
<event>
      5   9999  3.19816E-02  2.74639E+02 -1.00000E+00  1.06854E-01
      21    -1     0     0   502   501  0.000000000E+00  0.000000000E+00  4.305402715E+02  4.305402715E+02  0.000000000E+00  0.00000E+00  9.000E+00
       1    -1     0     0   501     0  0.000000000E+00  0.000000000E+00 -1.425843619E+03  1.425843619E+03  0.000000000E+00  0.00000E+00  9.000E+00
      25     1     1     2     0     0  3.439332105E+02 -4.556042034E+02 -4.088858364E+02  7.132165665E+02  1.250000000E+02  0.00000E+00  9.000E+00
      25     1     1     2     0     0 -1.000267903E+02  3.293653890E+02  1.198942974E+02  3.853395396E+02  1.250000000E+02  0.00000E+00  9.000E+00
       1     1     1     2   502     0 -2.439064202E+02  1.262388144E+02 -7.063118082E+02  7.578277842E+02  1.525878906E-05  0.00000E+00  9.000E+00
#rwgt            2          12   5.6117306731073326E-004           4      183168           0
</event>
<event>
      5   9999  3.19816E-02  3.90535E+01 -1.00000E+00  1.45488E-01
      21    -1     0     0   502   511  0.000000000E+00  0.000000000E+00  3.458486549E+01  3.458486549E+01  0.000000000E+00  0.00000E+00  9.000E+00
      21    -1     0     0   501   502  0.000000000E+00  0.000000000E+00 -1.471657895E+03  1.471657895E+03  0.000000000E+00  0.00000E+00  9.000E+00
      25     1     1     2     0     0 -5.708030638E+00 -9.855103161E+01 -1.080702931E+03  1.092377550E+03  1.250000000E+02  0.00000E+00  9.000E+00
      25     1     1     2     0     0  4.401982012E+01  1.061261881E+02 -3.080220243E+02  3.517144862E+02  1.250000000E+02  0.00000E+00  9.000E+00
      21     1     1     2   501   511 -3.831178948E+01 -7.575156534E+00 -4.834807453E+01  6.215072422E+01  9.536743164E-07  0.00000E+00  9.000E+00
#rwgt            1           1   3.2957460214445948E-002           4      183187           0
</event>
<event>
      5   9999  3.19816E-02  4.99465E+01 -1.00000E+00  1.39102E-01
      21    -1     0     0   502   501  0.000000000E+00  0.000000000E+00  1.220918949E+03  1.220918949E+03  0.000000000E+00  0.00000E+00  9.000E+00
      21    -1     0     0   501   512  0.000000000E+00  0.000000000E+00 -3.937656705E+01  3.937656705E+01  0.000000000E+00  0.00000E+00  9.000E+00
      25     1     1     2     0     0 -8.363184522E+01 -6.549867510E+01  4.215114413E+02  4.523065963E+02  1.250000000E+02  0.00000E+00  9.000E+00
      25     1     1     2     0     0  9.103458871E+01  1.148935415E+02  7.158067407E+02  7.412773517E+02  1.250000000E+02  0.00000E+00  9.000E+00
      21     1     1     2   502   512 -7.402743491E+00 -4.939486637E+01  4.422420005E+01  6.671156800E+01  9.536743164E-07  0.00000E+00  9.000E+00
#rwgt            1           1   3.1903303434559389E-002           4      183250           0
</event>
<event>
      5   9999  3.19816E-02  2.25061E+01 -1.00000E+00  1.62247E-01
      21    -1     0     0   502   501  0.000000000E+00  0.000000000E+00  3.067006881E+02  3.067006881E+02  0.000000000E+00  0.00000E+00  9.000E+00
      21    -1     0     0   511   502  0.000000000E+00  0.000000000E+00 -8.478697430E+02  8.478697430E+02  0.000000000E+00  0.00000E+00  9.000E+00
      25     1     1     2     0     0  3.483008527E+01  3.682322035E+02  9.060485422E+01  4.008021084E+02  1.250000000E+02  0.00000E+00  9.000E+00
      25     1     1     2     0     0 -5.317071335E+01 -3.551881292E+02 -5.479680060E+02  6.669930041E+02  1.250000000E+02  0.00000E+00  9.000E+00
      21     1     1     2   511   501  1.834062808E+01 -1.304407424E+01 -8.380590316E+01  8.677531859E+01  9.536743164E-07  0.00000E+00  9.000E+00
#rwgt            1           1   3.0652218003653000E-002           4      183363           0
</event>
<event>
      5   9999  3.19816E-02  5.33821E+01 -1.00000E+00  1.37473E-01
      21    -1     0     0   502   512  0.000000000E+00  0.000000000E+00  8.521522131E+01  8.521522131E+01  0.000000000E+00  0.00000E+00  9.000E+00
      21    -1     0     0   501   502  0.000000000E+00  0.000000000E+00 -6.636760397E+02  6.636760397E+02  0.000000000E+00  0.00000E+00  9.000E+00
      25     1     1     2     0     0  1.185942386E+00  1.013690330E+02 -5.147099405E+01  1.689714489E+02  1.250000000E+02  0.00000E+00  9.000E+00
      25     1     1     2     0     0 -5.082635323E+01 -8.173541396E+01 -4.905287936E+02  5.152741925E+02  1.250000000E+02  0.00000E+00  9.000E+00
      21     1     1     2   501   512  4.964041085E+01 -1.963361899E+01 -3.646103078E+01  6.464561972E+01  9.536743164E-07  0.00000E+00  9.000E+00
#rwgt            1           1   2.9396688442707083E-002           4      183543           0
</event>
<event>
      5   9999  3.19816E-02  5.51451E+01 -1.00000E+00  1.36691E-01
      21    -1     0     0   502   511  0.000000000E+00  0.000000000E+00  6.376517347E+02  6.376517347E+02  0.000000000E+00  0.00000E+00  9.000E+00
      21    -1     0     0   501   502  0.000000000E+00  0.000000000E+00 -4.029379133E+02  4.029379133E+02  0.000000000E+00  0.00000E+00  9.000E+00
      25     1     1     2     0     0 -2.798279485E+02  3.513517925E+02  1.724064721E+02  4.970922998E+02  1.250000000E+02  0.00000E+00  9.000E+00
      25     1     1     2     0     0  3.277271046E+02 -3.240267421E+02  2.754893041E+01  4.783119570E+02  1.250000000E+02  0.00000E+00  9.000E+00
      21     1     1     2   501   511 -4.789915614E+01 -2.732505045E+01  3.475841884E+01  6.518539117E+01  4.768371582E-07  0.00000E+00  9.000E+00
#rwgt            1           1   2.9786557199831590E-002           4      183624           0
</event>
<event>
      5   9999  3.19816E-02  1.30465E+02 -1.00000E+00  1.18847E-01
      21    -1     0     0   502   501  0.000000000E+00  0.000000000E+00  6.129432984E+02  6.129432984E+02  0.000000000E+00  0.00000E+00  9.000E+00
      21    -1     0     0   501   512  0.000000000E+00  0.000000000E+00 -2.850532200E+02  2.850532200E+02  0.000000000E+00  0.00000E+00  9.000E+00
      25     1     1     2     0     0  2.501687732E+02 -3.997515258E+01  1.272098636E+02  3.098221705E+02  1.250000000E+02  0.00000E+00  9.000E+00
      25     1     1     2     0     0 -3.717501716E+02  8.729363556E+01  2.170655495E+02  4.566845976E+02  1.250000000E+02  0.00000E+00  9.000E+00
      21     1     1     2   502   512  1.215813984E+02 -4.731848298E+01 -1.638533463E+01  1.314897504E+02  1.668930054E-06  0.00000E+00  9.000E+00
#rwgt            1           1   2.8494437431622350E-002           4      183758           0
</event>
<event>
      5   9999  3.19816E-02  1.07261E+02 -1.00000E+00  1.22474E-01
      21    -1     0     0   502   511  0.000000000E+00  0.000000000E+00  6.557745962E+02  6.557745962E+02  0.000000000E+00  0.00000E+00  9.000E+00
      21    -1     0     0   501   502  0.000000000E+00  0.000000000E+00 -9.641257958E+02  9.641257958E+02  0.000000000E+00  0.00000E+00  9.000E+00
      25     1     1     2     0     0 -3.322150654E+02 -4.196488577E+01  1.444377504E+02  3.855063749E+02  1.250000000E+02  0.00000E+00  9.000E+00
      25     1     1     2     0     0  3.980083774E+02 -4.274690836E+01 -7.824376962E+02  8.877340340E+02  1.250000000E+02  0.00000E+00  9.000E+00
      21     1     1     2   501   511 -6.579331197E+01  8.471179413E+01  3.296487463E+02  3.466599831E+02  6.607249480E-06  0.00000E+00  9.000E+00
#rwgt            1           1   2.7617525573575250E-002           4      183804           0
</event>
<event>
      5   9999  3.19816E-02  1.79011E+02 -1.00000E+00  1.13429E-01
       2    -1     0     0   502     0  0.000000000E+00  0.000000000E+00  3.923163009E+03  3.923163009E+03  0.000000000E+00  0.00000E+00  9.000E+00
      21    -1     0     0   501   502  0.000000000E+00  0.000000000E+00 -5.020770079E+02  5.020770079E+02  0.000000000E+00  0.00000E+00  9.000E+00
      25     1     1     2     0     0 -2.275089951E+02 -3.820690746E+02  2.893281187E+02  5.450439256E+02  1.250000000E+02  0.00000E+00  9.000E+00
      25     1     1     2     0     0  1.026230325E+02  5.103208294E+02 -1.791015256E+02  5.645008345E+02  1.250000000E+02  0.00000E+00  9.000E+00
       2     1     1     2   501     0  1.248859626E+02 -1.282517548E+02  3.310859408E+03  3.315695257E+03  0.000000000E+00  0.00000E+00  9.000E+00
#rwgt            1           1   3.1399948525519014E-002           4      183892           0
</event>
<event>
      5   9999  3.19816E-02  6.75417E+01 -1.00000E+00  1.32012E-01
      21    -1     0     0   502   501  0.000000000E+00  0.000000000E+00  1.086736737E+02  1.086736737E+02  0.000000000E+00  0.00000E+00  9.000E+00
      -1    -1     0     0     0   502  0.000000000E+00  0.000000000E+00 -2.984706372E+02  2.984706372E+02  0.000000000E+00  0.00000E+00  9.000E+00
      25     1     1     2     0     0 -2.470716940E+00 -3.405954893E+01 -1.172610638E+01  1.301101798E+02  1.250000000E+02  0.00000E+00  9.000E+00
      25     1     1     2     0     0 -6.496219886E+01  3.022797902E+01 -1.113280187E+02  1.820789547E+02  1.250000000E+02  0.00000E+00  9.000E+00
      -1     1     1     2     0   501  6.743291580E+01  3.831569910E+00 -6.674283839E+01  9.495517646E+01  2.132480600E-06  0.00000E+00  9.000E+00
#rwgt            1           1   1.5200751735994358E-002           4      183964           0
</event>
<event>
      5   9999  3.19816E-02  1.49795E+02 -1.00000E+00  1.16417E-01
      21    -1     0     0   502   511  0.000000000E+00  0.000000000E+00  3.737443946E+02  3.737443946E+02  0.000000000E+00  0.00000E+00  9.000E+00
      21    -1     0     0   501   502  0.000000000E+00  0.000000000E+00 -2.531813159E+03  2.531813159E+03  0.000000000E+00  0.00000E+00  9.000E+00
      25     1     1     2     0     0  5.023286386E+02  5.636008737E+02 -2.515213910E+02  8.055234423E+02  1.250000000E+02  0.00000E+00  9.000E+00
      25     1     1     2     0     0 -3.656031255E+02 -5.024080676E+02 -1.819623857E+03  1.926845996E+03  1.250000000E+02  0.00000E+00  9.000E+00
      21     1     1     2   501   511 -1.367255131E+02 -6.119280612E+01 -8.692351605E+01  1.731881148E+02  1.348699152E-06  0.00000E+00  9.000E+00
#rwgt            1           1   3.1918742669716900E-002           4      184017           0
</event>
<event>
      5   9999  3.19816E-02  1.41626E+02 -1.00000E+00  1.17391E-01
      21    -1     0     0   502   512  0.000000000E+00  0.000000000E+00  1.096421456E+03  1.096421456E+03  0.000000000E+00  0.00000E+00  9.000E+00
      21    -1     0     0   501   502  0.000000000E+00  0.000000000E+00 -1.170182225E+02  1.170182225E+02  0.000000000E+00  0.00000E+00  9.000E+00
      25     1     1     2     0     0  8.978520186E+01  2.251364491E+02  1.140045108E+02  2.955838826E+02  1.250000000E+02  0.00000E+00  9.000E+00
      25     1     1     2     0     0 -4.880853337E+01 -8.956779025E+01  3.975461180E+02  4.290368026E+02  1.250000000E+02  0.00000E+00  9.000E+00
      21     1     1     2   501   512 -4.097666849E+01 -1.355686588E+02  4.678526043E+02  4.888189930E+02  0.000000000E+00  0.00000E+00  9.000E+00
#rwgt            2          11   2.1177255184026376E-003           4      184554           0
</event>
<event>
      5   9999  3.19816E-02  2.32722E+01 -1.00000E+00  1.61116E-01
      21    -1     0     0   502   511  0.000000000E+00  0.000000000E+00  4.275620007E+02  4.275620007E+02  0.000000000E+00  0.00000E+00  9.000E+00
      21    -1     0     0   501   502  0.000000000E+00  0.000000000E+00 -6.921784320E+01  6.921784320E+01  0.000000000E+00  0.00000E+00  9.000E+00
      25     1     1     2     0     0 -1.385652828E+01  9.891400478E+01  1.615287816E+02  2.273599151E+02  1.250000000E+02  0.00000E+00  9.000E+00
      25     1     1     2     0     0 -9.414013807E+00 -9.919514743E+01  1.624044131E+02  2.278782445E+02  1.250000000E+02  0.00000E+00  9.000E+00
      21     1     1     2   501   511  2.327054209E+01  2.811426534E-01  3.441096289E+01  4.154168434E+01  0.000000000E+00  0.00000E+00  9.000E+00
#rwgt            1           1   7.9156640758586305E-002           4      184574           0
</event>
<event>
      5   9999  3.19816E-02  1.22734E+02 -1.00000E+00  1.19954E-01
      21    -1     0     0   512   501  0.000000000E+00  0.000000000E+00  6.228339392E+02  6.228339392E+02  0.000000000E+00  0.00000E+00  9.000E+00
      21    -1     0     0   501   502  0.000000000E+00  0.000000000E+00 -4.737869404E+02  4.737869404E+02  0.000000000E+00  0.00000E+00  9.000E+00
      25     1     1     2     0     0  3.526026406E+02  7.754874453E+00  3.024702328E+02  4.811465494E+02  1.250000000E+02  0.00000E+00  9.000E+00
      25     1     1     2     0     0 -4.126205312E+02 -1.148135749E+02 -1.935629570E+02  4.863429634E+02  1.250000000E+02  0.00000E+00  9.000E+00
      21     1     1     2   512   502  6.001789059E+01  1.070587004E+02  4.013972296E+01  1.291313668E+02  2.185142372E-06  0.00000E+00  9.000E+00
#rwgt            2          11   4.9606200829310455E-003           4      184843           0
</event>
<event>
      5   9999  3.19816E-02  8.63851E+01 -1.00000E+00  1.26756E-01
      21    -1     0     0   502   501  0.000000000E+00  0.000000000E+00  2.539667832E+02  2.539667832E+02  0.000000000E+00  0.00000E+00  9.000E+00
      21    -1     0     0   511   502  0.000000000E+00  0.000000000E+00 -7.331534860E+02  7.331534860E+02  0.000000000E+00  0.00000E+00  9.000E+00
      25     1     1     2     0     0  3.238225776E+02 -7.177182524E+00 -1.716649775E+02  3.873066463E+02  1.250000000E+02  0.00000E+00  9.000E+00
      25     1     1     2     0     0 -4.099415139E+02  4.012220352E-01 -2.579702511E+02  5.002258052E+02  1.250000000E+02  0.00000E+00  9.000E+00
      21     1     1     2   511   501  8.611893629E+01  6.775960489E+00 -4.955147423E+01  9.958781766E+01  9.536743164E-07  0.00000E+00  9.000E+00
#rwgt            2          11   4.1977754188465182E-003           4      184908           0
</event>
<event>
      5   9999  3.19816E-02  1.65478E+02 -1.00000E+00  1.14728E-01
      21    -1     0     0   502   501  0.000000000E+00  0.000000000E+00  2.697153754E+02  2.697153754E+02  0.000000000E+00  0.00000E+00  9.000E+00
      21    -1     0     0   512   502  0.000000000E+00  0.000000000E+00 -2.833837682E+03  2.833837682E+03  0.000000000E+00  0.00000E+00  9.000E+00
      25     1     1     2     0     0 -1.015346366E+01  6.673773458E+02 -1.476821796E+03  1.625460929E+03  1.250000000E+02  0.00000E+00  9.000E+00
      25     1     1     2     0     0  1.735900222E+02 -6.932883930E+02 -5.347990256E+02  9.013419382E+02  1.250000000E+02  0.00000E+00  9.000E+00
      21     1     1     2   512   501 -1.634365586E+02  2.591104718E+01 -5.525014846E+02  5.767501899E+02  0.000000000E+00  0.00000E+00  9.000E+00
#rwgt            1           1   2.8322905986032910E-002           4      184928           0
</event>
<event>
      5   9999  3.19816E-02  4.39885E+01 -1.00000E+00  1.42326E-01
      21    -1     0     0   502   501  0.000000000E+00  0.000000000E+00  4.099293341E+02  4.099293341E+02  0.000000000E+00  0.00000E+00  9.000E+00
      21    -1     0     0   501   511  0.000000000E+00  0.000000000E+00 -1.688824874E+02  1.688824874E+02  0.000000000E+00  0.00000E+00  9.000E+00
      25     1     1     2     0     0 -1.601259293E+02  8.738352386E+01  1.704025228E+02  2.791741630E+02  1.250000000E+02  0.00000E+00  9.000E+00
      25     1     1     2     0     0  1.471784070E+02 -1.294233883E+02  9.290627052E+01  2.503367173E+02  1.250000000E+02  0.00000E+00  9.000E+00
      21     1     1     2   502   511  1.294752226E+01  4.203986444E+01 -2.226194665E+01  4.930094120E+01  6.307962682E-07  0.00000E+00  9.000E+00
#rwgt            1           1   2.5136940660849760E-002           4      184992           0
</event>
<event>
      5   9999  3.19816E-02  3.24883E+01 -1.00000E+00  1.50674E-01
      21    -1     0     0   502   501  0.000000000E+00  0.000000000E+00  1.502496478E+03  1.502496478E+03  0.000000000E+00  0.00000E+00  9.000E+00
      21    -1     0     0   512   502  0.000000000E+00  0.000000000E+00 -5.248713303E+01  5.248713303E+01  0.000000000E+00  0.00000E+00  9.000E+00
      25     1     1     2     0     0  7.342499628E-01 -1.697750054E+02  3.919859707E+02  4.450866127E+02  1.250000000E+02  0.00000E+00  9.000E+00
      25     1     1     2     0     0  2.709400904E+01  1.530095391E+02  1.058781994E+03  1.077399793E+03  1.250000000E+02  0.00000E+00  9.000E+00
      21     1     1     2   512   501 -2.782825900E+01  1.676546623E+01 -7.586190583E-01  3.249720542E+01  7.999578435E-07  0.00000E+00  9.000E+00
#rwgt            1           1   2.6960957676542382E-002           4      185119           0
</event>
<event>
      5   9999  3.19816E-02  3.69429E+02 -1.00000E+00  1.02735E-01
      21    -1     0     0   502   501  0.000000000E+00  0.000000000E+00  9.257507255E+02  9.257507255E+02  0.000000000E+00  0.00000E+00  9.000E+00
      21    -1     0     0   511   502  0.000000000E+00  0.000000000E+00 -4.355760604E+02  4.355760604E+02  0.000000000E+00  0.00000E+00  9.000E+00
      25     1     1     2     0     0 -2.662264311E+02 -3.096703681E+02  6.321524396E+02  7.628983919E+02  1.250000000E+02  0.00000E+00  9.000E+00
      25     1     1     2     0     0 -4.460574244E+01  1.100177577E+02 -1.505862269E+02  2.288990847E+02  1.250000000E+02  0.00000E+00  9.000E+00
      21     1     1     2   511   501  3.108321735E+02  1.996526105E+02  8.608452316E+00  3.695293093E+02  5.223489356E-06  0.00000E+00  9.000E+00
#rwgt            2          11   3.1609377708738157E-003           4      185336           0
</event>
<event>
      5   9999  3.19816E-02  5.80795E+01 -1.00000E+00  1.35463E-01
      21    -1     0     0   512   501  0.000000000E+00  0.000000000E+00  1.412472130E+03  1.412472130E+03  0.000000000E+00  0.00000E+00  9.000E+00
      21    -1     0     0   501   502  0.000000000E+00  0.000000000E+00 -4.091342933E+02  4.091342933E+02  0.000000000E+00  0.00000E+00  9.000E+00
      25     1     1     2     0     0  1.189093598E+02 -9.139218406E-01  7.299621277E+01  1.873331742E+02  1.250000000E+02  0.00000E+00  9.000E+00
      25     1     1     2     0     0 -9.162752163E+01  5.218697247E+01 -3.322659376E+02  3.703305768E+02  1.250000000E+02  0.00000E+00  9.000E+00
      21     1     1     2   512   502 -2.728183813E+01 -5.127305063E+01  1.262607562E+03  1.263942672E+03  2.642899792E-05  0.00000E+00  9.000E+00
#rwgt            1           1   2.4816676440502877E-002           4      185356           0
</event>
<event>
      5   9999  3.19816E-02  7.00694E+02 -1.00000E+00  9.48594E-02
      21    -1     0     0   502   511  0.000000000E+00  0.000000000E+00  1.732171313E+03  1.732171313E+03  0.000000000E+00  0.00000E+00  9.000E+00
      21    -1     0     0   501   502  0.000000000E+00  0.000000000E+00 -9.050615399E+02  9.050615399E+02  0.000000000E+00  0.00000E+00  9.000E+00
      25     1     1     2     0     0 -8.041762536E+02 -1.889267945E+02 -2.740153860E+02  8.792623114E+02  1.250000000E+02  0.00000E+00  9.000E+00
      25     1     1     2     0     0  2.186540944E+02  5.738102089E+02  3.034839937E+02  6.962724346E+02  1.250000000E+02  0.00000E+00  9.000E+00
      21     1     1     2   501   511  5.855221592E+02 -3.848834144E+02  7.976411657E+02  1.061698107E+03  1.525878906E-05  0.00000E+00  9.000E+00
#rwgt            2          11   1.0939963379188963E-003           4      185438           0
</event>
<event>
      5   9999  3.19816E-02  6.33894E+01 -1.00000E+00  1.33440E-01
      21    -1     0     0   502   501  0.000000000E+00  0.000000000E+00  8.131810922E+02  8.131810922E+02  0.000000000E+00  0.00000E+00  9.000E+00
      21    -1     0     0   512   502  0.000000000E+00  0.000000000E+00 -6.764070725E+02  6.764070725E+02  0.000000000E+00  0.00000E+00  9.000E+00
      25     1     1     2     0     0  8.726399880E+01  3.168392532E+02  1.128837782E+01  3.517876424E+02  1.250000000E+02  0.00000E+00  9.000E+00
      25     1     1     2     0     0 -2.660362065E+01 -3.352385362E+02  5.783111941E+02  6.805596712E+02  1.250000000E+02  0.00000E+00  9.000E+00
      21     1     1     2   512   501 -6.066037814E+01  1.839928302E+01 -4.528255523E+02  4.572408511E+02  5.394796609E-06  0.00000E+00  9.000E+00
#rwgt            1           1   2.8668891460333457E-002           4      185458           0
</event>
<event>
      5   9999  3.19816E-02  3.27530E+01 -1.00000E+00  1.50438E-01
      21    -1     0     0   511   501  0.000000000E+00  0.000000000E+00  5.090333639E+02  5.090333639E+02  0.000000000E+00  0.00000E+00  9.000E+00
      21    -1     0     0   501   502  0.000000000E+00  0.000000000E+00 -2.209281422E+02  2.209281422E+02  0.000000000E+00  0.00000E+00  9.000E+00
      25     1     1     2     0     0  1.555822804E+01  1.188191285E+01 -1.561060448E+02  2.009411246E+02  1.250000000E+02  0.00000E+00  9.000E+00
      25     1     1     2     0     0 -4.635999093E+01 -2.301804861E+01  6.806242498E+01  1.514482519E+02  1.250000000E+02  0.00000E+00  9.000E+00
      21     1     1     2   511   502  3.080176289E+01  1.113613575E+01  3.761488415E+02  3.775721296E+02  0.000000000E+00  0.00000E+00  9.000E+00
#rwgt            1           1   3.3668986321482366E-002           4      185569           0
</event>
<event>
      5   9999  3.19816E-02  9.77365E+01 -1.00000E+00  1.24277E-01
       3    -1     0     0   502     0  0.000000000E+00  0.000000000E+00  1.764066540E+01  1.764066540E+01  0.000000000E+00  0.00000E+00  9.000E+00
      21    -1     0     0   501   502  0.000000000E+00  0.000000000E+00 -3.889661569E+03  3.889661569E+03  0.000000000E+00  0.00000E+00  9.000E+00
      25     1     1     2     0     0 -2.210604030E+01  2.020463973E+02 -2.438306914E+03  2.449954495E+03  1.250000000E+02  0.00000E+00  9.000E+00
      25     1     1     2     0     0  1.028243204E+01 -1.050277175E+02 -8.813773876E+02  8.964305044E+02  1.250000000E+02  0.00000E+00  9.000E+00
       3     1     1     2   501     0  1.182360826E+01 -9.701867976E+01 -5.523366023E+02  5.609172347E+02  7.629394531E-06  0.00000E+00  9.000E+00
#rwgt            1           1   1.2429749076153299E-002           4      185655           0
</event>
<event>
      5   9999  3.19816E-02  9.99009E+01 -1.00000E+00  1.23847E-01
      21    -1     0     0   511   501  0.000000000E+00  0.000000000E+00  7.035189279E+02  7.035189279E+02  0.000000000E+00  0.00000E+00  9.000E+00
      21    -1     0     0   501   502  0.000000000E+00  0.000000000E+00 -1.883497393E+02  1.883497393E+02  0.000000000E+00  0.00000E+00  9.000E+00
      25     1     1     2     0     0 -1.968818168E+02  2.865209008E+01  3.591133119E+02  4.291512121E+02  1.250000000E+02  0.00000E+00  9.000E+00
      25     1     1     2     0     0  2.081850731E+02  7.060731748E+01 -2.684982099E+01  2.543075517E+02  1.250000000E+02  0.00000E+00  9.000E+00
      21     1     1     2   511   502 -1.130325634E+01 -9.925940755E+01  1.829056977E+02  2.084099034E+02  2.697398305E-06  0.00000E+00  9.000E+00
#rwgt            1           1   2.6018360029617490E-002           4      185699           0
</event>
<event>
      5   9999  3.19816E-02  4.34634E+01 -1.00000E+00  1.42638E-01
      21    -1     0     0   502   501  0.000000000E+00  0.000000000E+00  1.795567065E+03  1.795567065E+03  0.000000000E+00  0.00000E+00  9.000E+00
      21    -1     0     0   512   502  0.000000000E+00  0.000000000E+00 -4.541527492E+02  4.541527492E+02  0.000000000E+00  0.00000E+00  9.000E+00
      25     1     1     2     0     0  7.124498651E+02  4.109160171E+02  5.982192290E+02  1.024659958E+03  1.250000000E+02  0.00000E+00  9.000E+00
      25     1     1     2     0     0 -6.768509765E+02 -4.358517058E+02  8.077424924E+02  1.147243169E+03  1.250000000E+02  0.00000E+00  9.000E+00
      21     1     1     2   512   501 -3.559888864E+01  2.493568871E+01 -6.454740517E+01  7.781668817E+01  1.348699152E-06  0.00000E+00  9.000E+00
#rwgt            1           1   2.8826386643109724E-002           4      185743           0
</event>
<event>
      5   9999  3.19816E-02  4.13301E+01 -1.00000E+00  1.43965E-01
      21    -1     0     0   502   501  0.000000000E+00  0.000000000E+00  1.567782689E+03  1.567782689E+03  0.000000000E+00  0.00000E+00  9.000E+00
      21    -1     0     0   511   502  0.000000000E+00  0.000000000E+00 -4.818931839E+02  4.818931839E+02  0.000000000E+00  0.00000E+00  9.000E+00
      25     1     1     2     0     0 -1.747983123E+02 -1.457122339E+02  1.499584801E+03  1.521895555E+03  1.250000000E+02  0.00000E+00  9.000E+00
      25     1     1     2     0     0  1.563223514E+02  1.087417257E+02 -1.796243235E+02  2.900885003E+02  1.250000000E+02  0.00000E+00  9.000E+00
      21     1     1     2   511   501  1.847596088E+01  3.697050822E+01 -2.340709729E+02  2.376918172E+02  2.697398305E-06  0.00000E+00  9.000E+00
#rwgt            1           1   2.6232545063021660E-002           4      185892           0
</event>
<event>
      5   9999  3.19816E-02  1.29831E+02 -1.00000E+00  1.18934E-01
      21    -1     0     0   502   501  0.000000000E+00  0.000000000E+00  1.069246856E+03  1.069246856E+03  0.000000000E+00  0.00000E+00  9.000E+00
       2    -1     0     0   501     0  0.000000000E+00  0.000000000E+00 -6.605776365E+02  6.605776365E+02  0.000000000E+00  0.00000E+00  9.000E+00
      25     1     1     2     0     0  1.043771160E+02 -1.548535366E+02  5.626203400E+02  6.058389614E+02  1.250000000E+02  0.00000E+00  9.000E+00
      25     1     1     2     0     0 -1.987229430E+01  2.534189937E+02  4.359877139E+02  5.199292078E+02  1.250000000E+02  0.00000E+00  9.000E+00
       2     1     1     2   502     0 -8.450482173E+01 -9.856545711E+01 -5.899388341E+02  6.040563237E+02  0.000000000E+00  0.00000E+00  9.000E+00
#rwgt            1           1   3.0722458026738113E-002           4      186019           0
</event>
<event>
      5   9999  3.19816E-02  1.04913E+01 -1.00000E+00  1.93380E-01
      21    -1     0     0   502   511  0.000000000E+00  0.000000000E+00  2.902588225E+02  2.902588225E+02  0.000000000E+00  0.00000E+00  9.000E+00
      21    -1     0     0   501   502  0.000000000E+00  0.000000000E+00 -2.745039557E+02  2.745039557E+02  0.000000000E+00  0.00000E+00  9.000E+00
      25     1     1     2     0     0  1.275966722E+02 -1.335622172E+02  1.256965486E+02  2.560164037E+02  1.250000000E+02  0.00000E+00  9.000E+00
      25     1     1     2     0     0 -1.288534424E+02  1.439780011E+02 -1.451032573E+02  2.720529906E+02  1.250000000E+02  0.00000E+00  9.000E+00
      21     1     1     2   501   511  1.256770146E+00 -1.041578391E+01  3.516157551E+01  3.669338384E+01  9.536743164E-07  0.00000E+00  9.000E+00
#rwgt            1           1   3.1609562879258674E-002           4      186077           0
</event>
<event>
      5   9999  3.19816E-02  2.01980E+01 -1.00000E+00  1.66017E-01
      21    -1     0     0   512   501  0.000000000E+00  0.000000000E+00  9.408970902E+02  9.408970902E+02  0.000000000E+00  0.00000E+00  9.000E+00
      21    -1     0     0   501   502  0.000000000E+00  0.000000000E+00 -4.748045546E+01  4.748045546E+01  0.000000000E+00  0.00000E+00  9.000E+00
      25     1     1     2     0     0 -9.457315970E+01 -1.050692103E+02  3.555598933E+02  4.025313145E+02  1.250000000E+02  0.00000E+00  9.000E+00
      25     1     1     2     0     0  1.049580304E+02  1.223930237E+02  4.278537240E+02  4.740042716E+02  1.250000000E+02  0.00000E+00  9.000E+00
      21     1     1     2   512   502 -1.038487067E+01 -1.732381335E+01  1.100030175E+02  1.118419595E+02  1.907348633E-06  0.00000E+00  9.000E+00
#rwgt            1           1   2.3410433392952283E-002           4      186237           0
</event>
<event>
      5   9999  3.19816E-02  6.11980E+02 -1.00000E+00  9.64210E-02
      21    -1     0     0   502   501  0.000000000E+00  0.000000000E+00  8.974841548E+02  8.974841548E+02  0.000000000E+00  0.00000E+00  9.000E+00
       1    -1     0     0   501     0  0.000000000E+00  0.000000000E+00 -1.347252833E+03  1.347252833E+03  0.000000000E+00  0.00000E+00  9.000E+00
      25     1     1     2     0     0  7.707111194E+02 -3.254550092E+02 -8.440396506E+00  8.459390243E+02  1.250000000E+02  0.00000E+00  9.000E+00
      25     1     1     2     0     0 -1.956339564E+02  5.347528654E+02  8.809928033E+01  5.895928724E+02  1.250000000E+02  0.00000E+00  9.000E+00
       1     1     1     2   502     0 -5.750771630E+02 -2.092978562E+02 -5.294275617E+02  8.092050909E+02  1.078959322E-05  0.00000E+00  9.000E+00
#rwgt            1           1   3.0388771193203677E-002           4      186375           0
</event>
<event>
      5   9999  3.19816E-02  1.11542E+01 -1.00000E+00  1.90429E-01
      21    -1     0     0   502   501  0.000000000E+00  0.000000000E+00  6.478060721E+02  6.478060721E+02  0.000000000E+00  0.00000E+00  9.000E+00
      21    -1     0     0   501   511  0.000000000E+00  0.000000000E+00 -1.179760389E+02  1.179760389E+02  0.000000000E+00  0.00000E+00  9.000E+00
      25     1     1     2     0     0  1.791658350E+02 -1.511445688E+02  3.226195762E+02  4.179156231E+02  1.250000000E+02  0.00000E+00  9.000E+00
      25     1     1     2     0     0 -1.797301708E+02  1.400046670E+02  2.123438226E+02  3.355877531E+02  1.250000000E+02  0.00000E+00  9.000E+00
      21     1     1     2   502   511  5.643358128E-01  1.113990182E+01 -5.133365540E+00  1.227873484E+01  1.976862425E-07  0.00000E+00  9.000E+00
#rwgt            1           1   2.8011744914061353E-002           4      186410           0
</event>
<event>
      5   9999  3.19816E-02  3.76868E+01 -1.00000E+00  1.46463E-01
      21    -1     0     0   502   501  0.000000000E+00  0.000000000E+00  5.943569169E+01  5.943569169E+01  0.000000000E+00  0.00000E+00  9.000E+00
      21    -1     0     0   512   502  0.000000000E+00  0.000000000E+00 -8.497981870E+02  8.497981870E+02  0.000000000E+00  0.00000E+00  9.000E+00
      25     1     1     2     0     0 -3.797208037E+00  3.945434771E+01 -5.247704052E+02  5.409066856E+02  1.250000000E+02  0.00000E+00  9.000E+00
      25     1     1     2     0     0 -3.052217824E+01 -2.388271296E+01 -3.609529439E+01  1.357566117E+02  1.250000000E+02  0.00000E+00  9.000E+00
      21     1     1     2   512   501  3.431938628E+01 -1.557163475E+01 -2.294967957E+02  2.325705814E+02  0.000000000E+00  0.00000E+00  9.000E+00
#rwgt            1           1   2.8535989978383792E-002           4      186662           0
</event>
<event>
      5   9999  3.19816E-02  1.85904E+02 -1.00000E+00  1.12816E-01
       2    -1     0     0   502     0  0.000000000E+00  0.000000000E+00  1.730565601E+03  1.730565601E+03  0.000000000E+00  0.00000E+00  9.000E+00
      21    -1     0     0   501   502  0.000000000E+00  0.000000000E+00 -1.327073708E+02  1.327073708E+02  0.000000000E+00  0.00000E+00  9.000E+00
      25     1     1     2     0     0  1.856404580E+02  5.338503787E+01  2.055621006E+02  3.085338217E+02  1.250000000E+02  0.00000E+00  9.000E+00
      25     1     1     2     0     0 -3.123177977E+01  5.014483820E+01 -1.145593612E+01  1.387305566E+02  1.250000000E+02  0.00000E+00  9.000E+00
       2     1     1     2   501     0 -1.544086782E+02 -1.035298761E+02  1.403752065E+03  1.416008593E+03  3.411968960E-05  0.00000E+00  9.000E+00
#rwgt            1           1   3.0935298829008907E-002           4      186811           0
</event>
<event>
      5   9999  3.19816E-02  5.56742E+01 -1.00000E+00  1.36463E-01
      21    -1     0     0   511   501  0.000000000E+00  0.000000000E+00  1.964266283E+02  1.964266283E+02  0.000000000E+00  0.00000E+00  9.000E+00
      21    -1     0     0   501   502  0.000000000E+00  0.000000000E+00 -1.350628343E+03  1.350628343E+03  0.000000000E+00  0.00000E+00  9.000E+00
      25     1     1     2     0     0  1.579485459E+01  4.316518193E+02 -7.380704895E+02  8.642602722E+02  1.250000000E+02  0.00000E+00  9.000E+00
      25     1     1     2     0     0 -7.146655969E+01 -4.311228326E+02 -4.296977130E+02  6.254913992E+02  1.250000000E+02  0.00000E+00  9.000E+00
      21     1     1     2   511   502  5.567170509E+01 -5.289867617E-01  1.356648791E+01  5.730329981E+01  9.386548846E-07  0.00000E+00  9.000E+00
#rwgt            1           1   2.9405866684090527E-002           4      186850           0
</event>
<event>
      5   9999  3.19816E-02  8.07858E+00 -1.00000E+00  2.07117E-01
      21    -1     0     0   502   512  0.000000000E+00  0.000000000E+00  1.502741733E+02  1.502741733E+02  0.000000000E+00  0.00000E+00  9.000E+00
      21    -1     0     0   501   502  0.000000000E+00  0.000000000E+00 -1.087532321E+03  1.087532321E+03  0.000000000E+00  0.00000E+00  9.000E+00
      25     1     1     2     0     0  1.222759927E+02  1.333983296E+02 -1.182503059E+01  2.202529547E+02  1.250000000E+02  0.00000E+00  9.000E+00
      25     1     1     2     0     0 -1.144059824E+02 -1.315744973E+02 -9.591665553E+02  9.828662462E+02  1.250000000E+02  0.00000E+00  9.000E+00
      21     1     1     2   501   512 -7.870010236E+00 -1.823832305E+00  3.373343854E+01  3.468729307E+01  8.259061849E-07  0.00000E+00  9.000E+00
#rwgt            1           1   3.1054486171990234E-002           4      186976           0
</event>
<event>
      5   9999  3.19816E-02  2.78627E+01 -1.00000E+00  1.55303E-01
      21    -1     0     0   502   501  0.000000000E+00  0.000000000E+00  1.475200130E+03  1.475200130E+03  0.000000000E+00  0.00000E+00  9.000E+00
      21    -1     0     0   501   511  0.000000000E+00  0.000000000E+00 -1.426622450E+03  1.426622450E+03  0.000000000E+00  0.00000E+00  9.000E+00
      25     1     1     2     0     0  4.700864750E+02 -3.578612244E+02  9.549272263E+02  1.129848201E+03  1.250000000E+02  0.00000E+00  9.000E+00
      25     1     1     2     0     0 -4.475401932E+02  3.414906802E+02  2.404911647E+02  6.247952540E+02  1.250000000E+02  0.00000E+00  9.000E+00
      21     1     1     2   502   511 -2.254628181E+01  1.637054427E+01 -1.146840711E+03  1.147179125E+03  1.525878906E-05  0.00000E+00  9.000E+00
#rwgt            1           1   2.6648828561788806E-002           4      187236           0
</event>
<event>
      5   9999  3.19816E-02  5.39622E+01 -1.00000E+00  1.37212E-01
       1    -1     0     0   502     0  0.000000000E+00  0.000000000E+00  2.742861550E+03  2.742861550E+03  0.000000000E+00  0.00000E+00  9.000E+00
      21    -1     0     0   501   502  0.000000000E+00  0.000000000E+00 -5.344949902E+02  5.344949902E+02  0.000000000E+00  0.00000E+00  9.000E+00
      25     1     1     2     0     0 -8.537973822E+02  3.875125355E+02  1.762611818E+02  9.622000515E+02  1.250000000E+02  0.00000E+00  9.000E+00
      25     1     1     2     0     0  8.473356577E+02 -3.339386033E+02  1.363997410E+03  1.644872835E+03  1.250000000E+02  0.00000E+00  9.000E+00
       1     1     1     2   501     0  6.461724448E+00 -5.357393217E+01  6.681079678E+02  6.702836540E+02  7.629394531E-06  0.00000E+00  9.000E+00
#rwgt            1           1   2.7028360459982487E-002           4      187476           0
</event>
<event>
      5   9999  3.19816E-02  2.32856E+01 -1.00000E+00  1.61097E-01
       4    -1     0     0   502     0  0.000000000E+00  0.000000000E+00  1.583036388E+02  1.583036388E+02  0.000000000E+00  0.00000E+00  9.000E+00
      21    -1     0     0   501   502  0.000000000E+00  0.000000000E+00 -1.295594985E+03  1.295594985E+03  0.000000000E+00  0.00000E+00  9.000E+00
      25     1     1     2     0     0 -2.443673709E+02 -2.193560232E+02 -6.285427685E+02  7.200857509E+02  1.250000000E+02  0.00000E+00  9.000E+00
      25     1     1     2     0     0  2.600114134E+02  2.021082643E+02 -5.690056514E+02  6.692130579E+02  1.250000000E+02  0.00000E+00  9.000E+00
       4     1     1     2   501     0 -1.564404247E+01  1.724775887E+01  6.025707331E+01  6.459981528E+01  2.132480600E-06  0.00000E+00  9.000E+00
#rwgt            1           1   2.6758079429333129E-002           4      187701           0
</event>
<event>
      5   9999  3.19816E-02  4.04780E+01 -1.00000E+00  1.44521E-01
      21    -1     0     0   502   501  0.000000000E+00  0.000000000E+00  1.114804855E+02  1.114804855E+02  0.000000000E+00  0.00000E+00  9.000E+00
      21    -1     0     0   511   502  0.000000000E+00  0.000000000E+00 -3.256306529E+02  3.256306529E+02  0.000000000E+00  0.00000E+00  9.000E+00
      25     1     1     2     0     0 -1.016751971E+02  7.685746885E+01 -6.945436055E+01  1.915563218E+02  1.250000000E+02  0.00000E+00  9.000E+00
      25     1     1     2     0     0  6.141056124E+01 -7.270675545E+01 -1.057417355E+02  1.893775170E+02  1.250000000E+02  0.00000E+00  9.000E+00
      21     1     1     2   511   501  4.026463581E+01 -4.150713406E+00 -3.895407136E+01  5.617729963E+01  1.168007728E-06  0.00000E+00  9.000E+00
#rwgt            1           1   3.4449937495309259E-002           4      187845           0
</event>
<event>
      5   9999  3.19816E-02  2.10593E+02 -1.00000E+00  1.10838E-01
      21    -1     0     0   502   501  0.000000000E+00  0.000000000E+00  1.503779945E+03  1.503779945E+03  0.000000000E+00  0.00000E+00  9.000E+00
      21    -1     0     0   512   502  0.000000000E+00  0.000000000E+00 -2.795309029E+02  2.795309029E+02  0.000000000E+00  0.00000E+00  9.000E+00
      25     1     1     2     0     0  3.857530005E+02 -2.438025865E+02  5.485486975E+02  7.244140750E+02  1.250000000E+02  0.00000E+00  9.000E+00
      25     1     1     2     0     0 -4.628801905E+02  4.784168036E+01  6.968831430E+02  8.472414132E+02  1.250000000E+02  0.00000E+00  9.000E+00
      21     1     1     2   512   501  7.712719001E+01  1.959609061E+02 -2.118279878E+01  2.116553593E+02  1.450243599E-06  0.00000E+00  9.000E+00
#rwgt            2          11   4.2902269341421381E-003           4      187926           0
</event>
<event>
      5   9999  3.19816E-02  2.20745E+02 -1.00000E+00  1.10110E-01
       1    -1     0     0   502     0  0.000000000E+00  0.000000000E+00  4.559825079E+02  4.559825079E+02  0.000000000E+00  0.00000E+00  9.000E+00
      21    -1     0     0   501   502  0.000000000E+00  0.000000000E+00 -5.777210186E+02  5.777210186E+02  0.000000000E+00  0.00000E+00  9.000E+00
      25     1     1     2     0     0  2.359425910E+01 -5.564368004E+01  1.833666804E+02  2.300027123E+02  1.250000000E+02  0.00000E+00  9.000E+00
      25     1     1     2     0     0  1.136455357E+02 -1.172545495E+02 -4.799170505E+02  5.221200173E+02  1.250000000E+02  0.00000E+00  9.000E+00
       1     1     1     2   501     0 -1.372397948E+02  1.728982295E+02  1.748118593E+02  2.815807969E+02  1.907348633E-06  0.00000E+00  9.000E+00
#rwgt            1           1   2.6615283737574862E-002           4      187991           0
</event>
<event>
      5   9999  3.19816E-02  6.25981E+01 -1.00000E+00  1.33727E-01
      21    -1     0     0   502   501  0.000000000E+00  0.000000000E+00  3.077421841E+03  3.077421841E+03  0.000000000E+00  0.00000E+00  9.000E+00
      21    -1     0     0   501   511  0.000000000E+00  0.000000000E+00 -4.405941910E+02  4.405941910E+02  0.000000000E+00  0.00000E+00  9.000E+00
      25     1     1     2     0     0 -7.868665577E+01  1.212241151E+01  2.606354176E+02  2.998238876E+02  1.250000000E+02  0.00000E+00  9.000E+00
      25     1     1     2     0     0  7.887852793E+01  5.047535986E+01  2.792671055E+03  2.797035253E+03  1.250000000E+02  0.00000E+00  9.000E+00
      21     1     1     2   502   511 -1.918721544E-01 -6.259777137E+01 -4.164788226E+02  4.211568917E+02  1.525878906E-05  0.00000E+00  9.000E+00
#rwgt            1           1   2.6490372341573490E-002           4      188058           0
</event>
<event>
      5   9999  3.19816E-02  8.28227E+02 -1.00000E+00  9.30000E-02
      21    -1     0     0   502   501  0.000000000E+00  0.000000000E+00  1.050476759E+03  1.050476759E+03  0.000000000E+00  0.00000E+00  9.000E+00
       1    -1     0     0   501     0  0.000000000E+00  0.000000000E+00 -2.172739396E+03  2.172739396E+03  0.000000000E+00  0.00000E+00  9.000E+00
      25     1     1     2     0     0  3.215462166E+02  2.481037857E+02 -4.333871103E+02  6.069570375E+02  1.250000000E+02  0.00000E+00  9.000E+00
      25     1     1     2     0     0 -7.658947893E+02 -9.470422194E+02  3.633685671E+02  1.277163071E+03  1.250000000E+02  0.00000E+00  9.000E+00
       1     1     1     2   502     0  4.443485727E+02  6.989384336E+02 -1.052244094E+03  1.339096046E+03  1.525878906E-05  0.00000E+00  9.000E+00
#rwgt            2          12   3.7971420178091627E-004           4      188130           0
</event>
<event>
      5   9999  3.19816E-02  5.19308E+01 -1.00000E+00  1.38143E-01
       1    -1     0     0   502     0  0.000000000E+00  0.000000000E+00  1.504593257E+03  1.504593257E+03  0.000000000E+00  0.00000E+00  9.000E+00
      21    -1     0     0   501   502  0.000000000E+00  0.000000000E+00 -1.754063381E+02  1.754063381E+02  0.000000000E+00  0.00000E+00  9.000E+00
      25     1     1     2     0     0 -3.032854597E+02  9.752790324E+01  6.730478830E+01  3.487817319E+02  1.250000000E+02  0.00000E+00  9.000E+00
      25     1     1     2     0     0  2.606132301E+02 -1.271233916E+02  7.118465731E+02  7.787362558E+02  1.250000000E+02  0.00000E+00  9.000E+00
       1     1     1     2   501     0  4.267222959E+01  2.959548835E+01  5.500355578E+02  5.524816078E+02  7.629394531E-06  0.00000E+00  9.000E+00
#rwgt            1           1   2.7508432516800300E-002           4      188164           0
</event>
<event>
      5   9999  3.19816E-02  1.90292E+01 -1.00000E+00  1.68172E-01
      21    -1     0     0   502   501  0.000000000E+00  0.000000000E+00  1.327419045E+02  1.327419045E+02  0.000000000E+00  0.00000E+00  9.000E+00
      21    -1     0     0   501   511  0.000000000E+00  0.000000000E+00 -4.420791486E+02  4.420791486E+02  0.000000000E+00  0.00000E+00  9.000E+00
      25     1     1     2     0     0 -7.960143053E+01  8.079456821E+01 -3.430101141E+02  3.822892732E+02  1.250000000E+02  0.00000E+00  9.000E+00
      25     1     1     2     0     0  8.336509888E+01 -6.214126203E+01  4.705945474E+01  1.692656741E+02  1.250000000E+02  0.00000E+00  9.000E+00
      21     1     1     2   502   511 -3.763668353E+00 -1.865330618E+01 -1.338658469E+01  2.326610584E+01  3.769728732E-07  0.00000E+00  9.000E+00
#rwgt            1           1   2.6020906884321890E-002           4      188273           0
</event>
<event>
      5   9999  3.19816E-02  9.69018E+01 -1.00000E+00  1.24446E-01
      21    -1     0     0   502   501  0.000000000E+00  0.000000000E+00  2.262505267E+03  2.262505267E+03  0.000000000E+00  0.00000E+00  9.000E+00
      21    -1     0     0   512   502  0.000000000E+00  0.000000000E+00 -1.292785119E+02  1.292785119E+02  0.000000000E+00  0.00000E+00  9.000E+00
      25     1     1     2     0     0 -3.162659692E+02 -7.000058281E+01  3.595365319E+02  4.998157287E+02  1.250000000E+02  0.00000E+00  9.000E+00
      25     1     1     2     0     0  3.088535529E+02  1.666184712E+02  1.753951334E+03  1.793076271E+03  1.250000000E+02  0.00000E+00  9.000E+00
      21     1     1     2   512   501  7.412416284E+00 -9.661788842E+01  1.973888955E+01  9.889177943E+01  2.831063768E-06  0.00000E+00  9.000E+00
#rwgt            1           1   2.9237338248800926E-002           4      188421           0
</event>
<event>
      5   9999  3.19816E-02  4.05314E+01 -1.00000E+00  1.44486E-01
      21    -1     0     0   502   501  0.000000000E+00  0.000000000E+00  2.280493226E+02  2.280493226E+02  0.000000000E+00  0.00000E+00  9.000E+00
      21    -1     0     0   511   502  0.000000000E+00  0.000000000E+00 -6.216653237E+02  6.216653237E+02  0.000000000E+00  0.00000E+00  9.000E+00
      25     1     1     2     0     0 -2.882610359E+02  1.250579191E+02 -1.179777420E+02  3.581587016E+02  1.250000000E+02  0.00000E+00  9.000E+00
      25     1     1     2     0     0  3.261670659E+02 -1.107076418E+02 -2.504051642E+02  4.438117654E+02  1.250000000E+02  0.00000E+00  9.000E+00
      21     1     1     2   511   501 -3.790603004E+01 -1.435027729E+01 -2.523309481E+01  4.774417918E+01  6.743495762E-07  0.00000E+00  9.000E+00
#rwgt            1           1   2.6928330593197755E-002           4      188473           0
</event>
<event>
      5   9999  3.19816E-02  9.68346E+00 -1.00000E+00  1.97386E-01
      -2    -1     0     0     0   501  0.000000000E+00  0.000000000E+00  5.219337011E+02  5.219337011E+02  0.000000000E+00  0.00000E+00  9.000E+00
      21    -1     0     0   501   502  0.000000000E+00  0.000000000E+00 -4.948779606E+02  4.948779606E+02  0.000000000E+00  0.00000E+00  9.000E+00
      25     1     1     2     0     0  4.109925694E+01 -2.302356498E+02 -7.421020231E+01  2.753720347E+02  1.250000000E+02  0.00000E+00  9.000E+00
      25     1     1     2     0     0 -3.143491336E+01  2.296275236E+02 -2.658534905E+02  3.741925063E+02  1.250000000E+02  0.00000E+00  9.000E+00
      -2     1     1     2     0   502 -9.664343581E+00  6.081261689E-01  3.671194333E+02  3.672471207E+02  5.394796609E-06  0.00000E+00  9.000E+00
#rwgt            1           1   2.6670566100298047E-002           4      188601           0
</event>
<event>
      5   9999  3.19816E-02  7.92097E+01 -1.00000E+00  1.28559E-01
      21    -1     0     0   502   511  0.000000000E+00  0.000000000E+00  2.558255795E+03  2.558255795E+03  0.000000000E+00  0.00000E+00  9.000E+00
      21    -1     0     0   501   502  0.000000000E+00  0.000000000E+00 -6.433652187E+02  6.433652187E+02  0.000000000E+00  0.00000E+00  9.000E+00
      25     1     1     2     0     0 -8.314147753E+02  3.899862723E+02  1.503675250E+03  1.766353327E+03  1.250000000E+02  0.00000E+00  9.000E+00
      25     1     1     2     0     0  7.834246420E+02 -3.269694494E+02 -1.477655905E+02  8.707025096E+02  1.250000000E+02  0.00000E+00  9.000E+00
      21     1     1     2   501   511  4.799013328E+01 -6.301682291E+01  5.589809167E+02  5.645651761E+02  0.000000000E+00  0.00000E+00  9.000E+00
#rwgt            1           1   2.9374521986524828E-002           4      188857           0
</event>
<event>
      5   9999  3.19816E-02  2.29634E+01 -1.00000E+00  1.61566E-01
      21    -1     0     0   502   501  0.000000000E+00  0.000000000E+00  4.223435464E+02  4.223435464E+02  0.000000000E+00  0.00000E+00  9.000E+00
      21    -1     0     0   501   512  0.000000000E+00  0.000000000E+00 -1.980125011E+02  1.980125011E+02  0.000000000E+00  0.00000E+00  9.000E+00
      25     1     1     2     0     0 -1.406996359E+02 -4.262344422E+01  2.990622607E+02  3.559162560E+02  1.250000000E+02  0.00000E+00  9.000E+00
      25     1     1     2     0     0  1.348502150E+02  2.041750008E+01  1.308256350E+00  1.850085574E+02  1.250000000E+02  0.00000E+00  9.000E+00
      21     1     1     2   502   512  5.849420931E+00  2.220594414E+01 -7.603947171E+01  7.943123402E+01  1.651812370E-06  0.00000E+00  9.000E+00
#rwgt            1           1   2.7990848287861438E-002           4      189015           0
</event>
<event>
      5   9999  3.19816E-02  1.88245E+01 -1.00000E+00  1.68569E-01
      21    -1     0     0   502   501  0.000000000E+00  0.000000000E+00  5.773502463E+01  5.773502463E+01  0.000000000E+00  0.00000E+00  9.000E+00
      21    -1     0     0   501   511  0.000000000E+00  0.000000000E+00 -6.777546166E+02  6.777546166E+02  0.000000000E+00  0.00000E+00  9.000E+00
      25     1     1     2     0     0  1.179040064E+02  5.553630213E+00 -1.840497307E+02  2.518561115E+02  1.250000000E+02  0.00000E+00  9.000E+00
      25     1     1     2     0     0 -1.362818752E+02 -9.629654861E+00 -3.537505980E+02  3.992868209E+02  1.250000000E+02  0.00000E+00  9.000E+00
      21     1     1     2   502   511  1.837786871E+01  4.076024648E+00 -8.221926330E+01  8.434670885E+01  9.536743164E-07  0.00000E+00  9.000E+00
#rwgt            1           1   2.8523328706655172E-002           4      189146           0
</event>
<event>
      5   9999  3.19816E-02  6.33481E+01 -1.00000E+00  1.33455E-01
      21    -1     0     0   502   501  0.000000000E+00  0.000000000E+00  5.306455588E+02  5.306455588E+02  0.000000000E+00  0.00000E+00  9.000E+00
      21    -1     0     0   501   512  0.000000000E+00  0.000000000E+00 -1.364387518E+02  1.364387518E+02  0.000000000E+00  0.00000E+00  9.000E+00
      25     1     1     2     0     0 -1.039891552E+02  6.896925233E+01  1.658344053E+02  2.422737133E+02  1.250000000E+02  0.00000E+00  9.000E+00
      25     1     1     2     0     0  8.133904813E+01 -1.281297111E+02  2.806548240E+02  3.426738885E+02  1.250000000E+02  0.00000E+00  9.000E+00
      21     1     1     2   502   512  2.265010703E+01  5.916045881E+01 -5.228242239E+01  8.213670876E+01  9.536743164E-07  0.00000E+00  9.000E+00
#rwgt            1           1   3.3754982982748677E-002           4      189272           0
</event>
<event>
      5   9999  3.19816E-02  3.74409E+01 -1.00000E+00  1.46644E-01
      21    -1     0     0   502   501  0.000000000E+00  0.000000000E+00  5.235411010E+02  5.235411010E+02  0.000000000E+00  0.00000E+00  9.000E+00
      21    -1     0     0   511   502  0.000000000E+00  0.000000000E+00 -2.124021542E+02  2.124021542E+02  0.000000000E+00  0.00000E+00  9.000E+00
      25     1     1     2     0     0 -1.883903222E+02 -1.851475788E+02  1.523433109E+02  3.295512461E+02  1.250000000E+02  0.00000E+00  9.000E+00
      25     1     1     2     0     0  1.984105094E+02  2.212227335E+02  1.735729735E+02  3.661404173E+02  1.250000000E+02  0.00000E+00  9.000E+00
      21     1     1     2   511   501 -1.002018722E+01 -3.607515465E+01 -1.477733764E+01  4.025159180E+01  7.152557373E-07  0.00000E+00  9.000E+00
#rwgt            1           1   2.8555017619956328E-002           4      189337           0
</event>
<event>
      5   9999  3.69653E-02  4.09395E+01 -1.00000E+00  1.44218E-01
      21    -1     0     0   502   501  0.000000000E+00  0.000000000E+00  1.745017843E+03  1.745017843E+03  0.000000000E+00  0.00000E+00  9.000E+00
      -3    -1     0     0     0   502  0.000000000E+00  0.000000000E+00 -4.657462953E+01  4.657462953E+01  0.000000000E+00  0.00000E+00  9.000E+00
      25     1     1     2     0     0 -1.959776578E+01 -2.609705734E+00  1.286184265E+03  1.292395391E+03  1.250000000E+02  0.00000E+00  9.000E+00
      25     1     1     2     0     0  5.339573558E+01 -2.049306144E+01  4.322902045E+02  4.536197648E+02  1.250000000E+02  0.00000E+00  9.000E+00
      -3     1     1     2     0   501 -3.379796980E+01  2.310276717E+01 -2.003125582E+01  4.557731698E+01  1.668930054E-06  0.00000E+00  9.000E+00
#rwgt            1           1  0.19185294365655983                4      189449           0
</event>
<event>
      5   9999  3.19816E-02  1.01621E+02 -1.00000E+00  1.23515E-01
       2    -1     0     0   502     0  0.000000000E+00  0.000000000E+00  1.563535071E+03  1.563535071E+03  0.000000000E+00  0.00000E+00  9.000E+00
      21    -1     0     0   501   502  0.000000000E+00  0.000000000E+00 -1.367810554E+02  1.367810554E+02  0.000000000E+00  0.00000E+00  9.000E+00
      25     1     1     2     0     0  1.236186989E+02 -1.372758808E+02  8.079101158E+01  2.372307689E+02  1.250000000E+02  0.00000E+00  9.000E+00
      25     1     1     2     0     0 -2.522610935E+01  1.118634163E+02  7.069219269E+01  1.837720507E+02  1.250000000E+02  0.00000E+00  9.000E+00
       2     1     1     2   501     0 -9.839258952E+01  2.541246444E+01  1.275270811E+03  1.279313307E+03  2.642899792E-05  0.00000E+00  9.000E+00
#rwgt            1           1   3.1828378141057975E-002           4      189555           0
</event>
<event>
      5   9999  3.19816E-02  9.25326E+01 -1.00000E+00  1.25363E-01
      21    -1     0     0   502   501  0.000000000E+00  0.000000000E+00  9.525819295E+02  9.525819295E+02  0.000000000E+00  0.00000E+00  9.000E+00
      21    -1     0     0   501   511  0.000000000E+00  0.000000000E+00 -9.922780903E+02  9.922780903E+02  0.000000000E+00  0.00000E+00  9.000E+00
      25     1     1     2     0     0  3.644526527E+02  6.000200060E+02 -4.382222573E+02  8.369668395E+02  1.250000000E+02  0.00000E+00  9.000E+00
      25     1     1     2     0     0 -3.637764049E+02 -6.925501039E+02  5.255957693E+02  9.507022835E+02  1.250000000E+02  0.00000E+00  9.000E+00
      21     1     1     2   502   511 -6.762477296E-01  9.253009786E+01 -1.270696728E+02  1.571908969E+02  1.348699152E-06  0.00000E+00  9.000E+00
#rwgt            2          11   5.7296096072564605E-003           4      189616           0
</event>
<event>
      5   9999  3.19816E-02  2.98728E+01 -1.00000E+00  1.53168E-01
      21    -1     0     0   502   512  0.000000000E+00  0.000000000E+00  1.447988240E+03  1.447988240E+03  0.000000000E+00  0.00000E+00  9.000E+00
      21    -1     0     0   501   502  0.000000000E+00  0.000000000E+00 -9.220897599E+01  9.220897599E+01  0.000000000E+00  0.00000E+00  9.000E+00
      25     1     1     2     0     0  2.642630772E+02 -1.179589100E+02  5.488458674E+02  6.329344868E+02  1.250000000E+02  0.00000E+00  9.000E+00
      25     1     1     2     0     0 -2.756313227E+02  1.455840384E+02  5.216008617E+02  6.203706933E+02  1.250000000E+02  0.00000E+00  9.000E+00
      21     1     1     2   501   512  1.136824547E+01 -2.762512839E+01  2.853325347E+02  2.868920355E+02  3.814697266E-06  0.00000E+00  9.000E+00
#rwgt            1           1   3.0278048521582925E-002           4      189636           0
</event>
<event>
      5   9999  3.19816E-02  6.21155E+01 -1.00000E+00  1.33904E-01
      21    -1     0     0   502   511  0.000000000E+00  0.000000000E+00  1.928433181E+02  1.928433181E+02  0.000000000E+00  0.00000E+00  9.000E+00
      21    -1     0     0   501   502  0.000000000E+00  0.000000000E+00 -1.374611608E+03  1.374611608E+03  0.000000000E+00  0.00000E+00  9.000E+00
      25     1     1     2     0     0  4.188416206E+02  1.808967463E+02 -7.887170625E+02  9.197018760E+02  1.250000000E+02  0.00000E+00  9.000E+00
      25     1     1     2     0     0 -3.569765401E+02 -1.864686920E+02 -4.047919373E+02  5.845377112E+02  1.250000000E+02  0.00000E+00  9.000E+00
      21     1     1     2   501   511 -6.186508059E+01  5.571945683E+00  1.174071015E+01  6.321533872E+01  1.192092896E-06  0.00000E+00  9.000E+00
#rwgt            1           1   2.7528311978666717E-002           4      189769           0
</event>
<event>
      5   9999  3.19816E-02  3.27495E+02 -1.00000E+00  1.04369E-01
      21    -1     0     0   512   501  0.000000000E+00  0.000000000E+00  9.906052981E+02  9.906052981E+02  0.000000000E+00  0.00000E+00  9.000E+00
      21    -1     0     0   501   502  0.000000000E+00  0.000000000E+00 -5.241089434E+02  5.241089434E+02  0.000000000E+00  0.00000E+00  9.000E+00
      25     1     1     2     0     0  2.162235801E+01 -7.993920577E+01  6.454828723E+02  6.626695567E+02  1.250000000E+02  0.00000E+00  9.000E+00
      25     1     1     2     0     0  9.121793157E+01  3.873808223E+02 -2.879730382E+02  5.068906029E+02  1.250000000E+02  0.00000E+00  9.000E+00
      21     1     1     2   512   502 -1.128402896E+02 -3.074416166E+02  1.089865206E+02  3.451540819E+02  3.303624740E-06  0.00000E+00  9.000E+00
#rwgt            2          11   3.7357136564243713E-003           4      189970           0
</event>
<event>
      5   9999  3.19816E-02  1.75859E+01 -1.00000E+00  1.71114E-01
      21    -1     0     0   511   501  0.000000000E+00  0.000000000E+00  1.688518883E+02  1.688518883E+02  0.000000000E+00  0.00000E+00  9.000E+00
      21    -1     0     0   501   502  0.000000000E+00  0.000000000E+00 -1.495417431E+03  1.495417431E+03  0.000000000E+00  0.00000E+00  9.000E+00
      25     1     1     2     0     0  3.653682632E+02  2.011431539E+02 -9.954287234E+02  1.086487864E+03  1.250000000E+02  0.00000E+00  9.000E+00
      25     1     1     2     0     0 -3.723668518E+02 -2.172764142E+02 -3.345915611E+02  5.598594692E+02  1.250000000E+02  0.00000E+00  9.000E+00
      21     1     1     2   511   502  6.998588659E+00  1.613326026E+01  3.454741876E+00  1.792198569E+01  3.862822472E-07  0.00000E+00  9.000E+00
#rwgt            1           1   2.7963001566808223E-002           4      190020           0
</event>
<event>
      5   9999  3.19816E-02  1.82633E+01 -1.00000E+00  1.69691E-01
      21    -1     0     0   512   501  0.000000000E+00  0.000000000E+00  9.457507311E+02  9.457507311E+02  0.000000000E+00  0.00000E+00  9.000E+00
      21    -1     0     0   501   502  0.000000000E+00  0.000000000E+00 -1.321050408E+02  1.321050408E+02  0.000000000E+00  0.00000E+00  9.000E+00
      25     1     1     2     0     0 -1.264389914E+02 -1.652876749E+02  3.526167223E+01  2.453063789E+02  1.250000000E+02  0.00000E+00  9.000E+00
      25     1     1     2     0     0  1.145793341E+02  1.791763958E+02  5.424635385E+02  5.959230615E+02  1.250000000E+02  0.00000E+00  9.000E+00
      21     1     1     2   512   502  1.185965728E+01 -1.388872092E+01  2.359204795E+02  2.366263314E+02  0.000000000E+00  0.00000E+00  9.000E+00
#rwgt            1           1   3.0654985412251669E-002           4      190348           0
</event>
<event>
      5   9999  3.19816E-02  6.58128E+01 -1.00000E+00  1.32592E-01
      21    -1     0     0   502   501  0.000000000E+00  0.000000000E+00  2.105325754E+03  2.105325754E+03  0.000000000E+00  0.00000E+00  9.000E+00
      21    -1     0     0   501   511  0.000000000E+00  0.000000000E+00 -6.910380962E+02  6.910380962E+02  0.000000000E+00  0.00000E+00  9.000E+00
      25     1     1     2     0     0 -6.254022361E+02  1.428797494E+02  1.653515433E+03  1.777999119E+03  1.250000000E+02  0.00000E+00  9.000E+00
      25     1     1     2     0     0  5.825171131E+02 -9.295794485E+01  1.518300393E+02  6.218076289E+02  1.250000000E+02  0.00000E+00  9.000E+00
      21     1     1     2   502   511  4.288512304E+01 -4.992180453E+01 -3.910578150E+02  3.965571019E+02  9.344061824E-06  0.00000E+00  9.000E+00
#rwgt            1           1   3.0735967345922634E-002           4      190548           0
</event>
<event>
      5   9999  3.19816E-02  8.51797E+01 -1.00000E+00  1.27044E-01
      21    -1     0     0   502   512  0.000000000E+00  0.000000000E+00  2.591159963E+02  2.591159963E+02  0.000000000E+00  0.00000E+00  9.000E+00
      21    -1     0     0   501   502  0.000000000E+00  0.000000000E+00 -4.734339273E+02  4.734339273E+02  0.000000000E+00  0.00000E+00  9.000E+00
      25     1     1     2     0     0 -1.194549267E+02  2.044750154E+02 -1.134259604E+02  2.908091469E+02  1.250000000E+02  0.00000E+00  9.000E+00
      25     1     1     2     0     0  1.718424928E+02 -2.716399628E+02 -8.017268852E+01  3.540773528E+02  1.250000000E+02  0.00000E+00  9.000E+00
      21     1     1     2   501   512 -5.238756617E+01  6.716494745E+01 -2.071928212E+01  8.766342399E+01  6.307962682E-07  0.00000E+00  9.000E+00
#rwgt            1           1   2.6999547164466418E-002           4      190688           0
</event>
<event>
      5   9999  3.19816E-02  1.89130E+01 -1.00000E+00  1.68397E-01
      21    -1     0     0   511   501  0.000000000E+00  0.000000000E+00  4.165729925E+02  4.165729925E+02  0.000000000E+00  0.00000E+00  9.000E+00
      21    -1     0     0   501   502  0.000000000E+00  0.000000000E+00 -8.971162916E+01  8.971162916E+01  0.000000000E+00  0.00000E+00  9.000E+00
      25     1     1     2     0     0  5.163780270E+01  9.929064862E+01  4.755707428E+01  1.743897098E+02  1.250000000E+02  0.00000E+00  9.000E+00
      25     1     1     2     0     0 -5.792357394E+01 -8.145274928E+01  2.432094365E+02  2.911451885E+02  1.250000000E+02  0.00000E+00  9.000E+00
      21     1     1     2   511   502  6.285771235E+00 -1.783789934E+01  3.609485255E+01  4.074972335E+01  0.000000000E+00  0.00000E+00  9.000E+00
#rwgt            1           1   2.6318700906030570E-002           4      190742           0
</event>
<event>
      5   9999  3.19816E-02  2.84851E+01 -1.00000E+00  1.54619E-01
      21    -1     0     0   502   501  0.000000000E+00  0.000000000E+00  2.660796990E+02  2.660796990E+02  0.000000000E+00  0.00000E+00  9.000E+00
       2    -1     0     0   501     0  0.000000000E+00  0.000000000E+00 -1.916050220E+03  1.916050220E+03  0.000000000E+00  0.00000E+00  9.000E+00
      25     1     1     2     0     0 -6.384896395E+01 -3.425542570E+01 -4.226473280E+02  4.466608202E+02  1.250000000E+02  0.00000E+00  9.000E+00
      25     1     1     2     0     0  7.911235463E+01  1.020489263E+01  2.322867269E+02  2.755812548E+02  1.250000000E+02  0.00000E+00  9.000E+00
       2     1     1     2   502     0 -1.526339068E+01  2.405053307E+01 -1.459609920E+03  1.459887844E+03  2.157918644E-05  0.00000E+00  9.000E+00
#rwgt            1           1   2.7959325916929338E-002           4      190869           0
</event>
<event>
      5   9999  3.19816E-02  3.89771E+01 -1.00000E+00  1.45541E-01
      21    -1     0     0   502   501  0.000000000E+00  0.000000000E+00  1.322725536E+02  1.322725536E+02  0.000000000E+00  0.00000E+00  9.000E+00
       2    -1     0     0   501     0  0.000000000E+00  0.000000000E+00 -2.394620447E+03  2.394620447E+03  0.000000000E+00  0.00000E+00  9.000E+00
      25     1     1     2     0     0  1.228639551E+02 -3.780014237E+02 -9.739091831E+02  1.059294447E+03  1.250000000E+02  0.00000E+00  9.000E+00
      25     1     1     2     0     0 -1.514874399E+02  4.044572020E+02 -4.780403065E+02  6.562633674E+02  1.250000000E+02  0.00000E+00  9.000E+00
       2     1     1     2   502     0  2.862348489E+01 -2.645577834E+01 -8.103984041E+02  8.113351868E+02  1.078959322E-05  0.00000E+00  9.000E+00
#rwgt            1           1   2.8157919177719783E-002           4      191003           0
</event>
<event>
      5   9999  3.19816E-02  6.33402E+00 -1.00000E+00  2.21879E-01
      21    -1     0     0   502   511  0.000000000E+00  0.000000000E+00  1.145842166E+03  1.145842166E+03  0.000000000E+00  0.00000E+00  9.000E+00
      21    -1     0     0   501   502  0.000000000E+00  0.000000000E+00 -1.048349577E+02  1.048349577E+02  0.000000000E+00  0.00000E+00  9.000E+00
      25     1     1     2     0     0 -1.548540398E+02 -2.652056223E+02  3.768021112E+02  5.019149597E+02  1.250000000E+02  0.00000E+00  9.000E+00
      25     1     1     2     0     0  1.610288377E+02  2.666169080E+02  6.284756164E+02  7.124755874E+02  1.250000000E+02  0.00000E+00  9.000E+00
      21     1     1     2   501   511 -6.174797855E+00 -1.411285640E+00  3.572948096E+01  3.628657693E+01  8.259061849E-07  0.00000E+00  9.000E+00
#rwgt            1           1   3.3841349439359361E-002           4      191114           0
</event>
<event>
      5   9999  3.19816E-02  2.64710E+02 -1.00000E+00  1.07389E-01
       2    -1     0     0   502     0  0.000000000E+00  0.000000000E+00  3.125994532E+03  3.125994532E+03  0.000000000E+00  0.00000E+00  9.000E+00
      21    -1     0     0   501   502  0.000000000E+00  0.000000000E+00 -6.046586850E+01  6.046586850E+01  0.000000000E+00  0.00000E+00  9.000E+00
      25     1     1     2     0     0 -1.365248636E+02 -1.441906830E+02  1.074738221E+03  1.100053287E+03  1.250000000E+02  0.00000E+00  9.000E+00
      25     1     1     2     0     0  3.248734735E+02 -4.180922267E+01  1.305853808E+03  1.352098352E+03  1.250000000E+02  0.00000E+00  9.000E+00
       2     1     1     2   501     0 -1.883486098E+02  1.859999057E+02  6.849366344E+02  7.343087613E+02  1.525878906E-05  0.00000E+00  9.000E+00
#rwgt            2          18   3.9444268566414349E-003           4      191378           0
</event>
<event>
      5   9999  3.19816E-02  1.59603E+01 -1.00000E+00  1.74882E-01
      21    -1     0     0   502   511  0.000000000E+00  0.000000000E+00  5.422126905E+02  5.422126905E+02  0.000000000E+00  0.00000E+00  9.000E+00
      21    -1     0     0   501   502  0.000000000E+00  0.000000000E+00 -1.758403570E+02  1.758403570E+02  0.000000000E+00  0.00000E+00  9.000E+00
      25     1     1     2     0     0  1.164635076E+02  1.712976818E+01  4.411212504E+02  4.733604706E+02  1.250000000E+02  0.00000E+00  9.000E+00
      25     1     1     2     0     0 -1.316541106E+02 -2.202625825E+01 -1.047212949E+02  2.107356412E+02  1.250000000E+02  0.00000E+00  9.000E+00
      21     1     1     2   501   511  1.519060299E+01  4.896490073E+00  2.997237797E+01  3.395693560E+01  3.371747881E-07  0.00000E+00  9.000E+00
#rwgt            1           1   3.0502405202358508E-002           4      191397           0
</event>
<event>
      5   9999  3.19816E-02  5.35919E+01 -1.00000E+00  1.37378E-01
      21    -1     0     0   502   501  0.000000000E+00  0.000000000E+00  1.141457066E+02  1.141457066E+02  0.000000000E+00  0.00000E+00  9.000E+00
      21    -1     0     0   501   512  0.000000000E+00  0.000000000E+00 -3.739982515E+03  3.739982515E+03  0.000000000E+00  0.00000E+00  9.000E+00
      25     1     1     2     0     0  4.478599605E+02 -3.151204937E+02 -1.290333638E+03  1.407290079E+03  1.250000000E+02  0.00000E+00  9.000E+00
      25     1     1     2     0     0 -3.970963923E+02  3.323004515E+02 -1.234313720E+03  1.344345377E+03  1.250000000E+02  0.00000E+00  9.000E+00
      21     1     1     2   502   512 -5.076356823E+01 -1.717995774E+01 -1.101189450E+03  1.102492765E+03  1.525878906E-05  0.00000E+00  9.000E+00
#rwgt            1           1   7.1313911396603161E-002           4      191490           0
</event>
<event>
      5   9999  3.19816E-02  1.60281E+02 -1.00000E+00  1.15264E-01
      -3    -1     0     0     0   501  0.000000000E+00  0.000000000E+00  5.040127226E+02  5.040127226E+02  0.000000000E+00  0.00000E+00  9.000E+00
      21    -1     0     0   501   502  0.000000000E+00  0.000000000E+00 -1.824898092E+02  1.824898092E+02  0.000000000E+00  0.00000E+00  9.000E+00
      25     1     1     2     0     0 -1.175579048E+02  8.740638394E+01  1.538509420E+02  2.464849880E+02  1.250000000E+02  0.00000E+00  9.000E+00
      25     1     1     2     0     0 -2.030899972E+01 -5.659329006E+00 -7.641068012E+01  1.480137680E+02  1.250000000E+02  0.00000E+00  9.000E+00
      -3     1     1     2     0   502  1.378669046E+02 -8.174705493E+01  2.440826515E+02  2.920037759E+02  5.394796609E-06  0.00000E+00  9.000E+00
#rwgt            2           3   5.2880944038609521E-005           4      191790           0
</event>
<event>
      5   9999  3.19816E-02  5.38582E+01 -1.00000E+00  1.37258E-01
       2    -1     0     0   502     0  0.000000000E+00  0.000000000E+00  2.056854136E+03  2.056854136E+03  0.000000000E+00  0.00000E+00  9.000E+00
      21    -1     0     0   501   502  0.000000000E+00  0.000000000E+00 -3.692625086E+01  3.692625086E+01  0.000000000E+00  0.00000E+00  9.000E+00
      25     1     1     2     0     0 -1.214976746E+02  1.074879422E+02  5.529350574E+02  5.896418577E+02  1.250000000E+02  0.00000E+00  9.000E+00
      25     1     1     2     0     0  8.677350640E+01 -6.631837570E+01  3.665952318E+02  4.024236975E+02  1.250000000E+02  0.00000E+00  9.000E+00
       2     1     1     2   501     0  3.472416820E+01 -4.116956649E+01  1.100397596E+03  1.101714832E+03  1.525878906E-05  0.00000E+00  9.000E+00
#rwgt            1           1   2.8335144857302465E-002           4      191824           0
</event>
<event>
      5   9999  3.19816E-02  3.67863E+01 -1.00000E+00  1.47133E-01
      21    -1     0     0   502   501  0.000000000E+00  0.000000000E+00  1.139863944E+03  1.139863944E+03  0.000000000E+00  0.00000E+00  9.000E+00
      -3    -1     0     0     0   502  0.000000000E+00  0.000000000E+00 -3.805429773E+02  3.805429773E+02  0.000000000E+00  0.00000E+00  9.000E+00
      25     1     1     2     0     0 -2.311475301E+02  3.092510464E+02 -2.000956668E+02  4.524695197E+02  1.250000000E+02  0.00000E+00  9.000E+00
      25     1     1     2     0     0  2.106619120E+02 -2.786965974E+02  9.619837725E+02  1.031061595E+03  1.250000000E+02  0.00000E+00  9.000E+00
      -3     1     1     2     0   501  2.048561810E+01 -3.055444906E+01 -2.567138886E+00  3.687580654E+01  1.003590717E-06  0.00000E+00  9.000E+00
#rwgt            1           1   2.4637845627751752E-002           4      191889           0
</event>
<event>
      5   9999  3.19816E-02  1.35063E+01 -1.00000E+00  1.81786E-01
      21    -1     0     0   511   501  0.000000000E+00  0.000000000E+00  2.441349653E+01  2.441349653E+01  0.000000000E+00  0.00000E+00  9.000E+00
      21    -1     0     0   501   502  0.000000000E+00  0.000000000E+00 -2.264710047E+03  2.264710047E+03  0.000000000E+00  0.00000E+00  9.000E+00
      25     1     1     2     0     0 -1.531318389E+02 -9.105262669E+01 -1.258722456E+03  1.277398592E+03  1.250000000E+02  0.00000E+00  9.000E+00
      25     1     1     2     0     0  1.611545107E+02  8.018722297E+01 -9.682938265E+02  9.927833104E+02  1.250000000E+02  0.00000E+00  9.000E+00
      21     1     1     2   511   502 -8.022671830E+00  1.086540372E+01 -1.328026812E+01  1.894164150E+01  2.920019320E-07  0.00000E+00  9.000E+00
#rwgt            1           1   7.3711114015509768E-002           4      192029           0
</event>
<event>
      5   9999  3.19816E-02  4.55693E+00 -1.00000E+00  2.50807E-01
      21    -1     0     0   502   501  0.000000000E+00  0.000000000E+00  5.456451297E+02  5.456451297E+02  0.000000000E+00  0.00000E+00  9.000E+00
       1    -1     0     0   501     0  0.000000000E+00  0.000000000E+00 -1.964572685E+03  1.964572685E+03  0.000000000E+00  0.00000E+00  9.000E+00
      25     1     1     2     0     0  4.628161667E+01  6.340076563E+02 -2.197245125E+02  6.841137023E+02  1.250000000E+02  0.00000E+00  9.000E+00
      25     1     1     2     0     0 -5.082316988E+01 -6.336336321E+02 -2.130005169E+01  6.481923067E+02  1.250000000E+02  0.00000E+00  9.000E+00
       1     1     1     2   502     0  4.541553210E+00 -3.740242377E-01 -1.177902991E+03  1.177911806E+03  0.000000000E+00  0.00000E+00  9.000E+00
#rwgt            1           1   2.9079896729540054E-002           4      192209           0
</event>
<event>
      5   9999  3.19816E-02  6.92107E+01 -1.00000E+00  1.31471E-01
      21    -1     0     0   502   501  0.000000000E+00  0.000000000E+00  3.475571078E+02  3.475571078E+02  0.000000000E+00  0.00000E+00  9.000E+00
      21    -1     0     0   511   502  0.000000000E+00  0.000000000E+00 -8.196125556E+02  8.196125556E+02  0.000000000E+00  0.00000E+00  9.000E+00
      25     1     1     2     0     0 -4.583216321E+01 -2.944459338E+01 -6.420823012E+01  1.507158521E+02  1.250000000E+02  0.00000E+00  9.000E+00
      25     1     1     2     0     0  6.436829618E+01  9.612690332E+01  2.785940664E+02  3.265322540E+02  1.250000000E+02  0.00000E+00  9.000E+00
      21     1     1     2   511   501 -1.853613297E+01 -6.668230994E+01 -6.864412841E+02  6.899215572E+02  1.525878906E-05  0.00000E+00  9.000E+00
#rwgt            1           1   2.4634120754612885E-002           4      192692           0
</event>
<event>
      5   9999  3.19816E-02  8.93810E+01 -1.00000E+00  1.26061E-01
       2    -1     0     0   502     0  0.000000000E+00  0.000000000E+00  2.869294221E+03  2.869294221E+03  0.000000000E+00  0.00000E+00  9.000E+00
      21    -1     0     0   501   502  0.000000000E+00  0.000000000E+00 -3.242522657E+01  3.242522657E+01  0.000000000E+00  0.00000E+00  9.000E+00
      25     1     1     2     0     0 -5.849831244E+01  1.842274325E+02  1.439689239E+03  1.457975276E+03  1.250000000E+02  0.00000E+00  9.000E+00
      25     1     1     2     0     0 -7.917001722E+00 -2.440435855E+02  1.060634728E+03  1.095532280E+03  1.250000000E+02  0.00000E+00  9.000E+00
       2     1     1     2   501     0  6.641531416E+01  5.981615304E+01  3.365450274E+02  3.482118918E+02  0.000000000E+00  0.00000E+00  9.000E+00
#rwgt            2          18   1.2909122943906835E-003           4      192761           0
</event>
<event>
      5   9999  3.19816E-02  4.22206E+01 -1.00000E+00  1.43400E-01
      21    -1     0     0   502   501  0.000000000E+00  0.000000000E+00  1.356543220E+02  1.356543220E+02  0.000000000E+00  0.00000E+00  9.000E+00
      21    -1     0     0   501   511  0.000000000E+00  0.000000000E+00 -8.712706131E+02  8.712706131E+02  0.000000000E+00  0.00000E+00  9.000E+00
      25     1     1     2     0     0  2.560852902E+02  5.278638733E+01 -4.356673928E+02  5.232563003E+02  1.250000000E+02  0.00000E+00  9.000E+00
      25     1     1     2     0     0 -2.983059088E+02 -5.280894102E+01 -2.246014486E+02  3.972983893E+02  1.250000000E+02  0.00000E+00  9.000E+00
      21     1     1     2   502   511  4.222061852E+01  2.255368694E-02 -7.534744963E+01  8.637024547E+01  1.651812370E-06  0.00000E+00  9.000E+00
#rwgt            1           1   2.8548475121809518E-002           4      192780           0
</event>
<event>
      5   9999  3.19816E-02  1.47982E+01 -1.00000E+00  1.77939E-01
      21    -1     0     0   502   501  0.000000000E+00  0.000000000E+00  5.955349719E+02  5.955349719E+02  0.000000000E+00  0.00000E+00  9.000E+00
      21    -1     0     0   501   512  0.000000000E+00  0.000000000E+00 -4.853888849E+02  4.853888849E+02  0.000000000E+00  0.00000E+00  9.000E+00
      25     1     1     2     0     0  1.938986125E+02 -3.482617306E+02  3.888567826E+02  5.707166568E+02  1.250000000E+02  0.00000E+00  9.000E+00
      25     1     1     2     0     0 -2.029323789E+02  3.365408405E+02 -2.715557744E+02  4.937700136E+02  1.250000000E+02  0.00000E+00  9.000E+00
      21     1     1     2   502   512  9.033766386E+00  1.172089015E+01 -7.154921176E+00  1.643718644E+01  1.685873940E-07  0.00000E+00  9.000E+00
#rwgt            1           1   3.0891545805576896E-002           4      192880           0
</event>
<event>
      5   9999  3.19816E-02  6.16602E+01 -1.00000E+00  1.34073E-01
      21    -1     0     0   502   501  0.000000000E+00  0.000000000E+00  3.040784171E+02  3.040784171E+02  0.000000000E+00  0.00000E+00  9.000E+00
      21    -1     0     0   511   502  0.000000000E+00  0.000000000E+00 -6.315216866E+02  6.315216866E+02  0.000000000E+00  0.00000E+00  9.000E+00
      25     1     1     2     0     0  1.636586096E+02  3.178890909E+01  2.182040854E+02  3.017162544E+02  1.250000000E+02  0.00000E+00  9.000E+00
      25     1     1     2     0     0 -2.252540462E+02 -3.461328562E+01 -4.598551751E+02  5.282321904E+02  1.250000000E+02  0.00000E+00  9.000E+00
      21     1     1     2   511   501  6.159543661E+01  2.824376532E+00 -8.579217986E+01  1.056516590E+02  1.907348633E-06  0.00000E+00  9.000E+00
#rwgt            1           1   2.9643728551091340E-002           4      193100           0
</event>
<event>
      5   9999  3.19816E-02  1.38927E+02 -1.00000E+00  1.17729E-01
      21    -1     0     0   502   512  0.000000000E+00  0.000000000E+00  1.177637239E+03  1.177637239E+03  0.000000000E+00  0.00000E+00  9.000E+00
      21    -1     0     0   501   502  0.000000000E+00  0.000000000E+00 -1.032064114E+02  1.032064114E+02  0.000000000E+00  0.00000E+00  9.000E+00
      25     1     1     2     0     0  1.160266037E+02 -1.758259841E+01  6.596176654E+02  6.815363417E+02  1.250000000E+02  0.00000E+00  9.000E+00
      25     1     1     2     0     0 -9.997438668E+01  1.555795970E+02  8.051763816E+01  2.372930236E+02  1.250000000E+02  0.00000E+00  9.000E+00
      21     1     1     2   501   512 -1.605221702E+01 -1.379969986E+02  3.342955241E+02  3.620142852E+02  3.814697266E-06  0.00000E+00  9.000E+00
#rwgt            2          11   2.6642041219640750E-003           4      193200           0
</event>
<event>
      5   9999  3.19816E-02  4.04555E+02 -1.00000E+00  1.01538E-01
      21    -1     0     0   502   501  0.000000000E+00  0.000000000E+00  5.049042081E+02  5.049042081E+02  0.000000000E+00  0.00000E+00  9.000E+00
      21    -1     0     0   511   502  0.000000000E+00  0.000000000E+00 -1.253318186E+03  1.253318186E+03  0.000000000E+00  0.00000E+00  9.000E+00
      25     1     1     2     0     0 -1.067093294E+02 -3.215133866E+02 -7.023860135E+02  7.897650604E+02  1.250000000E+02  0.00000E+00  9.000E+00
      25     1     1     2     0     0  2.660360723E+02 -5.034591837E+01  3.095611025E+02  4.298406443E+02  1.250000000E+02  0.00000E+00  9.000E+00
      21     1     1     2   511   501 -1.593267429E+02  3.718593049E+02 -3.555890668E+02  5.386166894E+02  8.529922400E-06  0.00000E+00  9.000E+00
#rwgt            2          11   2.6832708539494001E-003           4      193235           0
</event>
<event>
      5   9999  3.19816E-02  1.22623E+02 -1.00000E+00  1.19971E-01
      21    -1     0     0   512   501  0.000000000E+00  0.000000000E+00  1.607249794E+03  1.607249794E+03  0.000000000E+00  0.00000E+00  9.000E+00
      21    -1     0     0   501   502  0.000000000E+00  0.000000000E+00 -2.098477350E+02  2.098477350E+02  0.000000000E+00  0.00000E+00  9.000E+00
      25     1     1     2     0     0  3.546944148E+02  3.020081035E+02  2.770092260E+02  5.562159057E+02  1.250000000E+02  0.00000E+00  9.000E+00
      25     1     1     2     0     0 -2.474028082E+02 -3.613797740E+02  8.997708250E+02  1.008472126E+03  1.250000000E+02  0.00000E+00  9.000E+00
      21     1     1     2   512   502 -1.072916065E+02  5.937167057E+01  2.206220078E+02  2.524094975E+02  2.697398305E-06  0.00000E+00  9.000E+00
#rwgt            1           1   2.8479996019740675E-002           4      193285           0
</event>
<event>
      5   9999  3.19816E-02  7.02203E+01 -1.00000E+00  1.31152E-01
      21    -1     0     0   502   511  0.000000000E+00  0.000000000E+00  6.823239014E+01  6.823239014E+01  0.000000000E+00  0.00000E+00  9.000E+00
      21    -1     0     0   501   502  0.000000000E+00  0.000000000E+00 -1.582894709E+03  1.582894709E+03  0.000000000E+00  0.00000E+00  9.000E+00
      25     1     1     2     0     0  1.423735184E+02 -1.446942836E+02 -2.429555786E+02  3.403807686E+02  1.250000000E+02  0.00000E+00  9.000E+00
      25     1     1     2     0     0 -8.111019206E+01  1.790117823E+02 -1.114374943E+03  1.138455355E+03  1.250000000E+02  0.00000E+00  9.000E+00
      21     1     1     2   501   511 -6.126332638E+01 -3.431749869E+01 -1.573317976E+02  1.722909760E+02  2.697398305E-06  0.00000E+00  9.000E+00
#rwgt            1           1   3.3448330446059028E-002           4      193368           0
</event>
<event>
      5   9999  3.19816E-02  2.04505E+01 -1.00000E+00  1.65575E-01
      21    -1     0     0   512   501  0.000000000E+00  0.000000000E+00  8.173081212E+02  8.173081212E+02  0.000000000E+00  0.00000E+00  9.000E+00
      21    -1     0     0   501   502  0.000000000E+00  0.000000000E+00 -1.313943146E+03  1.313943146E+03  0.000000000E+00  0.00000E+00  9.000E+00
      25     1     1     2     0     0 -5.569256022E+02 -6.768241012E+02 -4.704803732E+02  1.002613471E+03  1.250000000E+02  0.00000E+00  9.000E+00
      25     1     1     2     0     0  5.608467988E+02  6.968951847E+02 -2.233037425E+02  9.304308634E+02  1.250000000E+02  0.00000E+00  9.000E+00
      21     1     1     2   512   502 -3.921196673E+00 -2.007108349E+01  1.971490909E+02  1.982069328E+02  3.814697266E-06  0.00000E+00  9.000E+00
#rwgt            1           1   3.2621270949152036E-002           4      193447           0
</event>
<event>
      5   9999  3.19816E-02  2.85413E+02 -1.00000E+00  1.06300E-01
      21    -1     0     0   502   501  0.000000000E+00  0.000000000E+00  1.223338886E+02  1.223338886E+02  0.000000000E+00  0.00000E+00  9.000E+00
      21    -1     0     0   501   511  0.000000000E+00  0.000000000E+00 -2.341286242E+03  2.341286242E+03  0.000000000E+00  0.00000E+00  9.000E+00
      25     1     1     2     0     0 -6.869223341E+01 -2.137111518E+02 -7.471685713E+02  7.901119878E+02  1.250000000E+02  0.00000E+00  9.000E+00
      25     1     1     2     0     0 -1.066188314E+02  4.389367145E+02 -6.338812762E+02  7.883295547E+02  1.250000000E+02  0.00000E+00  9.000E+00
      21     1     1     2   502   511  1.753110648E+02 -2.252255627E+02 -8.379025057E+02  8.851785879E+02  0.000000000E+00  0.00000E+00  9.000E+00
#rwgt            1           1   2.7476469324107383E-002           4      193654           0
</event>
<event>
      5   9999  3.19816E-02  2.20390E+02 -1.00000E+00  1.10134E-01
      21    -1     0     0   502   512  0.000000000E+00  0.000000000E+00  1.220304068E+02  1.220304068E+02  0.000000000E+00  0.00000E+00  9.000E+00
      21    -1     0     0   501   502  0.000000000E+00  0.000000000E+00 -1.513979548E+03  1.513979548E+03  0.000000000E+00  0.00000E+00  9.000E+00
      25     1     1     2     0     0  1.609858990E+02  2.290991032E+02 -1.122011443E+03  1.163158431E+03  1.250000000E+02  0.00000E+00  9.000E+00
      25     1     1     2     0     0 -1.885340912E+01 -6.066475746E+01 -2.338136183E+01  1.421525656E+02  1.250000000E+02  0.00000E+00  9.000E+00
      21     1     1     2   501   512 -1.421324899E+02 -1.684343457E+02 -2.465563366E+02  3.306989577E+02  6.607249480E-06  0.00000E+00  9.000E+00
#rwgt            1           1   1.9787881033774098E-002           4      193692           0
</event>
<event>
      5   9999  3.19816E-02  6.72846E+01 -1.00000E+00  1.32097E-01
      -1    -1     0     0     0   501  0.000000000E+00  0.000000000E+00  1.537535991E+02  1.537535991E+02  0.000000000E+00  0.00000E+00  9.000E+00
      21    -1     0     0   501   502  0.000000000E+00  0.000000000E+00 -8.095681747E+02  8.095681747E+02  0.000000000E+00  0.00000E+00  9.000E+00
      25     1     1     2     0     0 -1.471152639E+02  1.143004398E+02 -2.460517052E+02  3.329773762E+02  1.250000000E+02  0.00000E+00  9.000E+00
      25     1     1     2     0     0  9.029570596E+01 -7.826219326E+01 -4.935022527E+02  5.229223258E+02  1.250000000E+02  0.00000E+00  9.000E+00
      -1     1     1     2     0   502  5.681955790E+01 -3.603824655E+01  8.373938230E+01  1.074220719E+02  2.132480600E-06  0.00000E+00  9.000E+00
#rwgt            2           5   8.6200524409777709E-005           4      193758           0
</event>
<event>
      5   9999  3.19816E-02  1.38564E+01 -1.00000E+00  1.80691E-01
      21    -1     0     0   511   501  0.000000000E+00  0.000000000E+00  2.856771846E+02  2.856771846E+02  0.000000000E+00  0.00000E+00  9.000E+00
      21    -1     0     0   501   502  0.000000000E+00  0.000000000E+00 -4.442684475E+02  4.442684475E+02  0.000000000E+00  0.00000E+00  9.000E+00
      25     1     1     2     0     0 -1.860698075E+02  1.912066870E+01  1.494388735E+01  2.254681640E+02  1.250000000E+02  0.00000E+00  9.000E+00
      25     1     1     2     0     0  1.731984137E+02 -1.398977618E+01 -3.048165624E+02  3.724668321E+02  1.250000000E+02  0.00000E+00  9.000E+00
      21     1     1     2   511   502  1.287139380E+01 -5.130892519E+00  1.312814122E+02  1.320106360E+02  1.907348633E-06  0.00000E+00  9.000E+00
#rwgt            1           1   2.6279796294076310E-002           4      193777           0
</event>
<event>
      5   9999  3.19816E-02  1.94935E+02 -1.00000E+00  1.12055E-01
       1    -1     0     0   502     0  0.000000000E+00  0.000000000E+00  1.285328586E+02  1.285328586E+02  0.000000000E+00  0.00000E+00  9.000E+00
      21    -1     0     0   501   502  0.000000000E+00  0.000000000E+00 -1.049099358E+03  1.049099358E+03  0.000000000E+00  0.00000E+00  9.000E+00
      25     1     1     2     0     0  1.708567530E+02  2.519047010E+01 -2.081786136E+02  2.979763833E+02  1.250000000E+02  0.00000E+00  9.000E+00
      25     1     1     2     0     0 -2.523559026E+02  1.518897848E+02 -4.706389942E+02  5.691046223E+02  1.250000000E+02  0.00000E+00  9.000E+00
       1     1     1     2   501     0  8.149914957E+01 -1.770802549E+02 -2.417488917E+02  3.105512111E+02  4.672030912E-06  0.00000E+00  9.000E+00
#rwgt            1           1   3.5476438513191058E-002           4      193914           0
</event>
<event>
      5   9999  3.19816E-02  2.62332E+01 -1.00000E+00  1.57200E-01
      21    -1     0     0   511   501  0.000000000E+00  0.000000000E+00  4.956595470E+02  4.956595470E+02  0.000000000E+00  0.00000E+00  9.000E+00
      21    -1     0     0   501   502  0.000000000E+00  0.000000000E+00 -1.686842655E+03  1.686842655E+03  0.000000000E+00  0.00000E+00  9.000E+00
      25     1     1     2     0     0  6.405161071E+02 -4.068083628E+02 -1.343787107E+02  7.806641822E+02  1.250000000E+02  0.00000E+00  9.000E+00
      25     1     1     2     0     0 -6.472661644E+02  4.321582156E+02 -1.098816673E+03  1.352308135E+03  1.250000000E+02  0.00000E+00  9.000E+00
      21     1     1     2   511   502  6.750057294E+00 -2.534985278E+01  4.201227497E+01  4.952988550E+01  4.768371582E-07  0.00000E+00  9.000E+00
#rwgt            1           1   1.0344768382269862E-002           4      193964           0
</event>
<event>
      5   9999  3.19816E-02  1.46507E+01 -1.00000E+00  1.78353E-01
      21    -1     0     0   512   501  0.000000000E+00  0.000000000E+00  1.958036880E+03  1.958036880E+03  0.000000000E+00  0.00000E+00  9.000E+00
      21    -1     0     0   501   502  0.000000000E+00  0.000000000E+00 -7.641120490E+01  7.641120490E+01  0.000000000E+00  0.00000E+00  9.000E+00
      25     1     1     2     0     0 -1.292220095E+02  1.658336490E+02  1.540599479E+02  2.890650349E+02  1.250000000E+02  0.00000E+00  9.000E+00
      25     1     1     2     0     0  1.271653158E+02 -1.513280076E+02  1.642089662E+03  1.658660497E+03  1.250000000E+02  0.00000E+00  9.000E+00
      21     1     1     2   512   502  2.056693719E+00 -1.450564132E+01  8.547606439E+01  8.672255302E+01  1.651812370E-06  0.00000E+00  9.000E+00
#rwgt            1           1   3.5186939215523308E-002           4      194189           0
</event>
<event>
      5   9999  3.19816E-02  1.55223E+01 -1.00000E+00  1.75994E-01
      21    -1     0     0   502   501  0.000000000E+00  0.000000000E+00  1.596788665E+02  1.596788665E+02  0.000000000E+00  0.00000E+00  9.000E+00
      21    -1     0     0   511   502  0.000000000E+00  0.000000000E+00 -1.379490857E+03  1.379490857E+03  0.000000000E+00  0.00000E+00  9.000E+00
      25     1     1     2     0     0  3.570966001E+02  2.373835838E+02 -6.327396194E+02  7.745020165E+02  1.250000000E+02  0.00000E+00  9.000E+00
      25     1     1     2     0     0 -3.483422700E+02 -2.502017067E+02 -4.770788128E+02  6.535842904E+02  1.250000000E+02  0.00000E+00  9.000E+00
      21     1     1     2   511   501 -8.754330095E+00  1.281812290E+01 -1.099935586E+02  1.110834169E+02  1.907348633E-06  0.00000E+00  9.000E+00
#rwgt            1           1   3.0198492348358821E-002           4      194432           0
</event>
<event>
      5   9999  3.19816E-02  5.80158E+01 -1.00000E+00  1.35489E-01
      21    -1     0     0   502   512  0.000000000E+00  0.000000000E+00  1.606895408E+03  1.606895408E+03  0.000000000E+00  0.00000E+00  9.000E+00
      21    -1     0     0   501   502  0.000000000E+00  0.000000000E+00 -7.031940989E+02  7.031940989E+02  0.000000000E+00  0.00000E+00  9.000E+00
      25     1     1     2     0     0  2.166597611E+02  2.849362049E+02 -6.110551846E+02  7.191269231E+02  1.250000000E+02  0.00000E+00  9.000E+00
      25     1     1     2     0     0 -2.670534151E+02 -2.561905465E+02  1.010309435E+03  1.083190323E+03  1.250000000E+02  0.00000E+00  9.000E+00
      21     1     1     2   501   512  5.039365403E+01 -2.874565839E+01  5.044470589E+02  5.077722605E+02  7.629394531E-06  0.00000E+00  9.000E+00
#rwgt            1           1   3.1642374115854952E-002           4      194679           0
</event>
<event>
      5   9999  3.19816E-02  1.04578E+02 -1.00000E+00  1.22960E-01
      21    -1     0     0   502   511  0.000000000E+00  0.000000000E+00  1.184523183E+03  1.184523183E+03  0.000000000E+00  0.00000E+00  9.000E+00
      21    -1     0     0   501   502  0.000000000E+00  0.000000000E+00 -6.037831845E+02  6.037831845E+02  0.000000000E+00  0.00000E+00  9.000E+00
      25     1     1     2     0     0 -2.846447245E+02  3.958544249E+02  8.664739462E+01  5.107407521E+02  1.250000000E+02  0.00000E+00  9.000E+00
      25     1     1     2     0     0  2.082287589E+02 -4.672493706E+02 -2.091330678E+02  5.666064158E+02  1.250000000E+02  0.00000E+00  9.000E+00
      21     1     1     2   501   511  7.641596563E+01  7.139494568E+01  7.032256718E+02  7.109591996E+02  7.629394531E-06  0.00000E+00  9.000E+00
#rwgt            1           1   2.8771842352421608E-002           4      194785           0
</event>
<event>
      5   9999  3.19816E-02  3.23493E+02 -1.00000E+00  1.04539E-01
      21    -1     0     0   502   512  0.000000000E+00  0.000000000E+00  6.091284350E+02  6.091284350E+02  0.000000000E+00  0.00000E+00  9.000E+00
      21    -1     0     0   501   502  0.000000000E+00  0.000000000E+00 -9.048452443E+02  9.048452443E+02  0.000000000E+00  0.00000E+00  9.000E+00
      25     1     1     2     0     0  8.890375702E+01  3.193392331E+01 -1.631002397E+02  2.261644129E+02  1.250000000E+02  0.00000E+00  9.000E+00
      25     1     1     2     0     0  1.664273274E+02  1.666955050E+02 -6.358868621E+02  6.895379236E+02  1.250000000E+02  0.00000E+00  9.000E+00
      21     1     1     2   501   512 -2.553310844E+02 -1.986294283E+02  5.032702925E+02  5.982713429E+02  5.394796609E-06  0.00000E+00  9.000E+00
#rwgt            1           1   6.1977737021547033E-002           4      194863           0
</event>
<event>
      5   9999  3.19816E-02  1.74365E+01 -1.00000E+00  1.71439E-01
      21    -1     0     0   502   501  0.000000000E+00  0.000000000E+00  2.008638065E+03  2.008638065E+03  0.000000000E+00  0.00000E+00  9.000E+00
      21    -1     0     0   501   511  0.000000000E+00  0.000000000E+00 -8.279235912E+01  8.279235912E+01  0.000000000E+00  0.00000E+00  9.000E+00
      25     1     1     2     0     0  1.856694436E+02  2.898939270E+02  5.752074768E+02  6.819092847E+02  1.250000000E+02  0.00000E+00  9.000E+00
      25     1     1     2     0     0 -1.829742428E+02 -2.726669657E+02  1.346518151E+03  1.391604462E+03  1.250000000E+02  0.00000E+00  9.000E+00
      21     1     1     2   502   511 -2.695200763E+00 -1.722696128E+01  4.120078662E+00  1.791667799E+01  3.862822472E-07  0.00000E+00  9.000E+00
#rwgt            1           1   2.5779426766662797E-002           4      194895           0
</event>
<event>
      5   9999  3.19816E-02  1.80484E+02 -1.00000E+00  1.13296E-01
       2    -1     0     0   502     0  0.000000000E+00  0.000000000E+00  2.039276238E+03  2.039276238E+03  0.000000000E+00  0.00000E+00  9.000E+00
      21    -1     0     0   501   502  0.000000000E+00  0.000000000E+00 -2.638222775E+02  2.638222775E+02  0.000000000E+00  0.00000E+00  9.000E+00
      25     1     1     2     0     0 -1.401269705E+02  5.474772673E+02  5.281662079E+02  7.835505531E+02  1.250000000E+02  0.00000E+00  9.000E+00
      25     1     1     2     0     0  9.424284022E+01 -3.729228342E+02  1.897995155E+02  4.467684068E+02  1.250000000E+02  0.00000E+00  9.000E+00
       2     1     1     2   501     0  4.588413026E+01 -1.745544331E+02  1.057488237E+03  1.072779556E+03  2.642899792E-05  0.00000E+00  9.000E+00
#rwgt            1           1   2.7288814783895762E-002           4      195077           0
</event>
<event>
      5   9999  3.19816E-02  1.15923E+02 -1.00000E+00  1.21009E-01
      21    -1     0     0   511   501  0.000000000E+00  0.000000000E+00  1.677893979E+03  1.677893979E+03  0.000000000E+00  0.00000E+00  9.000E+00
      21    -1     0     0   501   502  0.000000000E+00  0.000000000E+00 -1.318949466E+03  1.318949466E+03  0.000000000E+00  0.00000E+00  9.000E+00
      25     1     1     2     0     0  1.170981922E+01 -1.018345509E+03 -7.488476604E+02  1.270260805E+03  1.250000000E+02  0.00000E+00  9.000E+00
      25     1     1     2     0     0 -1.250202693E+00  9.028954420E+02  3.765739331E+02  9.862325635E+02  1.250000000E+02  0.00000E+00  9.000E+00
      21     1     1     2   511   502 -1.045961653E+01  1.154500665E+02  7.312182397E+02  7.403500763E+02  0.000000000E+00  0.00000E+00  9.000E+00
#rwgt            1           1   2.7482461035120861E-002           4      195122           0
</event>
<event>
      5   9999  3.19816E-02  4.43309E+01 -1.00000E+00  1.42125E-01
      21    -1     0     0   502   512  0.000000000E+00  0.000000000E+00  9.010834447E+02  9.010834447E+02  0.000000000E+00  0.00000E+00  9.000E+00
      21    -1     0     0   501   502  0.000000000E+00  0.000000000E+00 -7.778727172E+01  7.778727172E+01  0.000000000E+00  0.00000E+00  9.000E+00
      25     1     1     2     0     0  1.607554954E+02 -7.110487385E+01  4.631267448E+02  5.108910002E+02  1.250000000E+02  0.00000E+00  9.000E+00
      25     1     1     2     0     0 -1.973098622E+02  4.602487138E+01  2.322139363E+02  3.325624493E+02  1.250000000E+02  0.00000E+00  9.000E+00
      21     1     1     2   501   512  3.655436675E+01  2.508000247E+01  1.279554919E+02  1.354172669E+02  1.907348633E-06  0.00000E+00  9.000E+00
#rwgt            1           1   1.3386461081496430E-002           4      195233           0
</event>
<event>
      5   9999  3.19816E-02  5.65908E+01 -1.00000E+00  1.36075E-01
      21    -1     0     0   502   511  0.000000000E+00  0.000000000E+00  4.399323336E+02  4.399323336E+02  0.000000000E+00  0.00000E+00  9.000E+00
      21    -1     0     0   501   502  0.000000000E+00  0.000000000E+00 -1.660483821E+03  1.660483821E+03  0.000000000E+00  0.00000E+00  9.000E+00
      25     1     1     2     0     0 -4.951365146E+02  4.098139877E+02 -1.219537916E+03  1.384198469E+03  1.250000000E+02  0.00000E+00  9.000E+00
      25     1     1     2     0     0  5.311649626E+02 -3.661738119E+02  1.528545160E+01  6.573264965E+02  1.250000000E+02  0.00000E+00  9.000E+00
      21     1     1     2   501   511 -3.602844803E+01 -4.364017581E+01 -1.629902288E+01  5.889118915E+01  1.327458468E-06  0.00000E+00  9.000E+00
#rwgt            1           1   2.5611884533300534E-002           4      195343           0
</event>
<event>
      5   9999  3.19816E-02  5.55308E+01 -1.00000E+00  1.36525E-01
      21    -1     0     0   502   512  0.000000000E+00  0.000000000E+00  1.244510641E+03  1.244510641E+03  0.000000000E+00  0.00000E+00  9.000E+00
      21    -1     0     0   501   502  0.000000000E+00  0.000000000E+00 -4.359860311E+02  4.359860311E+02  0.000000000E+00  0.00000E+00  9.000E+00
      25     1     1     2     0     0 -5.637034456E+01 -7.365380583E+01  1.152399350E+03  1.162863604E+03  1.250000000E+02  0.00000E+00  9.000E+00
      25     1     1     2     0     0  7.222739773E+01  1.268724099E+02 -3.968161469E+02  4.409098092E+02  1.250000000E+02  0.00000E+00  9.000E+00
      21     1     1     2   501   512 -1.585705316E+01 -5.321860404E+01  5.294140680E+01  7.672325921E+01  0.000000000E+00  0.00000E+00  9.000E+00
#rwgt            1           1   2.8773752378411451E-002           4      195474           0
</event>
<event>
      5   9999  3.19816E-02  2.07325E+01 -1.00000E+00  1.65090E-01
      21    -1     0     0   502   501  0.000000000E+00  0.000000000E+00  4.240146376E+02  4.240146376E+02  0.000000000E+00  0.00000E+00  9.000E+00
      21    -1     0     0   501   511  0.000000000E+00  0.000000000E+00 -1.199618563E+02  1.199618563E+02  0.000000000E+00  0.00000E+00  9.000E+00
      25     1     1     2     0     0  1.279670258E+02  6.679718399E+00  2.655584807E+02  3.202600272E+02  1.250000000E+02  0.00000E+00  9.000E+00
      25     1     1     2     0     0 -1.451257678E+02 -1.831652890E+01  5.157375627E+01  1.992030021E+02  1.250000000E+02  0.00000E+00  9.000E+00
      21     1     1     2   502   511  1.715874198E+01  1.163681050E+01 -1.307945576E+01  2.451346462E+01  5.331201500E-07  0.00000E+00  9.000E+00
#rwgt            1           1   2.9617341553212120E-002           4      195654           0
</event>
<event>
      5   9999  3.19816E-02  3.09682E+01 -1.00000E+00  1.52088E-01
      21    -1     0     0   512   501  0.000000000E+00  0.000000000E+00  2.071049929E+03  2.071049929E+03  0.000000000E+00  0.00000E+00  9.000E+00
      21    -1     0     0   501   502  0.000000000E+00  0.000000000E+00 -1.836591106E+02  1.836591106E+02  0.000000000E+00  0.00000E+00  9.000E+00
      25     1     1     2     0     0  1.927808973E+02  3.365082953E+02  1.173678096E+02  4.240312606E+02  1.250000000E+02  0.00000E+00  9.000E+00
      25     1     1     2     0     0 -1.832000148E+02 -3.659571944E+02  1.714583215E+03  1.767175010E+03  1.250000000E+02  0.00000E+00  9.000E+00
      21     1     1     2   512   502 -9.580882578E+00  2.944889910E+01  5.543979344E+01  6.350276896E+01  6.743495762E-07  0.00000E+00  9.000E+00
#rwgt            1           1   3.0524223447434943E-002           4      195853           0
</event>
<event>
      5   9999  3.19816E-02  2.03989E+02 -1.00000E+00  1.11337E-01
      21    -1     0     0   502   511  0.000000000E+00  0.000000000E+00  1.678872054E+02  1.678872054E+02  0.000000000E+00  0.00000E+00  9.000E+00
      21    -1     0     0   501   502  0.000000000E+00  0.000000000E+00 -9.180583834E+02  9.180583834E+02  0.000000000E+00  0.00000E+00  9.000E+00
      25     1     1     2     0     0  5.301189494E+01  2.702005688E+02 -6.200807979E+02  6.898868054E+02  1.250000000E+02  0.00000E+00  9.000E+00
      25     1     1     2     0     0  5.211657839E+01 -9.538799698E+01 -8.873565863E+01  1.879202619E+02  1.250000000E+02  0.00000E+00  9.000E+00
      21     1     1     2   501   511 -1.051284733E+02 -1.748125718E+02 -4.135472150E+01  2.081385216E+02  2.286830675E-06  0.00000E+00  9.000E+00
#rwgt            1           1   2.6910195202051044E-002           4      196067           0
</event>
<event>
      5   9999  3.19816E-02  1.22086E+02 -1.00000E+00  1.20051E-01
      21    -1     0     0   502   501  0.000000000E+00  0.000000000E+00  2.035001106E+02  2.035001106E+02  0.000000000E+00  0.00000E+00  9.000E+00
       2    -1     0     0   501     0  0.000000000E+00  0.000000000E+00 -2.836015549E+03  2.836015549E+03  0.000000000E+00  0.00000E+00  9.000E+00
      25     1     1     2     0     0 -2.456798293E+01 -5.088285799E+01  1.483525042E+02  2.020547365E+02  1.250000000E+02  0.00000E+00  9.000E+00
      25     1     1     2     0     0  4.181405748E+01 -6.997868853E+01 -1.803843450E+02  2.341131012E+02  1.250000000E+02  0.00000E+00  9.000E+00
       2     1     1     2   502     0 -1.724607455E+01  1.208615465E+02 -2.600483598E+03  2.603347822E+03  5.285799584E-05  0.00000E+00  9.000E+00
#rwgt            1           1   3.3872574588111347E-002           4      196118           0
</event>
<event>
      5   9999  3.19816E-02  1.89843E+01 -1.00000E+00  1.68259E-01
      21    -1     0     0   511   501  0.000000000E+00  0.000000000E+00  2.028724401E+03  2.028724401E+03  0.000000000E+00  0.00000E+00  9.000E+00
      21    -1     0     0   501   502  0.000000000E+00  0.000000000E+00 -2.596232082E+02  2.596232082E+02  0.000000000E+00  0.00000E+00  9.000E+00
      25     1     1     2     0     0  3.501812920E+01  1.076330017E+02 -1.257285498E+02  2.103421039E+02  1.250000000E+02  0.00000E+00  9.000E+00
      25     1     1     2     0     0 -1.604587046E+01 -1.083094539E+02 -1.612783504E+01  1.669536308E+02  1.250000000E+02  0.00000E+00  9.000E+00
      21     1     1     2   511   502 -1.897225874E+01  6.764521669E-01  1.910957578E+03  1.911051875E+03  2.157918644E-05  0.00000E+00  9.000E+00
#rwgt            1           1   2.4956888029790708E-002           4      196196           0
</event>
<event>
      5   9999  3.19816E-02  3.56958E+01 -1.00000E+00  1.47975E-01
      21    -1     0     0   502   512  0.000000000E+00  0.000000000E+00  4.364257586E+02  4.364257586E+02  0.000000000E+00  0.00000E+00  9.000E+00
      21    -1     0     0   501   502  0.000000000E+00  0.000000000E+00 -3.044487155E+02  3.044487155E+02  0.000000000E+00  0.00000E+00  9.000E+00
      25     1     1     2     0     0 -3.020091040E+02 -3.250803222E+01  1.268993221E+02  3.521288244E+02  1.250000000E+02  0.00000E+00  9.000E+00
      25     1     1     2     0     0  2.917000448E+02 -1.666702322E+00 -5.183569864E+01  3.215643538E+02  1.250000000E+02  0.00000E+00  9.000E+00
      21     1     1     2   501   512  1.030905921E+01  3.417473455E+01  5.691341955E+01  6.718129582E+01  0.000000000E+00  0.00000E+00  9.000E+00
#rwgt            1           1   2.8718646328323955E-002           4      196314           0
</event>
<event>
      5   9999  3.19816E-02  9.28880E+01 -1.00000E+00  1.25286E-01
      21    -1     0     0   502   501  0.000000000E+00  0.000000000E+00  1.017309217E+03  1.017309217E+03  0.000000000E+00  0.00000E+00  9.000E+00
      21    -1     0     0   501   511  0.000000000E+00  0.000000000E+00 -8.219998631E+02  8.219998631E+02  0.000000000E+00  0.00000E+00  9.000E+00
      25     1     1     2     0     0  6.686912283E+02 -1.693592192E+02 -1.678323583E+02  7.208489470E+02  1.250000000E+02  0.00000E+00  9.000E+00
      25     1     1     2     0     0 -7.568785945E+02  1.401844456E+02  5.191912167E+02  9.368571957E+02  1.250000000E+02  0.00000E+00  9.000E+00
      21     1     1     2   502   511  8.818736624E+01  2.917477365E+01 -1.560495045E+02  1.816029373E+02  0.000000000E+00  0.00000E+00  9.000E+00
#rwgt            1           1   3.5305234379055757E-002           4      196500           0
</event>
<event>
      5   9999  3.19816E-02  2.49144E+01 -1.00000E+00  1.58863E-01
      -1    -1     0     0     0   501  0.000000000E+00  0.000000000E+00  7.369582859E+02  7.369582859E+02  0.000000000E+00  0.00000E+00  9.000E+00
      21    -1     0     0   501   502  0.000000000E+00  0.000000000E+00 -9.974469398E+02  9.974469398E+02  0.000000000E+00  0.00000E+00  9.000E+00
      25     1     1     2     0     0 -1.720534293E+01  2.170036195E+02 -3.350946312E+02  4.186884361E+02  1.250000000E+02  0.00000E+00  9.000E+00
      25     1     1     2     0     0  1.911550902E+00 -1.973357224E+02 -5.983323574E+02  6.423174069E+02  1.250000000E+02  0.00000E+00  9.000E+00
      -1     1     1     2     0   502  1.529379202E+01 -1.966789715E+01  6.729383347E+02  6.733993826E+02  1.321449896E-05  0.00000E+00  9.000E+00
#rwgt            1           1   2.3526160080134625E-002           4      196635           0
</event>
<event>
      5   9999  3.19816E-02  7.58453E+01 -1.00000E+00  1.29481E-01
      21    -1     0     0   502   511  0.000000000E+00  0.000000000E+00  1.023166008E+03  1.023166008E+03  0.000000000E+00  0.00000E+00  9.000E+00
      21    -1     0     0   501   502  0.000000000E+00  0.000000000E+00 -8.215950303E+02  8.215950303E+02  0.000000000E+00  0.00000E+00  9.000E+00
      25     1     1     2     0     0  3.085691482E+02 -3.457551313E+02 -3.563879767E+02  5.978285038E+02  1.250000000E+02  0.00000E+00  9.000E+00
      25     1     1     2     0     0 -3.579661661E+02  2.882013223E+02 -1.769866718E+02  5.080837138E+02  1.250000000E+02  0.00000E+00  9.000E+00
      21     1     1     2   501   511  4.939701785E+01  5.755380897E+01  7.349456261E+02  7.388488206E+02  1.078959322E-05  0.00000E+00  9.000E+00
#rwgt            1           1   3.0547104367387147E-002           4      196752           0
</event>
<event>
      5   9999  3.19816E-02  4.76658E+01 -1.00000E+00  1.40271E-01
      21    -1     0     0   502   501  0.000000000E+00  0.000000000E+00  9.145051118E+02  9.145051118E+02  0.000000000E+00  0.00000E+00  9.000E+00
      21    -1     0     0   501   512  0.000000000E+00  0.000000000E+00 -1.382173146E+02  1.382173146E+02  0.000000000E+00  0.00000E+00  9.000E+00
      25     1     1     2     0     0  1.965170369E+02  1.439861854E+02  4.261730797E+02  5.065564739E+02  1.250000000E+02  0.00000E+00  9.000E+00
      25     1     1     2     0     0 -2.099451546E+02 -1.897214799E+02  3.799311410E+02  4.899427311E+02  1.250000000E+02  0.00000E+00  9.000E+00
      21     1     1     2   502   512  1.342811765E+01  4.573529454E+01 -2.981642356E+01  5.622322140E+01  4.768371582E-07  0.00000E+00  9.000E+00
#rwgt            1           1   2.9990187272274267E-002           4      196850           0
</event>
<event>
      5   9999  3.19816E-02  8.15671E+01 -1.00000E+00  1.27943E-01
      21    -1     0     0   511   501  0.000000000E+00  0.000000000E+00  7.897556390E+02  7.897556390E+02  0.000000000E+00  0.00000E+00  9.000E+00
      21    -1     0     0   501   502  0.000000000E+00  0.000000000E+00 -1.575623385E+02  1.575623385E+02  0.000000000E+00  0.00000E+00  9.000E+00
      25     1     1     2     0     0  2.159079339E+01 -1.131506800E+02  6.478196696E+02  6.697496271E+02  1.250000000E+02  0.00000E+00  9.000E+00
      25     1     1     2     0     0 -5.541824794E+01  3.892877769E+01 -8.910650631E+01  1.677843896E+02  1.250000000E+02  0.00000E+00  9.000E+00
      21     1     1     2   511   502  3.382745455E+01  7.422190227E+01  7.348013727E+01  1.097839607E+02  1.348699152E-06  0.00000E+00  9.000E+00
#rwgt            1           1   2.8022380535477232E-002           4      196908           0
</event>
<event>
      5   9999  3.19816E-02  2.12054E+01 -1.00000E+00  1.64299E-01
      21    -1     0     0   512   501  0.000000000E+00  0.000000000E+00  4.879107320E+02  4.879107320E+02  0.000000000E+00  0.00000E+00  9.000E+00
      21    -1     0     0   501   502  0.000000000E+00  0.000000000E+00 -5.006510258E+02  5.006510258E+02  0.000000000E+00  0.00000E+00  9.000E+00
      25     1     1     2     0     0  1.098441223E+02 -2.318504108E+02 -4.085966620E+02  4.983939972E+02  1.250000000E+02  0.00000E+00  9.000E+00
      25     1     1     2     0     0 -9.989164498E+01  2.131256912E+02  3.776558013E+02  4.622226793E+02  1.250000000E+02  0.00000E+00  9.000E+00
      21     1     1     2   512   502 -9.952477331E+00  1.872471960E+01  1.820056698E+01  2.794508128E+01  4.129530925E-07  0.00000E+00  9.000E+00
#rwgt            1           1   2.9064452458123571E-002           4      196974           0
</event>
<event>
      5   9999  3.19816E-02  1.61627E+01 -1.00000E+00  1.74383E-01
      21    -1     0     0   502   511  0.000000000E+00  0.000000000E+00  1.961409032E+02  1.961409032E+02  0.000000000E+00  0.00000E+00  9.000E+00
      21    -1     0     0   501   502  0.000000000E+00  0.000000000E+00 -1.220742952E+03  1.220742952E+03  0.000000000E+00  0.00000E+00  9.000E+00
      25     1     1     2     0     0  4.262963097E+02  1.556982030E+02 -3.315939071E+02  5.758037801E+02  1.250000000E+02  0.00000E+00  9.000E+00
      25     1     1     2     0     0 -4.112538832E+02 -1.497857061E+02 -6.864163748E+02  8.236248866E+02  1.250000000E+02  0.00000E+00  9.000E+00
      21     1     1     2   501   511 -1.504242648E+01 -5.912496895E+00 -6.591766939E+00  1.745518850E+01  8.429369702E-08  0.00000E+00  9.000E+00
#rwgt            1           1   2.9195949030168918E-002           4      197155           0
</event>
<event>
      5   9999  3.19816E-02  1.56321E+01 -1.00000E+00  1.75711E-01
      21    -1     0     0   502   501  0.000000000E+00  0.000000000E+00  1.531185357E+02  1.531185357E+02  0.000000000E+00  0.00000E+00  9.000E+00
      21    -1     0     0   512   502  0.000000000E+00  0.000000000E+00 -5.836310460E+02  5.836310460E+02  0.000000000E+00  0.00000E+00  9.000E+00
      25     1     1     2     0     0 -2.504288267E+02  3.743253715E+01 -1.595328167E+02  3.243324092E+02  1.250000000E+02  0.00000E+00  9.000E+00
      25     1     1     2     0     0  2.653284646E+02 -3.270344686E+01 -2.544248190E+02  3.896481722E+02  1.250000000E+02  0.00000E+00  9.000E+00
      21     1     1     2   512   501 -1.489963787E+01 -4.729090290E+00 -1.655487458E+01  2.276900033E+01  3.371747881E-07  0.00000E+00  9.000E+00
#rwgt            1           1   2.4678628995184387E-002           4      197415           0
</event>
<event>
      5   9999  3.19816E-02  3.33214E+01 -1.00000E+00  1.49939E-01
      21    -1     0     0   502   501  0.000000000E+00  0.000000000E+00  3.743834290E+02  3.743834290E+02  0.000000000E+00  0.00000E+00  9.000E+00
      21    -1     0     0   501   511  0.000000000E+00  0.000000000E+00 -1.644423254E+02  1.644423254E+02  0.000000000E+00  0.00000E+00  9.000E+00
      25     1     1     2     0     0 -6.965978596E+01 -4.974886735E+01  2.492541581E+02  2.916848829E+02  1.250000000E+02  0.00000E+00  9.000E+00
      25     1     1     2     0     0  3.737165868E+01  4.151530182E+01  5.467089466E+01  1.474247872E+02  1.250000000E+02  0.00000E+00  9.000E+00
      21     1     1     2   502   511  3.228812728E+01  8.233565531E+00 -9.398394917E+01  9.971608429E+01  1.348699152E-06  0.00000E+00  9.000E+00
#rwgt            1           1   6.5203467546009891E-002           4      197549           0
</event>
<event>
      5   9999  3.19816E-02  1.49035E+01 -1.00000E+00  1.77648E-01
      21    -1     0     0   502   501  0.000000000E+00  0.000000000E+00  2.526932003E+02  2.526932003E+02  0.000000000E+00  0.00000E+00  9.000E+00
      21    -1     0     0   512   502  0.000000000E+00  0.000000000E+00 -1.431503354E+02  1.431503354E+02  0.000000000E+00  0.00000E+00  9.000E+00
      25     1     1     2     0     0  4.073468969E+01  9.771642023E+01  1.446597246E+02  2.185388973E+02  1.250000000E+02  0.00000E+00  9.000E+00
      25     1     1     2     0     0 -2.850198786E+01 -8.920319458E+01 -2.254414026E+01  1.578062467E+02  1.250000000E+02  0.00000E+00  9.000E+00
      21     1     1     2   512   501 -1.223270183E+01 -8.513225648E+00 -1.257271938E+01  1.949839167E+01  2.384185791E-07  0.00000E+00  9.000E+00
#rwgt            1           1   2.5878483896143185E-002           4      197651           0
</event>
<event>
      5   9999  3.19816E-02  2.80786E+01 -1.00000E+00  1.55064E-01
      21    -1     0     0   502   501  0.000000000E+00  0.000000000E+00  1.364803391E+02  1.364803391E+02  0.000000000E+00  0.00000E+00  9.000E+00
      21    -1     0     0   511   502  0.000000000E+00  0.000000000E+00 -6.970988424E+02  6.970988424E+02  0.000000000E+00  0.00000E+00  9.000E+00
      25     1     1     2     0     0  1.542057506E+02 -1.822968044E+02 -3.199794223E+02  4.183579438E+02  1.250000000E+02  0.00000E+00  9.000E+00
      25     1     1     2     0     0 -1.311480479E+02  1.662734133E+02 -8.980347922E+01  2.617944295E+02  1.250000000E+02  0.00000E+00  9.000E+00
      21     1     1     2   511   501 -2.305770263E+01  1.602339117E+01 -1.508356018E+02  1.534268082E+02  1.907348633E-06  0.00000E+00  9.000E+00
#rwgt            1           1   3.0534444013454870E-002           4      197815           0
</event>
<event>
      5   9999  3.19816E-02  3.75120E+01 -1.00000E+00  1.46591E-01
      21    -1     0     0   512   501  0.000000000E+00  0.000000000E+00  1.874760018E+02  1.874760018E+02  0.000000000E+00  0.00000E+00  9.000E+00
      21    -1     0     0   501   502  0.000000000E+00  0.000000000E+00 -6.839802246E+02  6.839802246E+02  0.000000000E+00  0.00000E+00  9.000E+00
      25     1     1     2     0     0  8.541112782E+01 -7.132818594E+01 -3.624719507E+02  3.992413881E+02  1.250000000E+02  0.00000E+00  9.000E+00
      25     1     1     2     0     0 -1.101947920E+02  4.316940038E+01 -2.760518994E+02  3.253246693E+02  1.250000000E+02  0.00000E+00  9.000E+00
      21     1     1     2   512   502  2.478366418E+01  2.815878557E+01  1.420196273E+02  1.468901690E+02  4.264961200E-06  0.00000E+00  9.000E+00
#rwgt            1           1   3.1522171644339299E-002           4      197972           0
</event>
<event>
      5   9999  3.19816E-02  7.62528E+01 -1.00000E+00  1.29366E-01
      21    -1     0     0   502   501  0.000000000E+00  0.000000000E+00  4.062271681E+03  4.062271681E+03  0.000000000E+00  0.00000E+00  9.000E+00
      21    -1     0     0   501   511  0.000000000E+00  0.000000000E+00 -8.070601543E+01  8.070601543E+01  0.000000000E+00  0.00000E+00  9.000E+00
      25     1     1     2     0     0  2.929424780E+02 -5.445092173E+00  1.565348611E+03  1.597431131E+03  1.250000000E+02  0.00000E+00  9.000E+00
      25     1     1     2     0     0 -2.307385753E+02  4.954916674E+01  2.448297843E+03  2.462820078E+03  1.250000000E+02  0.00000E+00  9.000E+00
      21     1     1     2   502   511 -6.220390273E+01 -4.410407456E+01 -3.208078743E+01  8.272648808E+01  6.031565972E-06  0.00000E+00  9.000E+00
#rwgt            1           1   5.7062359662117569E-003           4      198049           0
</event>
<event>
      5   9999  3.19816E-02  2.37626E+01 -1.00000E+00  1.60420E-01
      21    -1     0     0   502   512  0.000000000E+00  0.000000000E+00  9.220579931E+02  9.220579931E+02  0.000000000E+00  0.00000E+00  9.000E+00
      21    -1     0     0   501   502  0.000000000E+00  0.000000000E+00 -2.763112318E+02  2.763112318E+02  0.000000000E+00  0.00000E+00  9.000E+00
      25     1     1     2     0     0 -1.108492860E+02  6.837975930E+01 -1.625686899E+02  2.429340129E+02  1.250000000E+02  0.00000E+00  9.000E+00
      25     1     1     2     0     0  8.715564966E+01 -7.018877822E+01  2.251596937E+01  1.692765215E+02  1.250000000E+02  0.00000E+00  9.000E+00
      21     1     1     2   501   512  2.369363630E+01  1.809018926E+00  7.857994818E+02  7.861586905E+02  1.525878906E-05  0.00000E+00  9.000E+00
#rwgt            1           1   2.5952774340703023E-002           4      198109           0
</event>
<event>
      5   9999  3.68629E-02  5.61146E+01 -1.00000E+00  1.36276E-01
      21    -1     0     0   502   501  0.000000000E+00  0.000000000E+00  4.561382862E+03  4.561382862E+03  0.000000000E+00  0.00000E+00  9.000E+00
      21    -1     0     0   501   511  0.000000000E+00  0.000000000E+00 -5.444218531E+02  5.444218531E+02  0.000000000E+00  0.00000E+00  9.000E+00
      25     1     1     2     0     0  2.989444276E+01 -6.317312933E+01  3.803071868E+02  4.063779993E+02  1.250000000E+02  0.00000E+00  9.000E+00
      25     1     1     2     0     0 -2.953357461E+01  1.192865452E+02  4.164710041E+03  4.168397322E+03  1.250000000E+02  0.00000E+00  9.000E+00
      21     1     1     2   502   511 -3.608681488E-01 -5.611341592E+01 -5.280562192E+02  5.310293931E+02  0.000000000E+00  0.00000E+00  9.000E+00
#rwgt            1           1   2.4109212434875911E-003           4      198273           0
</event>
<event>
      5   9999  3.19816E-02  6.40243E+02 -1.00000E+00  9.58944E-02
       1    -1     0     0   502     0  0.000000000E+00  0.000000000E+00  2.092201846E+03  2.092201846E+03  0.000000000E+00  0.00000E+00  9.000E+00
      21    -1     0     0   501   502  0.000000000E+00  0.000000000E+00 -6.771915866E+02  6.771915866E+02  0.000000000E+00  0.00000E+00  9.000E+00
      25     1     1     2     0     0 -3.483547170E+01  3.050832770E+02  5.673232942E+02  6.570921063E+02  1.250000000E+02  0.00000E+00  9.000E+00
      25     1     1     2     0     0 -4.729009506E+02 -6.951024788E+02 -2.103785446E+02  8.756065881E+02  1.250000000E+02  0.00000E+00  9.000E+00
       1     1     1     2   501     0  5.077364223E+02  3.900192018E+02  1.058065510E+03  1.236694738E+03  0.000000000E+00  0.00000E+00  9.000E+00
#rwgt            2          17   4.6182609068196582E-004           4      198474           0
</event>
<event>
      5   9999  3.19816E-02  2.11066E+02 -1.00000E+00  1.10803E-01
      -2    -1     0     0     0   501  0.000000000E+00  0.000000000E+00  2.718146670E+02  2.718146670E+02  0.000000000E+00  0.00000E+00  9.000E+00
      21    -1     0     0   501   502  0.000000000E+00  0.000000000E+00 -5.154970628E+02  5.154970628E+02  0.000000000E+00  0.00000E+00  9.000E+00
      25     1     1     2     0     0 -7.929998453E+01  3.460309802E+01  8.401387740E+01  1.736928137E+02  1.250000000E+02  0.00000E+00  9.000E+00
      25     1     1     2     0     0 -5.131254765E+01  1.311958109E+02 -3.539387681E+02  4.009276368E+02  1.250000000E+02  0.00000E+00  9.000E+00
      -2     1     1     2     0   502  1.306125322E+02 -1.657989089E+02  2.624249486E+01  2.126912793E+02  4.184229082E-06  0.00000E+00  9.000E+00
#rwgt            2           4   6.5203109626441136E-005           4      198583           0
</event>
<event>
      5   9999  3.19816E-02  1.50133E+01 -1.00000E+00  1.77347E-01
      21    -1     0     0   511   501  0.000000000E+00  0.000000000E+00  1.401324213E+02  1.401324213E+02  0.000000000E+00  0.00000E+00  9.000E+00
      21    -1     0     0   501   502  0.000000000E+00  0.000000000E+00 -2.763430965E+02  2.763430965E+02  0.000000000E+00  0.00000E+00  9.000E+00
      25     1     1     2     0     0 -9.570800670E+01  2.851327461E+01 -1.650277347E+02  2.298525236E+02  1.250000000E+02  0.00000E+00  9.000E+00
      25     1     1     2     0     0  8.756079756E+01 -4.112363497E+01  4.596858296E+00  1.581270936E+02  1.250000000E+02  0.00000E+00  9.000E+00
      21     1     1     2   511   502  8.147209145E+00  1.261036036E+01  2.422020122E+01  2.849590063E+01  6.743495762E-07  0.00000E+00  9.000E+00
#rwgt            1           1   3.2472654837584894E-002           4      198617           0
</event>
<event>
      5   9999  3.19816E-02  3.38661E+01 -1.00000E+00  1.49471E-01
       2    -1     0     0   502     0  0.000000000E+00  0.000000000E+00  1.288232806E+03  1.288232806E+03  0.000000000E+00  0.00000E+00  9.000E+00
      21    -1     0     0   501   502  0.000000000E+00  0.000000000E+00 -1.907506250E+02  1.907506250E+02  0.000000000E+00  0.00000E+00  9.000E+00
      25     1     1     2     0     0 -2.466904885E+02  2.758621706E+02  4.686763088E+02  6.101136097E+02  1.250000000E+02  0.00000E+00  9.000E+00
      25     1     1     2     0     0  2.303121303E+02 -2.462199768E+02  1.512081370E+02  3.900728843E+02  1.250000000E+02  0.00000E+00  9.000E+00
       2     1     1     2   501     0  1.637835821E+01 -2.964219386E+01  4.775977352E+02  4.787969371E+02  0.000000000E+00  0.00000E+00  9.000E+00
#rwgt            1           1   3.2430294405652038E-002           4      198731           0
</event>
<event>
      5   9999  3.19816E-02  6.71023E+01 -1.00000E+00  1.32157E-01
      21    -1     0     0   502   501  0.000000000E+00  0.000000000E+00  1.726241803E+03  1.726241803E+03  0.000000000E+00  0.00000E+00  9.000E+00
      21    -1     0     0   501   511  0.000000000E+00  0.000000000E+00 -1.490164707E+02  1.490164707E+02  0.000000000E+00  0.00000E+00  9.000E+00
      25     1     1     2     0     0  4.324459191E+02  6.379926891E+01  1.075693740E+03  1.167827831E+03  1.250000000E+02  0.00000E+00  9.000E+00
      25     1     1     2     0     0 -3.942862593E+02 -1.189949102E+02  4.511106951E+02  6.234960322E+02  1.250000000E+02  0.00000E+00  9.000E+00
      21     1     1     2   502   511 -3.815965975E+01  5.519564131E+01  5.042089689E+01  8.393441067E+01  0.000000000E+00  0.00000E+00  9.000E+00
#rwgt            1           1   2.7064005961400375E-002           4      198890           0
</event>
<event>
      5   9999  3.19816E-02  5.54361E+01 -1.00000E+00  1.36565E-01
      21    -1     0     0   512   501  0.000000000E+00  0.000000000E+00  2.617019706E+02  2.617019706E+02  0.000000000E+00  0.00000E+00  9.000E+00
      21    -1     0     0   501   502  0.000000000E+00  0.000000000E+00 -2.767703332E+02  2.767703332E+02  0.000000000E+00  0.00000E+00  9.000E+00
      25     1     1     2     0     0  8.390136392E+01 -1.486883206E+02 -9.110882856E+01  2.303768092E+02  1.250000000E+02  0.00000E+00  9.000E+00
      25     1     1     2     0     0 -1.393055947E+02  1.505664748E+02  4.444611603E+01  2.442882913E+02  1.250000000E+02  0.00000E+00  9.000E+00
      21     1     1     2   512   502  5.540423076E+01 -1.878154127E+00  3.159434992E+01  6.380720332E+01  3.371747881E-07  0.00000E+00  9.000E+00
#rwgt            1           1   2.5075685302816307E-002           4      199002           0
</event>
<event>
      5   9999  3.19816E-02  4.52382E+01 -1.00000E+00  1.41602E-01
      21    -1     0     0   511   501  0.000000000E+00  0.000000000E+00  1.733891016E+03  1.733891016E+03  0.000000000E+00  0.00000E+00  9.000E+00
      21    -1     0     0   501   502  0.000000000E+00  0.000000000E+00 -4.777765940E+02  4.777765940E+02  0.000000000E+00  0.00000E+00  9.000E+00
      25     1     1     2     0     0 -1.150862828E+02  4.886704205E+02 -2.656068624E+02  5.815630986E+02  1.250000000E+02  0.00000E+00  9.000E+00
      25     1     1     2     0     0  1.596154526E+02 -4.806922303E+02  1.477268309E+03  1.566680813E+03  1.250000000E+02  0.00000E+00  9.000E+00
      21     1     1     2   511   502 -4.452916980E+01 -7.978190228E+00  4.445297457E+01  6.342369770E+01  6.743495762E-07  0.00000E+00  9.000E+00
#rwgt            1           1   3.3074694657821833E-002           4      199086           0
</event>
<event>
      5   9999  3.19816E-02  4.03567E+01 -1.00000E+00  1.44601E-01
      21    -1     0     0   502   501  0.000000000E+00  0.000000000E+00  2.851996342E+02  2.851996342E+02  0.000000000E+00  0.00000E+00  9.000E+00
      21    -1     0     0   501   512  0.000000000E+00  0.000000000E+00 -1.551926638E+02  1.551926638E+02  0.000000000E+00  0.00000E+00  9.000E+00
      25     1     1     2     0     0 -4.772000959E+01 -8.872556435E+01  4.854366133E+01  1.677227240E+02  1.250000000E+02  0.00000E+00  9.000E+00
      25     1     1     2     0     0  1.774572364E+01  1.157478997E+02  1.259501372E+02  2.126050894E+02  1.250000000E+02  0.00000E+00  9.000E+00
      21     1     1     2   502   512  2.997428594E+01 -2.702233534E+01 -4.448682813E+01  6.006448454E+01  8.259061849E-07  0.00000E+00  9.000E+00
#rwgt            1           1   2.9677326747064078E-002           4      199232           0
</event>
<event>
      5   9999  3.19816E-02  3.16687E+01 -1.00000E+00  1.51425E-01
      21    -1     0     0   502   511  0.000000000E+00  0.000000000E+00  5.588524795E+02  5.588524795E+02  0.000000000E+00  0.00000E+00  9.000E+00
      21    -1     0     0   501   502  0.000000000E+00  0.000000000E+00 -1.083467409E+03  1.083467409E+03  0.000000000E+00  0.00000E+00  9.000E+00
      25     1     1     2     0     0  1.952183119E+02 -2.625814238E+01  1.700427392E+02  2.886853174E+02  1.250000000E+02  0.00000E+00  9.000E+00
      25     1     1     2     0     0 -1.901780175E+02 -5.006916950E+00 -1.010695963E+03  1.036013551E+03  1.250000000E+02  0.00000E+00  9.000E+00
      21     1     1     2   501   511 -5.040294458E+00  3.126505933E+01  3.160382948E+02  3.176210199E+02  0.000000000E+00  0.00000E+00  9.000E+00
#rwgt            1           1   2.4761069744076571E-002           4      199304           0
</event>
<event>
      5   9999  3.19816E-02  7.29821E+01 -1.00000E+00  1.30310E-01
      21    -1     0     0   502   501  0.000000000E+00  0.000000000E+00  1.278322251E+03  1.278322251E+03  0.000000000E+00  0.00000E+00  9.000E+00
       2    -1     0     0   501     0  0.000000000E+00  0.000000000E+00 -2.790597886E+03  2.790597886E+03  0.000000000E+00  0.00000E+00  9.000E+00
      25     1     1     2     0     0  1.143028503E+01 -5.968848197E+02  9.629378826E+02  1.139858107E+03  1.250000000E+02  0.00000E+00  9.000E+00
      25     1     1     2     0     0  2.023468861E+01  5.311298364E+02 -1.029014619E+02  5.556276241E+02  1.250000000E+02  0.00000E+00  9.000E+00
       2     1     1     2   502     0 -3.166497364E+01  6.575498328E+01 -2.372312056E+03  2.373434405E+03  5.285799584E-05  0.00000E+00  9.000E+00
#rwgt            2          13   6.2850192727762566E-003           4      199506           0
</event>
<event>
      5   9999  3.19816E-02  2.87759E+01 -1.00000E+00  1.54307E-01
      21    -1     0     0   502   501  0.000000000E+00  0.000000000E+00  1.999536676E+01  1.999536676E+01  0.000000000E+00  0.00000E+00  9.000E+00
      21    -1     0     0   511   502  0.000000000E+00  0.000000000E+00 -2.410747349E+03  2.410747349E+03  0.000000000E+00  0.00000E+00  9.000E+00
      25     1     1     2     0     0  1.213396215E+02 -9.442859208E+01 -9.951174381E+02  1.014654512E+03  1.250000000E+02  0.00000E+00  9.000E+00
      25     1     1     2     0     0 -1.480252180E+02  8.366154043E+01 -1.226411929E+03  1.244436394E+03  1.250000000E+02  0.00000E+00  9.000E+00
      21     1     1     2   511   501  2.668559651E+01  1.076705166E+01 -1.692226148E+02  1.716518098E+02  1.907348633E-06  0.00000E+00  9.000E+00
#rwgt            1           1   5.0415617686040866E-002           4      199525           0
</event>
<event>
      5   9999  3.19816E-02  8.15473E+01 -1.00000E+00  1.27948E-01
      21    -1     0     0   502   501  0.000000000E+00  0.000000000E+00  1.285214721E+03  1.285214721E+03  0.000000000E+00  0.00000E+00  9.000E+00
      21    -1     0     0   512   502  0.000000000E+00  0.000000000E+00 -1.368129886E+02  1.368129886E+02  0.000000000E+00  0.00000E+00  9.000E+00
      25     1     1     2     0     0  4.009024424E+01 -8.815136551E+01 -4.292554709E+01  1.638459445E+02  1.250000000E+02  0.00000E+00  9.000E+00
      25     1     1     2     0     0 -8.144701629E+01  1.584334873E+02  1.142696772E+03  1.163235014E+03  1.250000000E+02  0.00000E+00  9.000E+00
      21     1     1     2   512   501  4.135677206E+01 -7.028212175E+01  4.863050797E+01  9.494675107E+01  1.168007728E-06  0.00000E+00  9.000E+00
#rwgt            1           1   3.3865103084326047E-002           4      199605           0
</event>
<event>
      5   9999  3.19816E-02  1.17342E+02 -1.00000E+00  1.20783E-01
      21    -1     0     0   502   501  0.000000000E+00  0.000000000E+00  4.905799878E+01  4.905799878E+01  0.000000000E+00  0.00000E+00  9.000E+00
       2    -1     0     0   501     0  0.000000000E+00  0.000000000E+00 -3.228202524E+03  3.228202524E+03  0.000000000E+00  0.00000E+00  9.000E+00
      25     1     1     2     0     0 -9.353803473E+00 -1.327298779E+02 -1.448986753E+02  2.330779703E+02  1.250000000E+02  0.00000E+00  9.000E+00
      25     1     1     2     0     0  2.425374222E+01  1.633800466E+01 -1.614744329E+03  1.619839320E+03  1.250000000E+02  0.00000E+00  9.000E+00
       2     1     1     2   502     0 -1.489993875E+01  1.163918732E+02 -1.419501521E+03  1.424343233E+03  1.525878906E-05  0.00000E+00  9.000E+00
#rwgt            1           1   2.7853726198849547E-002           4      199685           0
</event>
<event>
      5   9999  3.19816E-02  1.43025E+02 -1.00000E+00  1.17219E-01
      21    -1     0     0   511   501  0.000000000E+00  0.000000000E+00  1.626715694E+02  1.626715694E+02  0.000000000E+00  0.00000E+00  9.000E+00
      21    -1     0     0   501   502  0.000000000E+00  0.000000000E+00 -3.592496493E+02  3.592496493E+02  0.000000000E+00  0.00000E+00  9.000E+00
      25     1     1     2     0     0  3.080822947E+00 -8.085154027E+00 -2.602606713E-02  1.252990896E+02  1.250000000E+02  0.00000E+00  9.000E+00
      25     1     1     2     0     0 -1.403906173E+02  4.811279143E+01 -1.530399687E+02  2.471246611E+02  1.250000000E+02  0.00000E+00  9.000E+00
      21     1     1     2   511   502  1.373097943E+02 -4.002763741E+01 -4.351208517E+01  1.494974680E+02  3.405298437E-06  0.00000E+00  9.000E+00
#rwgt            1           1   6.2139891362575535E-002           4      199745           0
</event>
<event>
      5   9999  3.19816E-02  2.61105E+02 -1.00000E+00  1.07589E-01
      21    -1     0     0   502   512  0.000000000E+00  0.000000000E+00  2.170254463E+02  2.170254463E+02  0.000000000E+00  0.00000E+00  9.000E+00
      21    -1     0     0   501   502  0.000000000E+00  0.000000000E+00 -1.012795601E+03  1.012795601E+03  0.000000000E+00  0.00000E+00  9.000E+00
      25     1     1     2     0     0  7.314225115E+01  2.569787485E+02 -2.853357292E+02  4.104014430E+02  1.250000000E+02  0.00000E+00  9.000E+00
      25     1     1     2     0     0  1.643549260E+01 -1.171999549E+01 -5.418349043E+02  5.564328775E+02  1.250000000E+02  0.00000E+00  9.000E+00
      21     1     1     2   501   512 -8.957774375E+01 -2.452587530E+02  3.140047913E+01  2.629867263E+02  4.756435715E-06  0.00000E+00  9.000E+00
#rwgt            2          11   5.6356512076852910E-003           4      199785           0
</event>
<event>
      5   9999  3.19816E-02  7.15800E+01 -1.00000E+00  1.30732E-01
      21    -1     0     0   502   501  0.000000000E+00  0.000000000E+00  1.422665958E+03  1.422665958E+03  0.000000000E+00  0.00000E+00  9.000E+00
      21    -1     0     0   511   502  0.000000000E+00  0.000000000E+00 -4.131414429E+02  4.131414429E+02  0.000000000E+00  0.00000E+00  9.000E+00
      25     1     1     2     0     0  5.249284496E+02  3.694965448E+02  6.728735905E+02  9.383290694E+02  1.250000000E+02  0.00000E+00  9.000E+00
      25     1     1     2     0     0 -5.829133911E+02 -4.114661540E+02  3.756281162E+02  8.159742024E+02  1.250000000E+02  0.00000E+00  9.000E+00
      21     1     1     2   511   501  5.798494152E+01  4.196960916E+01 -3.897719179E+01  8.150412882E+01  1.261592536E-06  0.00000E+00  9.000E+00
#rwgt            1           1   2.2449342788817897E-002           4      199805           0
</event>
<event>
      5   9999  3.19816E-02  3.86672E+01 -1.00000E+00  1.45759E-01
      21    -1     0     0   512   501  0.000000000E+00  0.000000000E+00  4.972812011E+02  4.972812011E+02  0.000000000E+00  0.00000E+00  9.000E+00
      21    -1     0     0   501   502  0.000000000E+00  0.000000000E+00 -2.057268697E+03  2.057268697E+03  0.000000000E+00  0.00000E+00  9.000E+00
      25     1     1     2     0     0  2.196648234E+02  3.944637987E+02  3.348520415E+02  5.758517282E+02  1.250000000E+02  0.00000E+00  9.000E+00
      25     1     1     2     0     0 -1.978698945E+02 -4.264033497E+02 -1.871177399E+03  1.933365504E+03  1.250000000E+02  0.00000E+00  9.000E+00
      21     1     1     2   512   502 -2.179492897E+01  3.193955103E+01 -2.366213859E+01  4.533266649E+01  3.371747881E-07  0.00000E+00  9.000E+00
#rwgt            1           1   2.1672284778401236E-002           4      199922           0
</event>
<event>
      5   9999  3.19816E-02  1.19348E+02 -1.00000E+00  1.20469E-01
      21    -1     0     0   502   511  0.000000000E+00  0.000000000E+00  9.374610189E+02  9.374610189E+02  0.000000000E+00  0.00000E+00  9.000E+00
      21    -1     0     0   501   502  0.000000000E+00  0.000000000E+00 -6.792406927E+02  6.792406927E+02  0.000000000E+00  0.00000E+00  9.000E+00
      25     1     1     2     0     0  5.057273170E+02  3.216809453E+02  5.991614474E+02  8.566552339E+02  1.250000000E+02  0.00000E+00  9.000E+00
      25     1     1     2     0     0 -3.928825201E+02 -2.828227707E+02 -3.868661731E+02  6.321675649E+02  1.250000000E+02  0.00000E+00  9.000E+00
      21     1     1     2   501   511 -1.128447970E+02 -3.885817463E+01  4.592505189E+01  1.278789128E+02  1.168007728E-06  0.00000E+00  9.000E+00
#rwgt            1           1   3.0148474777504965E-002           4      200052           0
</event>
<event>
      5   9999  3.19816E-02  3.27207E+01 -1.00000E+00  1.50467E-01
      21    -1     0     0   512   501  0.000000000E+00  0.000000000E+00  5.070066129E+02  5.070066129E+02  0.000000000E+00  0.00000E+00  9.000E+00
      21    -1     0     0   501   502  0.000000000E+00  0.000000000E+00 -1.602942822E+02  1.602942822E+02  0.000000000E+00  0.00000E+00  9.000E+00
      25     1     1     2     0     0 -7.856973314E+00  1.310542873E+02 -6.155818307E+01  1.914454705E+02  1.250000000E+02  0.00000E+00  9.000E+00
      25     1     1     2     0     0 -5.715987679E+00 -1.012815338E+02  1.654666672E+02  2.308567512E+02  1.250000000E+02  0.00000E+00  9.000E+00
      21     1     1     2   512   502  1.357296099E+01 -2.977275350E+01  2.428038466E+02  2.449986735E+02  2.697398305E-06  0.00000E+00  9.000E+00
#rwgt            1           1   2.8650895284316590E-002           4      200152           0
</event>
<event>
      5   9999  3.19816E-02  9.53339E+01 -1.00000E+00  1.24769E-01
      21    -1     0     0   502   501  0.000000000E+00  0.000000000E+00  2.637576764E+02  2.637576764E+02  0.000000000E+00  0.00000E+00  9.000E+00
      21    -1     0     0   501   511  0.000000000E+00  0.000000000E+00 -3.215213145E+02  3.215213145E+02  0.000000000E+00  0.00000E+00  9.000E+00
      25     1     1     2     0     0  8.489744525E+01  1.415307303E+01 -1.223290544E+02  1.949289184E+02  1.250000000E+02  0.00000E+00  9.000E+00
      25     1     1     2     0     0 -4.853161486E+00 -6.593595519E+01  1.874600179E+02  2.348134614E+02  1.250000000E+02  0.00000E+00  9.000E+00
      21     1     1     2   502   511 -8.004428377E+01  5.178288216E+01 -1.228946016E+02  1.555366110E+02  3.015782986E-06  0.00000E+00  9.000E+00
#rwgt            1           1   2.2810983352308800E-002           4      200265           0
</event>
<event>
      5   9999  3.19816E-02  4.24628E+02 -1.00000E+00  1.00911E-01
       2    -1     0     0   502     0  0.000000000E+00  0.000000000E+00  1.629273959E+03  1.629273959E+03  0.000000000E+00  0.00000E+00  9.000E+00
      21    -1     0     0   501   502  0.000000000E+00  0.000000000E+00 -5.288637452E+02  5.288637452E+02  0.000000000E+00  0.00000E+00  9.000E+00
      25     1     1     2     0     0 -4.244113754E+01 -3.654874214E+02  3.181546625E+02  5.022247452E+02  1.250000000E+02  0.00000E+00  9.000E+00
      25     1     1     2     0     0 -3.485211340E+02  5.311895203E+02 -1.201892223E+02  6.585588330E+02  1.250000000E+02  0.00000E+00  9.000E+00
       2     1     1     2   501     0  3.909622716E+02 -1.657020989E+02  9.024447735E+02  9.973541260E+02  1.078959322E-05  0.00000E+00  9.000E+00
#rwgt            2          18   1.4110269259332807E-003           4      200369           0
</event>
<event>
      5   9999  3.19816E-02  1.67820E+02 -1.00000E+00  1.14494E-01
      21    -1     0     0   502   511  0.000000000E+00  0.000000000E+00  7.321422815E+02  7.321422815E+02  0.000000000E+00  0.00000E+00  9.000E+00
      21    -1     0     0   501   502  0.000000000E+00  0.000000000E+00 -3.046880423E+02  3.046880423E+02  0.000000000E+00  0.00000E+00  9.000E+00
      25     1     1     2     0     0  2.276590746E+02 -1.229259808E+02  2.540452396E+02  3.835406559E+02  1.250000000E+02  0.00000E+00  9.000E+00
      25     1     1     2     0     0 -2.682652515E+02 -3.990716542E+01 -1.146684850E+02  3.198948084E+02  1.250000000E+02  0.00000E+00  9.000E+00
      21     1     1     2   501   511  4.060617693E+01  1.628331462E+02  2.880774846E+02  3.333948594E+02  3.814697266E-06  0.00000E+00  9.000E+00
#rwgt            1           1   2.6536662230266982E-002           4      200388           0
</event>
<event>
      5   9999  3.19816E-02  1.09700E+01 -1.00000E+00  1.91221E-01
      21    -1     0     0   502   501  0.000000000E+00  0.000000000E+00  1.179156731E+02  1.179156731E+02  0.000000000E+00  0.00000E+00  9.000E+00
      21    -1     0     0   512   502  0.000000000E+00  0.000000000E+00 -4.654543001E+02  4.654543001E+02  0.000000000E+00  0.00000E+00  9.000E+00
      25     1     1     2     0     0  5.102784615E+01  2.811097138E+01  4.700082414E+01  1.456988170E+02  1.250000000E+02  0.00000E+00  9.000E+00
      25     1     1     2     0     0 -4.719435520E+01 -1.783256038E+01 -1.906693200E+02  2.335060962E+02  1.250000000E+02  0.00000E+00  9.000E+00
      21     1     1     2   512   501 -3.833490943E+00 -1.027841100E+01 -2.038701312E+02  2.041650601E+02  4.672030912E-06  0.00000E+00  9.000E+00
#rwgt            1           1   2.7822442656461662E-002           4      200457           0
</event>
<event>
      5   9999  3.19816E-02  2.50514E+01 -1.00000E+00  1.58684E-01
      21    -1     0     0   502   501  0.000000000E+00  0.000000000E+00  5.191354164E+02  5.191354164E+02  0.000000000E+00  0.00000E+00  9.000E+00
      21    -1     0     0   511   502  0.000000000E+00  0.000000000E+00 -1.370220824E+02  1.370220824E+02  0.000000000E+00  0.00000E+00  9.000E+00
      25     1     1     2     0     0  1.941765536E+02 -1.105106794E+02  2.297179012E+02  3.439657808E+02  1.250000000E+02  0.00000E+00  9.000E+00
      25     1     1     2     0     0 -1.952022519E+02  8.548025682E+01  1.428709458E+02  2.853907858E+02  1.250000000E+02  0.00000E+00  9.000E+00
      21     1     1     2   511   501  1.025698354E+00  2.503042260E+01  9.524487010E+00  2.680093217E+01  3.371747881E-07  0.00000E+00  9.000E+00
#rwgt            1           1   3.4384365818443362E-002           4      200633           0
</event>
<event>
      5   9999  3.19816E-02  6.14655E+01 -1.00000E+00  1.34146E-01
      21    -1     0     0   502   501  0.000000000E+00  0.000000000E+00  2.257711655E+02  2.257711655E+02  0.000000000E+00  0.00000E+00  9.000E+00
      21    -1     0     0   501   512  0.000000000E+00  0.000000000E+00 -5.335651285E+02  5.335651285E+02  0.000000000E+00  0.00000E+00  9.000E+00
      25     1     1     2     0     0 -2.263898913E+02 -8.463083405E+01 -4.257156925E+01  2.754125986E+02  1.250000000E+02  0.00000E+00  9.000E+00
      25     1     1     2     0     0  2.856039890E+02  1.011140486E+02 -1.664614881E+02  3.675977644E+02  1.250000000E+02  0.00000E+00  9.000E+00
      21     1     1     2   502   512 -5.921409764E+01 -1.648321457E+01 -9.876090571E+01  1.163259310E+02  1.348699152E-06  0.00000E+00  9.000E+00
#rwgt            1           1   2.9999459637509718E-002           4      200744           0
</event>
<event>
      5   9999  3.19816E-02  9.51086E+01 -1.00000E+00  1.24816E-01
      21    -1     0     0   502   501  0.000000000E+00  0.000000000E+00  1.692151818E+03  1.692151818E+03  0.000000000E+00  0.00000E+00  9.000E+00
      21    -1     0     0   501   511  0.000000000E+00  0.000000000E+00 -1.792803399E+02  1.792803399E+02  0.000000000E+00  0.00000E+00  9.000E+00
      25     1     1     2     0     0  1.845699165E+01  2.907374308E+01  1.720873287E+02  2.154645952E+02  1.250000000E+02  0.00000E+00  9.000E+00
      25     1     1     2     0     0 -9.776745738E+01 -8.156648383E+01  1.478155278E+03  1.488885352E+03  1.250000000E+02  0.00000E+00  9.000E+00
      21     1     1     2   502   511  7.931046573E+01  5.249274075E+01 -1.373711290E+02  1.670822099E+02  3.303624740E-06  0.00000E+00  9.000E+00
#rwgt            2          11   4.7838036887514569E-002           4      200895           0
</event>
<event>
      5   9999  3.19816E-02  2.03377E+01 -1.00000E+00  1.65771E-01
      21    -1     0     0   512   501  0.000000000E+00  0.000000000E+00  5.714320913E+02  5.714320913E+02  0.000000000E+00  0.00000E+00  9.000E+00
      21    -1     0     0   501   502  0.000000000E+00  0.000000000E+00 -2.536714793E+02  2.536714793E+02  0.000000000E+00  0.00000E+00  9.000E+00
      25     1     1     2     0     0  1.591412016E+02  4.093065691E+00 -1.884513483E+02  2.765530436E+02  1.250000000E+02  0.00000E+00  9.000E+00
      25     1     1     2     0     0 -1.433942035E+02 -1.696378640E+01  4.569494781E+02  4.952549779E+02  1.250000000E+02  0.00000E+00  9.000E+00
      21     1     1     2   512   502 -1.574699811E+01  1.287072070E+01  4.926248230E+01  5.329554918E+01  0.000000000E+00  0.00000E+00  9.000E+00
#rwgt            1           1   2.9008567319828704E-002           4      200915           0
</event>
<event>
      5   9999  3.19816E-02  1.09546E+02 -1.00000E+00  1.22073E-01
       1    -1     0     0   502     0  0.000000000E+00  0.000000000E+00  2.206594319E+03  2.206594319E+03  0.000000000E+00  0.00000E+00  9.000E+00
      21    -1     0     0   501   502  0.000000000E+00  0.000000000E+00 -1.810258092E+02  1.810258092E+02  0.000000000E+00  0.00000E+00  9.000E+00
      25     1     1     2     0     0 -3.408966546E+01  1.491558701E+01  2.058801875E+03  2.062928680E+03  1.250000000E+02  0.00000E+00  9.000E+00
      25     1     1     2     0     0 -6.151201991E+01 -6.839994022E+01 -1.106025685E+02  1.905786152E+02  1.250000000E+02  0.00000E+00  9.000E+00
       1     1     1     2   501     0  9.560168537E+01  5.348435321E+01  7.736920371E+01  1.341128330E+02  0.000000000E+00  0.00000E+00  9.000E+00
#rwgt            1           1   1.6840523961200244E-002           4      201072           0
</event>
<event>
      5   9999  3.19816E-02  2.13930E+02 -1.00000E+00  1.10594E-01
      21    -1     0     0   502   501  0.000000000E+00  0.000000000E+00  7.024540318E+02  7.024540318E+02  0.000000000E+00  0.00000E+00  9.000E+00
      21    -1     0     0   501   511  0.000000000E+00  0.000000000E+00 -1.204589312E+03  1.204589312E+03  0.000000000E+00  0.00000E+00  9.000E+00
      25     1     1     2     0     0 -6.208996205E+01  1.675639576E+02 -9.138451040E+00  2.182689959E+02  1.250000000E+02  0.00000E+00  9.000E+00
      25     1     1     2     0     0 -1.153326213E+02 -2.870940308E+02  5.394943753E+02  6.343530381E+02  1.250000000E+02  0.00000E+00  9.000E+00
      21     1     1     2   502   511  1.774225833E+02  1.195300732E+02 -1.032491204E+03  1.054421309E+03  0.000000000E+00  0.00000E+00  9.000E+00
#rwgt            1           1   2.7867565214524222E-002           4      201157           0
</event>
<event>
      5   9999  3.19816E-02  5.34787E+01 -1.00000E+00  1.37429E-01
      21    -1     0     0   502   512  0.000000000E+00  0.000000000E+00  2.146284222E+02  2.146284222E+02  0.000000000E+00  0.00000E+00  9.000E+00
      21    -1     0     0   501   502  0.000000000E+00  0.000000000E+00 -1.540728842E+02  1.540728842E+02  0.000000000E+00  0.00000E+00  9.000E+00
      25     1     1     2     0     0  8.711296513E+01  2.222053118E+01 -1.774603952E+01  1.549914276E+02  1.250000000E+02  0.00000E+00  9.000E+00
      25     1     1     2     0     0 -6.766828763E+01  2.759788018E+01  4.986594513E+01  1.531412832E+02  1.250000000E+02  0.00000E+00  9.000E+00
      21     1     1     2   501   512 -1.944467751E+01 -4.981841137E+01  2.843563241E+01  6.056859570E+01  8.920806376E-07  0.00000E+00  9.000E+00
#rwgt            1           1   5.0112830868068392E-002           4      201187           0
</event>
<event>
      5   9999  3.19816E-02  6.14446E+01 -1.00000E+00  1.34154E-01
      -2    -1     0     0     0   501  0.000000000E+00  0.000000000E+00  1.275455810E+03  1.275455810E+03  0.000000000E+00  0.00000E+00  9.000E+00
      21    -1     0     0   501   502  0.000000000E+00  0.000000000E+00 -3.250332923E+02  3.250332923E+02  0.000000000E+00  0.00000E+00  9.000E+00
      25     1     1     2     0     0 -4.262516702E+02  2.447739502E+02  5.645430684E+02  7.589062189E+02  1.250000000E+02  0.00000E+00  9.000E+00
      25     1     1     2     0     0  4.324973329E+02 -3.059002724E+02  1.053381999E+02  5.543916089E+02  1.250000000E+02  0.00000E+00  9.000E+00
      -2     1     1     2     0   502 -6.245662701E+00  6.112632225E+01  2.805412489E+02  2.871912741E+02  0.000000000E+00  0.00000E+00  9.000E+00
#rwgt            1           1   2.9078167548342793E-002           4      201250           0
</event>
<event>
      5   9999  3.19816E-02  5.18435E+01 -1.00000E+00  1.38184E-01
      21    -1     0     0   502   501  0.000000000E+00  0.000000000E+00  8.619052931E+02  8.619052931E+02  0.000000000E+00  0.00000E+00  9.000E+00
      21    -1     0     0   511   502  0.000000000E+00  0.000000000E+00 -6.532385885E+02  6.532385885E+02  0.000000000E+00  0.00000E+00  9.000E+00
      25     1     1     2     0     0 -2.602863948E+02  5.778580798E+02 -1.766218565E+02  6.696933985E+02  1.250000000E+02  0.00000E+00  9.000E+00
      25     1     1     2     0     0  3.116252295E+02 -5.850742897E+02  4.085316237E+02  7.886350839E+02  1.250000000E+02  0.00000E+00  9.000E+00
      21     1     1     2   511   501 -5.133883471E+01  7.216209809E+00 -2.324306258E+01  5.681539924E+01  5.840038640E-07  0.00000E+00  9.000E+00
#rwgt            1           1   3.1247636570441266E-002           4      201366           0
</event>
<event>
      5   9999  3.19816E-02  1.59773E+02 -1.00000E+00  1.15317E-01
      21    -1     0     0   502   512  0.000000000E+00  0.000000000E+00  1.477319320E+03  1.477319320E+03  0.000000000E+00  0.00000E+00  9.000E+00
      21    -1     0     0   501   502  0.000000000E+00  0.000000000E+00 -1.471176523E+03  1.471176523E+03  0.000000000E+00  0.00000E+00  9.000E+00
      25     1     1     2     0     0  2.352877889E+01  2.615073580E+02  1.229633875E+03  1.263552202E+03  1.250000000E+02  0.00000E+00  9.000E+00
      25     1     1     2     0     0 -1.105843907E+02 -3.954804266E+02 -1.389646442E+03  1.454433191E+03  1.250000000E+02  0.00000E+00  9.000E+00
      21     1     1     2   501   512  8.705561177E+01  1.339730687E+02  1.661553631E+02  2.305104496E+02  3.814697266E-06  0.00000E+00  9.000E+00
#rwgt            1           1   5.7913312308926421E-002           4      201563           0
</event>
<event>
      5   9999  3.19816E-02  3.64436E+01 -1.00000E+00  1.47394E-01
      21    -1     0     0   502   501  0.000000000E+00  0.000000000E+00  1.373448681E+02  1.373448681E+02  0.000000000E+00  0.00000E+00  9.000E+00
      21    -1     0     0   501   511  0.000000000E+00  0.000000000E+00 -5.963639305E+02  5.963639305E+02  0.000000000E+00  0.00000E+00  9.000E+00
      25     1     1     2     0     0  1.894960951E+02 -6.327161432E+01 -2.761853013E+02  3.630638896E+02  1.250000000E+02  0.00000E+00  9.000E+00
      25     1     1     2     0     0 -2.246323496E+02  5.359795306E+01 -1.015205453E+02  2.815383707E+02  1.250000000E+02  0.00000E+00  9.000E+00
      21     1     1     2   502   511  3.513625452E+01  9.673661262E+00 -8.131321575E+01  8.910653826E+01  1.907348633E-06  0.00000E+00  9.000E+00
#rwgt            1           1   2.7254036822289326E-002           4      201673           0
</event>
<event>
      5   9999  3.19816E-02  2.70792E+01 -1.00000E+00  1.56195E-01
      21    -1     0     0   502   512  0.000000000E+00  0.000000000E+00  2.796486019E+02  2.796486019E+02  0.000000000E+00  0.00000E+00  9.000E+00
      21    -1     0     0   501   502  0.000000000E+00  0.000000000E+00 -1.325521329E+03  1.325521329E+03  0.000000000E+00  0.00000E+00  9.000E+00
      25     1     1     2     0     0 -2.779654677E+02 -4.732364329E+02 -2.440575166E+02  6.135198400E+02  1.250000000E+02  0.00000E+00  9.000E+00
      25     1     1     2     0     0  2.659090970E+02  4.489892167E+02 -8.015424955E+02  9.645695085E+02  1.250000000E+02  0.00000E+00  9.000E+00
      21     1     1     2   501   512  1.205637066E+01  2.424721624E+01 -2.727149222E-01  2.708058239E+01  5.104463401E-07  0.00000E+00  9.000E+00
#rwgt            1           1   2.7653753751118934E-002           4      201797           0
</event>
<event>
      5   9999  3.19816E-02  4.44193E+01 -1.00000E+00  1.42073E-01
      21    -1     0     0   502   501  0.000000000E+00  0.000000000E+00  7.821629241E+02  7.821629241E+02  0.000000000E+00  0.00000E+00  9.000E+00
      21    -1     0     0   501   511  0.000000000E+00  0.000000000E+00 -5.513687283E+02  5.513687283E+02  0.000000000E+00  0.00000E+00  9.000E+00
      25     1     1     2     0     0  4.835393829E+01  1.919760272E+02 -4.008131067E+02  4.641864333E+02  1.250000000E+02  0.00000E+00  9.000E+00
      25     1     1     2     0     0 -5.240993861E+01 -2.362097130E+02  7.203475043E+02  7.701086658E+02  1.250000000E+02  0.00000E+00  9.000E+00
      21     1     1     2   502   511  4.056000317E+00  4.423368582E+01 -8.874020178E+01  9.923655330E+01  0.000000000E+00  0.00000E+00  9.000E+00
#rwgt            1           1   2.9623727957761171E-002           4      201917           0
</event>
<event>
      5   9999  3.19816E-02  1.13868E+02 -1.00000E+00  1.21343E-01
      21    -1     0     0   502   501  0.000000000E+00  0.000000000E+00  9.064818652E+02  9.064818652E+02  0.000000000E+00  0.00000E+00  9.000E+00
      21    -1     0     0   512   502  0.000000000E+00  0.000000000E+00 -1.102597532E+03  1.102597532E+03  0.000000000E+00  0.00000E+00  9.000E+00
      25     1     1     2     0     0 -2.194857353E+02  3.526030989E+02  4.253550633E+02  6.074988586E+02  1.250000000E+02  0.00000E+00  9.000E+00
      25     1     1     2     0     0  2.028203206E+02 -4.652445262E+02  2.092980156E+02  5.630445906E+02  1.250000000E+02  0.00000E+00  9.000E+00
      21     1     1     2   512   501  1.666541467E+01  1.126414274E+02 -8.307687457E+02  8.385359479E+02  1.525878906E-05  0.00000E+00  9.000E+00
#rwgt            1           1   2.2921626456138055E-002           4      202073           0
</event>
<event>
      5   9999  3.19816E-02  3.21073E+01 -1.00000E+00  1.51020E-01
       1    -1     0     0   502     0  0.000000000E+00  0.000000000E+00  2.430738660E+02  2.430738660E+02  0.000000000E+00  0.00000E+00  9.000E+00
      21    -1     0     0   501   502  0.000000000E+00  0.000000000E+00 -2.227138195E+02  2.227138195E+02  0.000000000E+00  0.00000E+00  9.000E+00
      25     1     1     2     0     0  9.003827190E+01  1.930538709E+01  5.312365838E+01  1.640936058E+02  1.250000000E+02  0.00000E+00  9.000E+00
      25     1     1     2     0     0 -7.479611469E+01 -4.756414989E+01 -1.289599432E+02  2.002809878E+02  1.250000000E+02  0.00000E+00  9.000E+00
       1     1     1     2   501     0 -1.524215721E+01  2.825876280E+01  9.619633140E+01  1.014130919E+02  0.000000000E+00  0.00000E+00  9.000E+00
#rwgt            1           1   3.1792008776246848E-002           4      202152           0
</event>
<event>
      5   9999  3.19816E-02  1.57157E+02 -1.00000E+00  1.15597E-01
      21    -1     0     0   502   501  0.000000000E+00  0.000000000E+00  1.316483688E+03  1.316483688E+03  0.000000000E+00  0.00000E+00  9.000E+00
       2    -1     0     0   501     0  0.000000000E+00  0.000000000E+00 -2.051481729E+02  2.051481729E+02  0.000000000E+00  0.00000E+00  9.000E+00
      25     1     1     2     0     0  6.727402112E+00  1.827582777E+02  2.905212428E+02  3.653401682E+02  1.250000000E+02  0.00000E+00  9.000E+00
      25     1     1     2     0     0 -1.306178152E+02 -8.606580317E+01  9.387104979E+02  9.598284925E+02  1.250000000E+02  0.00000E+00  9.000E+00
       2     1     1     2   502     0  1.238904131E+02 -9.669247457E+01 -1.178962254E+02  1.964632003E+02  3.303624740E-06  0.00000E+00  9.000E+00
#rwgt            1           1   3.0207983213576459E-002           4      202293           0
</event>
<event>
      5   9999  3.19816E-02  2.50347E+02 -1.00000E+00  1.08210E-01
      21    -1     0     0   511   501  0.000000000E+00  0.000000000E+00  5.038630668E+02  5.038630668E+02  0.000000000E+00  0.00000E+00  9.000E+00
      21    -1     0     0   501   502  0.000000000E+00  0.000000000E+00 -3.783003392E+02  3.783003392E+02  0.000000000E+00  0.00000E+00  9.000E+00
      25     1     1     2     0     0  3.390403456E+02  1.255035711E+02 -5.797888691E+01  3.868928193E+02  1.250000000E+02  0.00000E+00  9.000E+00
      25     1     1     2     0     0 -1.603470333E+02  4.983184798E+01  9.290257574E+01  2.290202453E+02  1.250000000E+02  0.00000E+00  9.000E+00
      21     1     1     2   511   502 -1.786933123E+02 -1.753354190E+02  9.063903873E+01  2.662503415E+02  2.336015456E-06  0.00000E+00  9.000E+00
#rwgt            1           1   2.6715065932809857E-002           4      202450           0
</event>
<event>
      5   9999  3.19816E-02  1.33847E+01 -1.00000E+00  1.82176E-01
      21    -1     0     0   512   501  0.000000000E+00  0.000000000E+00  1.530952215E+03  1.530952215E+03  0.000000000E+00  0.00000E+00  9.000E+00
      21    -1     0     0   501   502  0.000000000E+00  0.000000000E+00 -3.643811117E+02  3.643811117E+02  0.000000000E+00  0.00000E+00  9.000E+00
      25     1     1     2     0     0 -1.395408248E+02  1.340631941E+02 -1.969818537E+01  2.312089970E+02  1.250000000E+02  0.00000E+00  9.000E+00
      25     1     1     2     0     0  1.353409388E+02 -1.213544471E+02 -1.879634688E+02  2.898263914E+02  1.250000000E+02  0.00000E+00  9.000E+00
      21     1     1     2   512   502  4.199886084E+00 -1.270874702E+01  1.374232758E+03  1.374297939E+03  1.525878906E-05  0.00000E+00  9.000E+00
#rwgt            1           1   2.4888627554681381E-002           4      202484           0
</event>
<event>
      5   9999  3.19816E-02  6.93562E+01 -1.00000E+00  1.31424E-01
      21    -1     0     0   502   501  0.000000000E+00  0.000000000E+00  1.304595019E+02  1.304595019E+02  0.000000000E+00  0.00000E+00  9.000E+00
      -5    -1     0     0     0   502  0.000000000E+00  0.000000000E+00 -6.105081778E+02  6.105081778E+02  0.000000000E+00  0.00000E+00  9.000E+00
      25     1     1     2     0     0 -8.231365918E+01  1.051685441E+02 -5.178451670E+01  1.901120652E+02  1.250000000E+02  0.00000E+00  9.000E+00
      25     1     1     2     0     0  1.441623965E+01 -9.101834031E+01 -4.516970522E+02  4.776477711E+02  1.250000000E+02  0.00000E+00  9.000E+00
      -5     1     1     2     0   501  6.789741953E+01 -1.415020383E+01  2.343289302E+01  7.320784331E+01  6.743495762E-07  0.00000E+00  9.000E+00
#rwgt            1           1   2.5051246298863482E-002           4      202632           0
</event>
<event>
      5   9999  3.19816E-02  1.21887E+01 -1.00000E+00  1.86318E-01
      21    -1     0     0   511   501  0.000000000E+00  0.000000000E+00  5.313220640E+02  5.313220640E+02  0.000000000E+00  0.00000E+00  9.000E+00
      21    -1     0     0   501   502  0.000000000E+00  0.000000000E+00 -6.320042264E+02  6.320042264E+02  0.000000000E+00  0.00000E+00  9.000E+00
      25     1     1     2     0     0  1.307142068E+02  1.028673069E+02 -3.749275948E+02  4.287931763E+02  1.250000000E+02  0.00000E+00  9.000E+00
      25     1     1     2     0     0 -1.393542979E+02 -9.427004759E+01 -1.823238920E+02  2.778011227E+02  1.250000000E+02  0.00000E+00  9.000E+00
      21     1     1     2   511   502  8.640091095E+00 -8.597259337E+00  4.565693244E+02  4.567319914E+02  5.394796609E-06  0.00000E+00  9.000E+00
#rwgt            1           1   2.5168147651375018E-002           4      202738           0
</event>
<event>
      5   9999  3.19816E-02  1.16804E+01 -1.00000E+00  1.88269E-01
      21    -1     0     0   502   501  0.000000000E+00  0.000000000E+00  1.524633361E+03  1.524633361E+03  0.000000000E+00  0.00000E+00  9.000E+00
      21    -1     0     0   501   512  0.000000000E+00  0.000000000E+00 -8.861917284E+01  8.861917284E+01  0.000000000E+00  0.00000E+00  9.000E+00
      25     1     1     2     0     0  1.545187551E+02  2.517001399E+02  1.047549033E+03  1.095542324E+03  1.250000000E+02  0.00000E+00  9.000E+00
      25     1     1     2     0     0 -1.661439598E+02 -2.528341499E+02  3.853590359E+02  5.056238813E+02  1.250000000E+02  0.00000E+00  9.000E+00
      21     1     1     2   502   512  1.162520469E+01  1.134010006E+00  3.106118625E+00  1.208632846E+01  3.237360862E-07  0.00000E+00  9.000E+00
#rwgt            1           1   3.0417765703662281E-002           4      202974           0
</event>
<event>
      5   9999  3.19816E-02  9.51382E+01 -1.00000E+00  1.24809E-01
      21    -1     0     0   502   501  0.000000000E+00  0.000000000E+00  9.873756289E+02  9.873756289E+02  0.000000000E+00  0.00000E+00  9.000E+00
      21    -1     0     0   511   502  0.000000000E+00  0.000000000E+00 -7.005848987E+02  7.005848987E+02  0.000000000E+00  0.00000E+00  9.000E+00
      25     1     1     2     0     0  6.669665991E+02  4.401936205E+01  1.968163191E+02  7.079151164E+02  1.250000000E+02  0.00000E+00  9.000E+00
      25     1     1     2     0     0 -5.841807029E+02  2.861093964E+00  3.574299025E+02  6.961726903E+02  1.250000000E+02  0.00000E+00  9.000E+00
      21     1     1     2   511   501 -8.278589620E+01 -4.688045601E+01 -2.674554915E+02  2.838727210E+02  0.000000000E+00  0.00000E+00  9.000E+00
#rwgt            1           1   2.6360512973769599E-002           4      203194           0
</event>
<event>
      5   9999  3.19816E-02  1.80532E+02 -1.00000E+00  1.13291E-01
       2    -1     0     0   502     0  0.000000000E+00  0.000000000E+00  1.698283408E+02  1.698283408E+02  0.000000000E+00  0.00000E+00  9.000E+00
      21    -1     0     0   501   502  0.000000000E+00  0.000000000E+00 -1.973308172E+03  1.973308172E+03  0.000000000E+00  0.00000E+00  9.000E+00
      25     1     1     2     0     0  1.694358031E+02 -2.755860978E+02 -2.245120764E+02  4.131426644E+02  1.250000000E+02  0.00000E+00  9.000E+00
      25     1     1     2     0     0 -2.621569105E+02  1.206845274E+02 -1.500568491E+03  1.533173766E+03  1.250000000E+02  0.00000E+00  9.000E+00
       2     1     1     2   501     0  9.272110739E+01  1.549015704E+02 -7.839926401E+01  1.968200825E+02  1.348699152E-06  0.00000E+00  9.000E+00
#rwgt            1           1   3.1594066604067501E-002           4      203282           0
</event>
<event>
      5   9999  3.19816E-02  1.24128E+02 -1.00000E+00  1.19748E-01
      21    -1     0     0   511   501  0.000000000E+00  0.000000000E+00  3.504894846E+02  3.504894846E+02  0.000000000E+00  0.00000E+00  9.000E+00
      21    -1     0     0   501   502  0.000000000E+00  0.000000000E+00 -3.439043202E+02  3.439043202E+02  0.000000000E+00  0.00000E+00  9.000E+00
      25     1     1     2     0     0 -4.407496497E+01 -1.065302833E+02  3.418186251E+01  1.734494264E+02  1.250000000E+02  0.00000E+00  9.000E+00
      25     1     1     2     0     0  1.603370883E-01  2.226305712E+02 -1.887592804E+02  3.175208071E+02  1.250000000E+02  0.00000E+00  9.000E+00
      21     1     1     2   511   502  4.391462788E+01 -1.161002879E+02  1.611625824E+02  2.034235713E+02  3.303624740E-06  0.00000E+00  9.000E+00
#rwgt            1           1   2.8337251801076969E-002           4      203345           0
</event>
<event>
      5   9999  3.19816E-02  8.99586E+01 -1.00000E+00  1.25931E-01
       1    -1     0     0   502     0  0.000000000E+00  0.000000000E+00  2.672800827E+03  2.672800827E+03  0.000000000E+00  0.00000E+00  9.000E+00
      21    -1     0     0   501   502  0.000000000E+00  0.000000000E+00 -5.815779339E+01  5.815779339E+01  0.000000000E+00  0.00000E+00  9.000E+00
      25     1     1     2     0     0  1.074278608E+02 -6.500757108E+01  9.689624109E+01  2.019420984E+02  1.250000000E+02  0.00000E+00  9.000E+00
      25     1     1     2     0     0 -2.280337461E+01  3.449133559E+01  1.003543395E+03  1.012143267E+03  1.250000000E+02  0.00000E+00  9.000E+00
       1     1     1     2   501     0 -8.462448620E+01  3.051623549E+01  1.514203397E+03  1.516873255E+03  2.157918644E-05  0.00000E+00  9.000E+00
#rwgt            1           1   2.7052717914209115E-002           4      203391           0
</event>
<event>
      5   9999  3.19816E-02  4.32033E+01 -1.00000E+00  1.42795E-01
      21    -1     0     0   502   501  0.000000000E+00  0.000000000E+00  9.584775091E+02  9.584775091E+02  0.000000000E+00  0.00000E+00  9.000E+00
      21    -1     0     0   511   502  0.000000000E+00  0.000000000E+00 -5.142279922E+02  5.142279922E+02  0.000000000E+00  0.00000E+00  9.000E+00
      25     1     1     2     0     0  4.195128497E+01  5.366252678E+02 -1.196009526E+02  5.653812662E+02  1.250000000E+02  0.00000E+00  9.000E+00
      25     1     1     2     0     0 -6.667729779E+00 -5.116933880E+02  6.343990962E+02  8.245979597E+02  1.250000000E+02  0.00000E+00  9.000E+00
      21     1     1     2   511   501 -3.528355519E+01 -2.493187980E+01 -7.054862679E+01  8.272627538E+01  9.536743164E-07  0.00000E+00  9.000E+00
#rwgt            1           1   3.4712258266834092E-002           4      203464           0
</event>
<event>
      5   9999  3.19816E-02  3.43325E+01 -1.00000E+00  1.49079E-01
      21    -1     0     0   502   501  0.000000000E+00  0.000000000E+00  4.743223948E+02  4.743223948E+02  0.000000000E+00  0.00000E+00  9.000E+00
      21    -1     0     0   501   512  0.000000000E+00  0.000000000E+00 -2.682654545E+02  2.682654545E+02  0.000000000E+00  0.00000E+00  9.000E+00
      25     1     1     2     0     0  1.010319731E+01  2.872248138E+02  2.443202041E+01  3.143598127E+02  1.250000000E+02  0.00000E+00  9.000E+00
      25     1     1     2     0     0 -4.046841641E+01 -3.032459691E+02  2.029357374E+02  3.878191898E+02  1.250000000E+02  0.00000E+00  9.000E+00
      21     1     1     2   502   512  3.036521910E+01  1.602115530E+01 -2.131081750E+01  4.040884669E+01  2.384185791E-07  0.00000E+00  9.000E+00
#rwgt            1           1   2.6061723278567216E-002           4      203627           0
</event>
<event>
      5   9999  3.19816E-02  1.74981E+02 -1.00000E+00  1.13802E-01
      21    -1     0     0   502   501  0.000000000E+00  0.000000000E+00  1.449956798E+03  1.449956798E+03  0.000000000E+00  0.00000E+00  9.000E+00
      21    -1     0     0   501   511  0.000000000E+00  0.000000000E+00 -3.251777347E+02  3.251777347E+02  0.000000000E+00  0.00000E+00  9.000E+00
      25     1     1     2     0     0  3.364840297E+02  1.022315767E+02 -8.002376188E+01  3.817087895E+02  1.250000000E+02  0.00000E+00  9.000E+00
      25     1     1     2     0     0 -4.237785009E+02  4.941949724E+01  1.107062285E+03  1.192997237E+03  1.250000000E+02  0.00000E+00  9.000E+00
      21     1     1     2   502   511  8.729447124E+01 -1.516510740E+02  9.774054020E+01  2.004285063E+02  3.568322551E-06  0.00000E+00  9.000E+00
#rwgt            1           1   2.3046435515422910E-002           4      203777           0
</event>
<event>
      5   9999  3.19816E-02  3.04563E+01 -1.00000E+00  1.52586E-01
      21    -1     0     0   512   501  0.000000000E+00  0.000000000E+00  4.663052969E+02  4.663052969E+02  0.000000000E+00  0.00000E+00  9.000E+00
      21    -1     0     0   501   502  0.000000000E+00  0.000000000E+00 -1.054632451E+03  1.054632451E+03  0.000000000E+00  0.00000E+00  9.000E+00
      25     1     1     2     0     0 -1.069060095E+02 -3.465466131E+02  1.769700605E+02  4.224533729E+02  1.250000000E+02  0.00000E+00  9.000E+00
      25     1     1     2     0     0  1.337193036E+02  3.321025517E+02 -8.914261676E+02  9.687303904E+02  1.250000000E+02  0.00000E+00  9.000E+00
      21     1     1     2   512   502 -2.681329408E+01  1.444406137E+01  1.261289532E+02  1.297539844E+02  0.000000000E+00  0.00000E+00  9.000E+00
#rwgt            1           1   3.3805300848552773E-002           4      203834           0
</event>
<event>
      5   9999  3.19816E-02  3.69878E+01 -1.00000E+00  1.46981E-01
      21    -1     0     0   511   501  0.000000000E+00  0.000000000E+00  2.067957588E+02  2.067957588E+02  0.000000000E+00  0.00000E+00  9.000E+00
      21    -1     0     0   501   502  0.000000000E+00  0.000000000E+00 -8.013503253E+02  8.013503253E+02  0.000000000E+00  0.00000E+00  9.000E+00
      25     1     1     2     0     0 -4.261091639E+00 -2.898183746E+02 -4.991681783E+02  5.905986094E+02  1.250000000E+02  0.00000E+00  9.000E+00
      25     1     1     2     0     0 -2.400588805E+00  3.262013368E+02 -1.240948166E+02  3.707257726E+02  1.250000000E+02  0.00000E+00  9.000E+00
      21     1     1     2   511   502  6.661680444E+00 -3.638296222E+01  2.870842846E+01  4.682170214E+01  1.215700987E-06  0.00000E+00  9.000E+00
#rwgt            1           1   2.8391632855901027E-002           4      204070           0
</event>
<event>
      5   9999  3.19816E-02  4.99820E+01 -1.00000E+00  1.39084E-01
      21    -1     0     0   512   501  0.000000000E+00  0.000000000E+00  4.159310608E+02  4.159310608E+02  0.000000000E+00  0.00000E+00  9.000E+00
      21    -1     0     0   501   502  0.000000000E+00  0.000000000E+00 -4.853531000E+02  4.853531000E+02  0.000000000E+00  0.00000E+00  9.000E+00
      25     1     1     2     0     0  2.104396709E+01  2.097222752E+02  8.201789119E+01  2.584148133E+02  1.250000000E+02  0.00000E+00  9.000E+00
      25     1     1     2     0     0  2.893089116E+01 -2.088761545E+02 -3.560313862E+02  4.322610234E+02  1.250000000E+02  0.00000E+00  9.000E+00
      21     1     1     2   512   502 -4.997485826E+01 -8.461206427E-01  2.045914559E+02  2.106083241E+02  2.697398305E-06  0.00000E+00  9.000E+00
#rwgt            1           1   2.8596034573067881E-002           4      204181           0
</event>
<event>
      5   9999  3.19816E-02  2.48036E+01 -1.00000E+00  1.59008E-01
      21    -1     0     0   511   501  0.000000000E+00  0.000000000E+00  2.190653484E+02  2.190653484E+02  0.000000000E+00  0.00000E+00  9.000E+00
      21    -1     0     0   501   502  0.000000000E+00  0.000000000E+00 -4.405888606E+02  4.405888606E+02  0.000000000E+00  0.00000E+00  9.000E+00
      25     1     1     2     0     0  1.042023583E+02  3.316631774E+01  1.435732405E+02  2.195368113E+02  1.250000000E+02  0.00000E+00  9.000E+00
      25     1     1     2     0     0 -7.996471617E+01 -2.789785507E+01 -3.815593671E+02  4.103476536E+02  1.250000000E+02  0.00000E+00  9.000E+00
      21     1     1     2   511   502 -2.423764217E+01 -5.268462673E+00  1.646261446E+01  2.976974423E+01  5.840038640E-07  0.00000E+00  9.000E+00
#rwgt            1           1   2.8294763863664415E-002           4      204301           0
</event>
<event>
      5   9999  3.19816E-02  6.45890E+01 -1.00000E+00  1.33015E-01
      21    -1     0     0   512   501  0.000000000E+00  0.000000000E+00  5.283838374E+02  5.283838374E+02  0.000000000E+00  0.00000E+00  9.000E+00
      21    -1     0     0   501   502  0.000000000E+00  0.000000000E+00 -1.071777835E+03  1.071777835E+03  0.000000000E+00  0.00000E+00  9.000E+00
      25     1     1     2     0     0 -1.157181248E+02  2.691467654E+02 -6.991980904E+02  7.683317222E+02  1.250000000E+02  0.00000E+00  9.000E+00
      25     1     1     2     0     0  1.324472272E+02 -2.067618539E+02 -2.790787649E+02  3.921768597E+02  1.250000000E+02  0.00000E+00  9.000E+00
      21     1     1     2   512   502 -1.672910245E+01 -6.238491153E+01  4.348828577E+02  4.396530905E+02  7.629394531E-06  0.00000E+00  9.000E+00
#rwgt            1           1   2.9289989415630588E-002           4      204437           0
</event>
<event>
      5   9999  3.19816E-02  9.02016E+01 -1.00000E+00  1.25876E-01
       1    -1     0     0   502     0  0.000000000E+00  0.000000000E+00  8.865771026E+02  8.865771026E+02  0.000000000E+00  0.00000E+00  9.000E+00
      21    -1     0     0   501   502  0.000000000E+00  0.000000000E+00 -1.415645003E+02  1.415645003E+02  0.000000000E+00  0.00000E+00  9.000E+00
      25     1     1     2     0     0  1.574738555E+02  1.562522250E+02  5.420428763E+02  5.988724845E+02  1.250000000E+02  0.00000E+00  9.000E+00
      25     1     1     2     0     0 -2.333145334E+02 -1.074207059E+02  1.329499229E+02  3.150802462E+02  1.250000000E+02  0.00000E+00  9.000E+00
       1     1     1     2   501     0  7.584067794E+01 -4.883151904E+01  7.001980314E+01  1.141888721E+02  2.132480600E-06  0.00000E+00  9.000E+00
#rwgt            1           1   2.7209496753225981E-002           4      204522           0
</event>
<event>
      5   9999  3.19816E-02  3.07568E+02 -1.00000E+00  1.05242E-01
       2    -1     0     0   502     0  0.000000000E+00  0.000000000E+00  2.119419250E+03  2.119419250E+03  0.000000000E+00  0.00000E+00  9.000E+00
      21    -1     0     0   501   502  0.000000000E+00  0.000000000E+00 -6.913949794E+02  6.913949794E+02  0.000000000E+00  0.00000E+00  9.000E+00
      25     1     1     2     0     0  2.812475801E+02  3.318007967E+02 -3.910527396E+02  5.981130455E+02  1.250000000E+02  0.00000E+00  9.000E+00
      25     1     1     2     0     0 -4.179778359E+02 -5.629639771E+01  8.057831232E+01  4.472053444E+02  1.250000000E+02  0.00000E+00  9.000E+00
       2     1     1     2   501     0  1.367302558E+02 -2.755043990E+02  1.738498698E+03  1.765495840E+03  2.157918644E-05  0.00000E+00  9.000E+00
#rwgt            1           1   2.7369365274206525E-002           4      204588           0
</event>
<event>
      5   9999  3.19816E-02  2.36416E+02 -1.00000E+00  1.09066E-01
       1    -1     0     0   502     0  0.000000000E+00  0.000000000E+00  1.626060096E+03  1.626060096E+03  0.000000000E+00  0.00000E+00  9.000E+00
      21    -1     0     0   501   502  0.000000000E+00  0.000000000E+00 -6.858958892E+02  6.858958892E+02  0.000000000E+00  0.00000E+00  9.000E+00
      25     1     1     2     0     0  5.973396737E+02  4.462603763E+02  3.341625237E+02  8.265909517E+02  1.250000000E+02  0.00000E+00  9.000E+00
      25     1     1     2     0     0 -5.788081691E+02 -2.105722084E+02 -1.887384205E+02  6.562063265E+02  1.250000000E+02  0.00000E+00  9.000E+00
       1     1     1     2   501     0 -1.853150458E+01 -2.356881678E+02  7.947401036E+02  8.291587070E+02  1.078959322E-05  0.00000E+00  9.000E+00
#rwgt            2          17   7.7224057338005892E-004           4      204688           0
</event>
<event>
      5   9999  3.19816E-02  8.59342E+01 -1.00000E+00  1.26863E-01
      21    -1     0     0   502   501  0.000000000E+00  0.000000000E+00  1.840929640E+02  1.840929640E+02  0.000000000E+00  0.00000E+00  9.000E+00
      21    -1     0     0   501   511  0.000000000E+00  0.000000000E+00 -7.659263844E+02  7.659263844E+02  0.000000000E+00  0.00000E+00  9.000E+00
      25     1     1     2     0     0  3.108637969E+01 -3.949356335E+01 -3.439628073E+02  3.694069806E+02  1.250000000E+02  0.00000E+00  9.000E+00
      25     1     1     2     0     0 -9.592705892E+01  9.588833708E+01  1.150439522E+02  2.173860271E+02  1.250000000E+02  0.00000E+00  9.000E+00
      21     1     1     2   502   511  6.484067924E+01 -5.639477372E+01 -3.529145654E+02  3.632263408E+02  5.394796609E-06  0.00000E+00  9.000E+00
#rwgt            1           1   2.7965971106150567E-002           4      204707           0
</event>
<event>
      5   9999  3.19816E-02  1.47078E+01 -1.00000E+00  1.78192E-01
      21    -1     0     0   502   512  0.000000000E+00  0.000000000E+00  2.040937268E+02  2.040937268E+02  0.000000000E+00  0.00000E+00  9.000E+00
      21    -1     0     0   501   502  0.000000000E+00  0.000000000E+00 -2.605210175E+02  2.605210175E+02  0.000000000E+00  0.00000E+00  9.000E+00
      25     1     1     2     0     0 -1.610397233E+02  2.399658892E+01  4.105613998E+01  2.093328340E+02  1.250000000E+02  0.00000E+00  9.000E+00
      25     1     1     2     0     0  1.751043888E+02 -1.969498550E+01 -1.032961157E+02  2.394671730E+02  1.250000000E+02  0.00000E+00  9.000E+00
      21     1     1     2   501   512 -1.406466558E+01 -4.301603420E+00  5.812685006E+00  1.581473733E+01  2.528810911E-07  0.00000E+00  9.000E+00
#rwgt            1           1   2.7474246694264813E-002           4      204810           0
</event>
<event>
      5   9999  3.19816E-02  4.18533E+01 -1.00000E+00  1.43631E-01
      21    -1     0     0   502   501  0.000000000E+00  0.000000000E+00  9.415396730E+01  9.415396730E+01  0.000000000E+00  0.00000E+00  9.000E+00
      21    -1     0     0   501   511  0.000000000E+00  0.000000000E+00 -9.482442042E+02  9.482442042E+02  0.000000000E+00  0.00000E+00  9.000E+00
      25     1     1     2     0     0 -4.421194544E+01  5.861081657E+01  1.478179403E+01  1.457169358E+02  1.250000000E+02  0.00000E+00  9.000E+00
      25     1     1     2     0     0  2.892127599E+01 -9.757096581E+01 -8.000986470E+02  8.161736204E+02  1.250000000E+02  0.00000E+00  9.000E+00
      21     1     1     2   502   511  1.529066944E+01  3.896014924E+01 -6.877338386E+01  8.050761534E+01  9.536743164E-07  0.00000E+00  9.000E+00
#rwgt            1           1   3.0590529230688255E-002           4      204949           0
</event>
<event>
      5   9999  3.19816E-02  6.95626E+01 -1.00000E+00  1.31359E-01
      21    -1     0     0   502   512  0.000000000E+00  0.000000000E+00  1.493944097E+03  1.493944097E+03  0.000000000E+00  0.00000E+00  9.000E+00
      21    -1     0     0   501   502  0.000000000E+00  0.000000000E+00 -1.295539766E+03  1.295539766E+03  0.000000000E+00  0.00000E+00  9.000E+00
      25     1     1     2     0     0 -1.871231233E+02  5.026352499E+02 -8.149496362E+02  9.835777383E+02  1.250000000E+02  0.00000E+00  9.000E+00
      25     1     1     2     0     0  1.521972680E+02 -5.627945475E+02 -1.703832552E+02  6.201267327E+02  1.250000000E+02  0.00000E+00  9.000E+00
      21     1     1     2   501   512  3.492585535E+01  6.015929760E+01  1.183737222E+03  1.185779392E+03  2.642899792E-05  0.00000E+00  9.000E+00
#rwgt            1           1   2.8972760606268223E-002           4      205068           0
</event>
<event>
      5   9999  3.19816E-02  1.19839E+02 -1.00000E+00  1.20393E-01
      21    -1     0     0   502   501  0.000000000E+00  0.000000000E+00  6.848051666E+02  6.848051666E+02  0.000000000E+00  0.00000E+00  9.000E+00
      21    -1     0     0   511   502  0.000000000E+00  0.000000000E+00 -1.375781066E+03  1.375781066E+03  0.000000000E+00  0.00000E+00  9.000E+00
      25     1     1     2     0     0 -2.807627805E+02 -4.368440213E+02 -9.625954581E+02  1.100852149E+03  1.250000000E+02  0.00000E+00  9.000E+00
      25     1     1     2     0     0  3.958507517E+02  4.034346685E+02  4.580094742E+02  7.381429589E+02  1.250000000E+02  0.00000E+00  9.000E+00
      21     1     1     2   511   501 -1.150879712E+02  3.340935279E+01 -1.863899153E+02  2.215911246E+02  3.814697266E-06  0.00000E+00  9.000E+00
#rwgt            1           1   2.9014851346518201E-002           4      205183           0
</event>
<event>
      5   9999  3.19816E-02  2.23171E+01 -1.00000E+00  1.62534E-01
      21    -1     0     0   502   501  0.000000000E+00  0.000000000E+00  2.958100361E+02  2.958100361E+02  0.000000000E+00  0.00000E+00  9.000E+00
      21    -1     0     0   512   502  0.000000000E+00  0.000000000E+00 -2.385311436E+02  2.385311436E+02  0.000000000E+00  0.00000E+00  9.000E+00
      25     1     1     2     0     0 -2.229670754E+02  2.844645055E+01  6.107491886E+01  2.643457262E+02  1.250000000E+02  0.00000E+00  9.000E+00
      25     1     1     2     0     0  2.041840224E+02 -1.639442212E+01  1.553404251E+01  2.404707852E+02  1.250000000E+02  0.00000E+00  9.000E+00
      21     1     1     2   512   501  1.878305302E+01 -1.205202843E+01 -1.933006889E+01  2.952466822E+01  4.129530925E-07  0.00000E+00  9.000E+00
#rwgt            1           1   2.6823879224851428E-002           4      205319           0
</event>
<event>
      5   9999  3.19816E-02  5.69246E+01 -1.00000E+00  1.35936E-01
      21    -1     0     0   502   501  0.000000000E+00  0.000000000E+00  1.734256613E+02  1.734256613E+02  0.000000000E+00  0.00000E+00  9.000E+00
      21    -1     0     0   511   502  0.000000000E+00  0.000000000E+00 -1.058185680E+03  1.058185680E+03  0.000000000E+00  0.00000E+00  9.000E+00
      25     1     1     2     0     0 -5.597841987E+01  2.187640879E+02 -6.389870773E+02  6.891449735E+02  1.250000000E+02  0.00000E+00  9.000E+00
      25     1     1     2     0     0  6.607979447E+01 -2.747852524E+02 -2.005199507E+01  3.096781502E+02  1.250000000E+02  0.00000E+00  9.000E+00
      21     1     1     2   511   501 -1.010137460E+01  5.602116457E+01 -2.257209464E+02  2.327882177E+02  3.814697266E-06  0.00000E+00  9.000E+00
#rwgt            1           1   2.5328553907890412E-002           4      205459           0
</event>
<event>
      5   9999  3.19816E-02  1.24205E+01 -1.00000E+00  1.85469E-01
      21    -1     0     0   502   512  0.000000000E+00  0.000000000E+00  1.750909354E+03  1.750909354E+03  0.000000000E+00  0.00000E+00  9.000E+00
      21    -1     0     0   501   502  0.000000000E+00  0.000000000E+00 -6.706369164E+01  6.706369164E+01  0.000000000E+00  0.00000E+00  9.000E+00
      25     1     1     2     0     0  2.084604297E+02  7.789034006E+01  2.475841056E+02  3.555918238E+02  1.250000000E+02  0.00000E+00  9.000E+00
      25     1     1     2     0     0 -2.128815959E+02 -8.949728417E+01  1.360737171E+03  1.385842338E+03  1.250000000E+02  0.00000E+00  9.000E+00
      21     1     1     2   501   512  4.421166141E+00  1.160694410E+01  7.552438522E+01  7.653888309E+01  1.348699152E-06  0.00000E+00  9.000E+00
#rwgt            1           1   3.8594127951293897E-002           4      205573           0
</event>
<event>
      5   9999  3.19816E-02  7.62013E+00 -1.00000E+00  2.10472E-01
      21    -1     0     0   502   501  0.000000000E+00  0.000000000E+00  4.960200016E+02  4.960200016E+02  0.000000000E+00  0.00000E+00  9.000E+00
       2    -1     0     0   501     0  0.000000000E+00  0.000000000E+00 -2.244026786E+03  2.244026786E+03  0.000000000E+00  0.00000E+00  9.000E+00
      25     1     1     2     0     0 -3.812512576E+02  2.627930870E+02  1.475307625E+01  4.798493319E+02  1.250000000E+02  0.00000E+00  9.000E+00
      25     1     1     2     0     0  3.852378673E+02 -2.562989834E+02  1.779734426E+01  4.796239451E+02  1.250000000E+02  0.00000E+00  9.000E+00
       2     1     1     2   502     0 -3.986609666E+00 -6.494103603E+00 -1.780557205E+03  1.780573510E+03  0.000000000E+00  0.00000E+00  9.000E+00
#rwgt            1           1   2.3576619875060836E-002           4      205827           0
</event>
<event>
      5   9999  3.19816E-02  9.41032E+01 -1.00000E+00  1.25027E-01
      21    -1     0     0   502   501  0.000000000E+00  0.000000000E+00  1.281821967E+02  1.281821967E+02  0.000000000E+00  0.00000E+00  9.000E+00
       1    -1     0     0   501     0  0.000000000E+00  0.000000000E+00 -8.449970764E+02  8.449970764E+02  0.000000000E+00  0.00000E+00  9.000E+00
      25     1     1     2     0     0  1.241376921E+01  1.488955735E+02  2.246333285E-01  1.948051435E+02  1.250000000E+02  0.00000E+00  9.000E+00
      25     1     1     2     0     0 -3.164323463E+01 -5.677807571E+01 -6.440555089E+02  6.592856306E+02  1.250000000E+02  0.00000E+00  9.000E+00
       1     1     1     2   502     0  1.922946542E+01 -9.211749781E+01 -7.298400410E+01  1.190884990E+02  2.132480600E-06  0.00000E+00  9.000E+00
#rwgt            1           1   2.7969517262439392E-002           4      206136           0
</event>
<event>
      5   9999  3.19816E-02  2.24365E+01 -1.00000E+00  1.62352E-01
      21    -1     0     0   502   501  0.000000000E+00  0.000000000E+00  1.227911796E+02  1.227911796E+02  0.000000000E+00  0.00000E+00  9.000E+00
      21    -1     0     0   501   511  0.000000000E+00  0.000000000E+00 -6.625110711E+02  6.625110711E+02  0.000000000E+00  0.00000E+00  9.000E+00
      25     1     1     2     0     0  2.021542679E+02  8.038469622E+01 -8.693673879E+01  2.655391571E+02  1.250000000E+02  0.00000E+00  9.000E+00
      25     1     1     2     0     0 -1.832322243E+02 -6.832839330E+01 -4.227964825E+02  4.823118109E+02  1.250000000E+02  0.00000E+00  9.000E+00
      21     1     1     2   502   511 -1.892204362E+01 -1.205630293E+01 -2.998667030E+01  3.745128263E+01  6.743495762E-07  0.00000E+00  9.000E+00
#rwgt            1           1   2.9971468292442679E-002           4      206218           0
</event>
<event>
      5   9999  3.19816E-02  3.75751E+01 -1.00000E+00  1.46545E-01
      21    -1     0     0   512   501  0.000000000E+00  0.000000000E+00  3.667507111E+02  3.667507111E+02  0.000000000E+00  0.00000E+00  9.000E+00
      21    -1     0     0   501   502  0.000000000E+00  0.000000000E+00 -2.207057459E+02  2.207057459E+02  0.000000000E+00  0.00000E+00  9.000E+00
      25     1     1     2     0     0 -1.304896025E+02  1.764499944E+02 -4.432053283E+01  2.564204487E+02  1.250000000E+02  0.00000E+00  9.000E+00
      25     1     1     2     0     0  1.079111396E+02 -1.464150379E+02  1.198641631E+02  2.511465608E+02  1.250000000E+02  0.00000E+00  9.000E+00
      21     1     1     2   512   502  2.257846293E+01 -3.003495649E+01  7.050133490E+01  7.988944750E+01  9.536743164E-07  0.00000E+00  9.000E+00
#rwgt            1           1   2.9849493420367985E-002           4      206336           0
</event>
<event>
      5   9999  3.19816E-02  4.21448E+01 -1.00000E+00  1.43447E-01
      21    -1     0     0   502   501  0.000000000E+00  0.000000000E+00  4.908266611E+02  4.908266611E+02  0.000000000E+00  0.00000E+00  9.000E+00
      21    -1     0     0   511   502  0.000000000E+00  0.000000000E+00 -2.011373732E+03  2.011373732E+03  0.000000000E+00  0.00000E+00  9.000E+00
      25     1     1     2     0     0 -5.299274788E+01  3.426548200E+02  1.895550791E+02  4.144595095E+02  1.250000000E+02  0.00000E+00  9.000E+00
      25     1     1     2     0     0  1.479991259E+01 -3.248364810E+02  2.765981187E+01  3.494679413E+02  1.250000000E+02  0.00000E+00  9.000E+00
      21     1     1     2   511   501  3.819283529E+01 -1.781833903E+01 -1.737761962E+03  1.738272943E+03  2.157918644E-05  0.00000E+00  9.000E+00
#rwgt            1           1   2.7062877508347422E-002           4      206457           0
</event>
<event>
      5   9999  3.19816E-02  2.61778E+02 -1.00000E+00  1.07551E-01
      21    -1     0     0   502   501  0.000000000E+00  0.000000000E+00  1.076080256E+02  1.076080256E+02  0.000000000E+00  0.00000E+00  9.000E+00
       1    -1     0     0   501     0  0.000000000E+00  0.000000000E+00 -1.181473846E+03  1.181473846E+03  0.000000000E+00  0.00000E+00  9.000E+00
      25     1     1     2     0     0  1.285180805E+02 -8.513155494E+01 -3.404013437E+02  3.940334420E+02  1.250000000E+02  0.00000E+00  9.000E+00
      25     1     1     2     0     0  1.135768074E+02  1.847202554E+02 -3.320047679E+02  4.157805068E+02  1.250000000E+02  0.00000E+00  9.000E+00
       1     1     1     2   502     0 -2.420948879E+02 -9.958870049E+01 -4.014597088E+02  4.792679228E+02  0.000000000E+00  0.00000E+00  9.000E+00
#rwgt            1           1   3.1657124566858784E-002           4      206554           0
</event>
<event>
      5   9999  3.19816E-02  3.82213E+01 -1.00000E+00  1.46076E-01
      21    -1     0     0   502   511  0.000000000E+00  0.000000000E+00  4.657163824E+02  4.657163824E+02  0.000000000E+00  0.00000E+00  9.000E+00
      21    -1     0     0   501   502  0.000000000E+00  0.000000000E+00 -4.636944627E+02  4.636944627E+02  0.000000000E+00  0.00000E+00  9.000E+00
      25     1     1     2     0     0 -3.432872324E+02 -3.400179255E+01  2.374171186E+02  4.370287565E+02  1.250000000E+02  0.00000E+00  9.000E+00
      25     1     1     2     0     0  3.372573956E+02  7.174447571E+01 -2.575914461E+02  4.481831922E+02  1.250000000E+02  0.00000E+00  9.000E+00
      21     1     1     2   501   511  6.029836846E+00 -3.774268316E+01  2.219624712E+01  4.419889648E+01  5.331201500E-07  0.00000E+00  9.000E+00
#rwgt            1           1   2.8430517714920181E-002           4      206600           0
</event>
<event>
      5   9999  3.19816E-02  1.55906E+02 -1.00000E+00  1.15733E-01
      21    -1     0     0   502   512  0.000000000E+00  0.000000000E+00  1.568841803E+03  1.568841803E+03  0.000000000E+00  0.00000E+00  9.000E+00
      21    -1     0     0   501   502  0.000000000E+00  0.000000000E+00 -5.168000513E+02  5.168000513E+02  0.000000000E+00  0.00000E+00  9.000E+00
      25     1     1     2     0     0 -3.340620340E+02 -6.382597276E+02 -5.733493751E+01  7.334065840E+02  1.250000000E+02  0.00000E+00  9.000E+00
      25     1     1     2     0     0  1.974316080E+02  5.631677495E+02  9.534432069E+02  1.131731462E+03  1.250000000E+02  0.00000E+00  9.000E+00
      21     1     1     2   501   512  1.366304260E+02  7.509197812E+01  1.559334826E+02  2.205038083E+02  3.303624740E-06  0.00000E+00  9.000E+00
#rwgt            1           1   2.0257277447372921E-002           4      206760           0
</event>
<event>
      5   9999  3.19816E-02  1.50524E+02 -1.00000E+00  1.16334E-01
      21    -1     0     0   502   501  0.000000000E+00  0.000000000E+00  5.179772817E+02  5.179772817E+02  0.000000000E+00  0.00000E+00  9.000E+00
       3    -1     0     0   501     0  0.000000000E+00  0.000000000E+00 -2.011983452E+02  2.011983452E+02  0.000000000E+00  0.00000E+00  9.000E+00
      25     1     1     2     0     0  2.544097676E+02  1.719777127E+00  2.353160932E+02  3.684100313E+02  1.250000000E+02  0.00000E+00  9.000E+00
      25     1     1     2     0     0 -1.196004509E+02 -6.868286513E+01  1.664554966E+01  1.868787793E+02  1.250000000E+02  0.00000E+00  9.000E+00
       3     1     1     2   502     0 -1.348093166E+02  6.696308800E+01  6.481729369E+01  1.638868163E+02  9.536743164E-07  0.00000E+00  9.000E+00
#rwgt            1           1   3.2422179193172543E-002           4      206832           0
</event>
<event>
      5   9999  3.19816E-02  6.98328E+01 -1.00000E+00  1.31273E-01
      21    -1     0     0   502   501  0.000000000E+00  0.000000000E+00  1.736409235E+03  1.736409235E+03  0.000000000E+00  0.00000E+00  9.000E+00
      21    -1     0     0   501   511  0.000000000E+00  0.000000000E+00 -1.241331768E+02  1.241331768E+02  0.000000000E+00  0.00000E+00  9.000E+00
      25     1     1     2     0     0  4.807541980E+01 -1.870136333E+02  1.267903884E+03  1.288600250E+03  1.250000000E+02  0.00000E+00  9.000E+00
      25     1     1     2     0     0 -1.075240058E+02  2.236535082E+02  3.969440783E+02  4.845326665E+02  1.250000000E+02  0.00000E+00  9.000E+00
      21     1     1     2   502   511  5.944858602E+01 -3.663987488E+01 -5.257190405E+01  8.740949551E+01  4.046097457E-06  0.00000E+00  9.000E+00
#rwgt            1           1   3.3951522125507921E-002           4      206893           0
</event>
<event>
      5   9999  3.19816E-02  1.19080E+01 -1.00000E+00  1.87380E-01
      21    -1     0     0   512   501  0.000000000E+00  0.000000000E+00  7.766315869E+01  7.766315869E+01  0.000000000E+00  0.00000E+00  9.000E+00
      21    -1     0     0   501   502  0.000000000E+00  0.000000000E+00 -2.983572078E+03  2.983572078E+03  0.000000000E+00  0.00000E+00  9.000E+00
      25     1     1     2     0     0  2.141525990E+02  3.891972131E+02 -1.401087239E+03  1.475129234E+03  1.250000000E+02  0.00000E+00  9.000E+00
      25     1     1     2     0     0 -2.025036687E+02 -3.867270240E+02 -1.507066283E+03  1.573988344E+03  1.250000000E+02  0.00000E+00  9.000E+00
      21     1     1     2   512   502 -1.164893025E+01 -2.470189090E+00  2.244602196E+00  1.211765856E+01  4.470348358E-07  0.00000E+00  9.000E+00
#rwgt            1           1   3.8516500733886488E-002           4      206962           0
</event>
<event>
      5   9999  3.19816E-02  8.25769E+00 -1.00000E+00  2.05886E-01
      21    -1     0     0   502   511  0.000000000E+00  0.000000000E+00  2.423732225E+02  2.423732225E+02  0.000000000E+00  0.00000E+00  9.000E+00
      21    -1     0     0   501   502  0.000000000E+00  0.000000000E+00 -1.755586107E+02  1.755586107E+02  0.000000000E+00  0.00000E+00  9.000E+00
      25     1     1     2     0     0  1.344014917E+02 -4.811772616E+01  9.865414457E+01  2.138614430E+02  1.250000000E+02  0.00000E+00  9.000E+00
      25     1     1     2     0     0 -1.305019809E+02  4.083877112E+01 -4.299633835E+01  1.901900559E+02  1.250000000E+02  0.00000E+00  9.000E+00
      21     1     1     2   501   511 -3.899510788E+00  7.278955048E+00  1.115680552E+01  1.388033430E+01  2.064765462E-07  0.00000E+00  9.000E+00
#rwgt            1           1   2.8777021431995557E-002           4      207171           0
</event>
<event>
      5   9999  3.19816E-02  1.52980E+01 -1.00000E+00  1.76583E-01
      21    -1     0     0   502   501  0.000000000E+00  0.000000000E+00  2.010205856E+02  2.010205856E+02  0.000000000E+00  0.00000E+00  9.000E+00
      21    -1     0     0   512   502  0.000000000E+00  0.000000000E+00 -3.506175245E+02  3.506175245E+02  0.000000000E+00  0.00000E+00  9.000E+00
      25     1     1     2     0     0  9.646284095E+01 -9.583105055E+01 -2.187392126E+02  2.862874658E+02  1.250000000E+02  0.00000E+00  9.000E+00
      25     1     1     2     0     0 -9.313775732E+01  8.089879668E+01  1.196942516E+02  2.125346349E+02  1.250000000E+02  0.00000E+00  9.000E+00
      21     1     1     2   512   501 -3.325083634E+00  1.493225387E+01 -5.055197796E+01  5.281600952E+01  9.536743164E-07  0.00000E+00  9.000E+00
#rwgt            1           1   2.3574779570978120E-002           4      207397           0
</event>
<event>
      5   9999  3.19816E-02  3.95765E+01 -1.00000E+00  1.45127E-01
      21    -1     0     0   502   501  0.000000000E+00  0.000000000E+00  2.208555548E+01  2.208555548E+01  0.000000000E+00  0.00000E+00  9.000E+00
       2    -1     0     0   501     0  0.000000000E+00  0.000000000E+00 -2.672604358E+03  2.672604358E+03  0.000000000E+00  0.00000E+00  9.000E+00
      25     1     1     2     0     0  1.227156835E+01 -1.570780095E+02 -1.106811321E+03  1.124935729E+03  1.250000000E+02  0.00000E+00  9.000E+00
      25     1     1     2     0     0 -5.083946290E+01  1.482000641E+02 -7.907178370E+02  8.157252036E+02  1.250000000E+02  0.00000E+00  9.000E+00
       2     1     1     2   502     0  3.856789455E+01  8.877945374E+00 -7.529896436E+02  7.540289807E+02  1.078959322E-05  0.00000E+00  9.000E+00
#rwgt            1           1   8.1456925578794553E-002           4      207564           0
</event>
<event>
      5   9999  3.19816E-02  1.49661E+01 -1.00000E+00  1.77476E-01
      21    -1     0     0   502   501  0.000000000E+00  0.000000000E+00  2.619679513E+03  2.619679513E+03  0.000000000E+00  0.00000E+00  9.000E+00
      21    -1     0     0   501   511  0.000000000E+00  0.000000000E+00 -8.469911603E+01  8.469911603E+01  0.000000000E+00  0.00000E+00  9.000E+00
      25     1     1     2     0     0  2.141209511E+02 -8.863887510E+01  2.345631772E+03  2.360363963E+03  1.250000000E+02  0.00000E+00  9.000E+00
      25     1     1     2     0     0 -2.083861267E+02  1.024626114E+02  1.534354493E+02  3.051078524E+02  1.250000000E+02  0.00000E+00  9.000E+00
      21     1     1     2   502   511 -5.734824409E+00 -1.382373630E+01  3.591317650E+01  3.890681358E+01  4.768371582E-07  0.00000E+00  9.000E+00
#rwgt            1           1   7.9396861846283834E-002           4      207652           0
</event>
<event>
      5   9999  3.19816E-02  7.14123E+01 -1.00000E+00  1.30783E-01
      21    -1     0     0   502   501  0.000000000E+00  0.000000000E+00  5.502304472E+01  5.502304472E+01  0.000000000E+00  0.00000E+00  9.000E+00
       1    -1     0     0   501     0  0.000000000E+00  0.000000000E+00 -1.618049616E+03  1.618049616E+03  0.000000000E+00  0.00000E+00  9.000E+00
      25     1     1     2     0     0  8.788492842E+01  1.573662933E+02 -2.525888024E+02  3.345355198E+02  1.250000000E+02  0.00000E+00  9.000E+00
      25     1     1     2     0     0 -3.744589874E+01 -1.068131303E+02 -5.634325567E+02  5.881262501E+02  1.250000000E+02  0.00000E+00  9.000E+00
       1     1     1     2   502     0 -5.043902969E+01 -5.055316306E+01 -7.470052118E+02  7.504108904E+02  1.078959322E-05  0.00000E+00  9.000E+00
#rwgt            1           1   2.5004284798404237E-002           4      207829           0
</event>
<event>
      5   9999  3.19816E-02  1.67474E+01 -1.00000E+00  1.72991E-01
      21    -1     0     0   511   501  0.000000000E+00  0.000000000E+00  2.656837444E+02  2.656837444E+02  0.000000000E+00  0.00000E+00  9.000E+00
      21    -1     0     0   501   502  0.000000000E+00  0.000000000E+00 -1.370041030E+02  1.370041030E+02  0.000000000E+00  0.00000E+00  9.000E+00
      25     1     1     2     0     0 -3.144764111E+01  9.839553434E+01 -2.526261050E+01  1.641153095E+02  1.250000000E+02  0.00000E+00  9.000E+00
      25     1     1     2     0     0  1.591825037E+01 -1.046656284E+02  1.481089888E+02  2.208383052E+02  1.250000000E+02  0.00000E+00  9.000E+00
      21     1     1     2   511   502  1.552939074E+01  6.270094062E+00  5.833263069E+00  1.773423284E+01  2.528810911E-07  0.00000E+00  9.000E+00
#rwgt            1           1   2.7492885457344986E-002           4      207901           0
</event>
<event>
      5   9999  3.19816E-02  4.82032E+01 -1.00000E+00  1.39988E-01
      21    -1     0     0   512   501  0.000000000E+00  0.000000000E+00  3.672779914E+02  3.672779914E+02  0.000000000E+00  0.00000E+00  9.000E+00
      21    -1     0     0   501   502  0.000000000E+00  0.000000000E+00 -6.346230850E+02  6.346230850E+02  0.000000000E+00  0.00000E+00  9.000E+00
      25     1     1     2     0     0 -3.773369763E+01 -1.284296351E+02 -3.533982849E+02  3.980368713E+02  1.250000000E+02  0.00000E+00  9.000E+00
      25     1     1     2     0     0 -1.016918573E+01  1.230572051E+02 -2.270375413E+02  2.870845402E+02  1.250000000E+02  0.00000E+00  9.000E+00
      21     1     1     2   512   502  4.790288336E+01  5.372429951E+00  3.130907327E+02  3.167796649E+02  5.394796609E-06  0.00000E+00  9.000E+00
#rwgt            1           1   2.4736745973396413E-002           4      208017           0
</event>
<event>
      5   9999  3.19816E-02  2.49046E+01 -1.00000E+00  1.58875E-01
      21    -1     0     0   502   501  0.000000000E+00  0.000000000E+00  4.701762059E+02  4.701762059E+02  0.000000000E+00  0.00000E+00  9.000E+00
      21    -1     0     0   511   502  0.000000000E+00  0.000000000E+00 -9.185101173E+02  9.185101173E+02  0.000000000E+00  0.00000E+00  9.000E+00
      25     1     1     2     0     0 -3.384694109E+02  1.864677740E+02  3.057752710E+02  5.083849813E+02  1.250000000E+02  0.00000E+00  9.000E+00
      25     1     1     2     0     0  3.437228680E+02 -2.108119978E+02 -6.641697355E+02  7.869774749E+02  1.250000000E+02  0.00000E+00  9.000E+00
      21     1     1     2   511   501 -5.253457128E+00  2.434422375E+01 -8.993944694E+01  9.332386703E+01  1.907348633E-06  0.00000E+00  9.000E+00
#rwgt            1           1   3.0361222591070828E-002           4      208088           0
</event>
<event>
      5   9999  3.19816E-02  1.47500E+01 -1.00000E+00  1.78074E-01
      21    -1     0     0   502   501  0.000000000E+00  0.000000000E+00  4.650727827E+02  4.650727827E+02  0.000000000E+00  0.00000E+00  9.000E+00
      21    -1     0     0   501   512  0.000000000E+00  0.000000000E+00 -1.790734221E+02  1.790734221E+02  0.000000000E+00  0.00000E+00  9.000E+00
      25     1     1     2     0     0 -9.049728287E+01  8.454831929E+01  3.830760797E+02  4.215571840E+02  1.250000000E+02  0.00000E+00  9.000E+00
      25     1     1     2     0     0  9.534523906E+01 -9.847885177E+01 -8.867259965E+01  2.056128128E+02  1.250000000E+02  0.00000E+00  9.000E+00
      21     1     1     2   502   512 -4.847956192E+00  1.393053248E+01 -8.404119523E+00  1.697620804E+01  2.384185791E-07  0.00000E+00  9.000E+00
#rwgt            1           1   3.2285572747671895E-002           4      208291           0
</event>
<event>
      5   9999  3.19816E-02  9.77997E+01 -1.00000E+00  1.24264E-01
      21    -1     0     0   502   501  0.000000000E+00  0.000000000E+00  2.113550400E+03  2.113550400E+03  0.000000000E+00  0.00000E+00  9.000E+00
      21    -1     0     0   501   511  0.000000000E+00  0.000000000E+00 -3.580794540E+02  3.580794540E+02  0.000000000E+00  0.00000E+00  9.000E+00
      25     1     1     2     0     0 -1.786214366E+02 -2.449731021E+02  6.972106067E+02  7.704836588E+02  1.250000000E+02  0.00000E+00  9.000E+00
      25     1     1     2     0     0  1.391594645E+02  3.344579453E+02  1.344821749E+03  1.398355466E+03  1.250000000E+02  0.00000E+00  9.000E+00
      21     1     1     2   502   511  3.946197208E+01 -8.948484315E+01 -2.865614094E+02  3.027907293E+02  3.814697266E-06  0.00000E+00  9.000E+00
#rwgt            1           1   2.3644663890087687E-002           4      208484           0
</event>
<event>
      5   9999  3.19816E-02  2.29838E+01 -1.00000E+00  1.61536E-01
      21    -1     0     0   502   501  0.000000000E+00  0.000000000E+00  4.336183229E+01  4.336183229E+01  0.000000000E+00  0.00000E+00  9.000E+00
      21    -1     0     0   512   502  0.000000000E+00  0.000000000E+00 -1.585642778E+03  1.585642778E+03  0.000000000E+00  0.00000E+00  9.000E+00
      25     1     1     2     0     0  1.161544322E+02  1.602196979E+02 -4.260569381E+02  4.861190371E+02  1.250000000E+02  0.00000E+00  9.000E+00
      25     1     1     2     0     0 -1.000145107E+02 -1.438563837E+02 -8.969769183E+02  9.224370729E+02  1.250000000E+02  0.00000E+00  9.000E+00
      21     1     1     2   512   501 -1.613992148E+01 -1.636331421E+01 -2.192470889E+02  2.204484999E+02  3.814697266E-06  0.00000E+00  9.000E+00
#rwgt            1           1   3.1872132190070394E-002           4      208595           0
</event>
<event>
      5   9999  3.19816E-02  7.15507E+01 -1.00000E+00  1.30741E-01
      21    -1     0     0   511   501  0.000000000E+00  0.000000000E+00  3.037563175E+02  3.037563175E+02  0.000000000E+00  0.00000E+00  9.000E+00
      21    -1     0     0   501   502  0.000000000E+00  0.000000000E+00 -6.669335803E+02  6.669335803E+02  0.000000000E+00  0.00000E+00  9.000E+00
      25     1     1     2     0     0  2.303570349E+02  3.040667727E+02 -3.817068203E+02  5.539368759E+02  1.250000000E+02  0.00000E+00  9.000E+00
      25     1     1     2     0     0 -2.211406997E+02 -2.331120796E+02  1.398125621E+01  3.450578593E+02  1.250000000E+02  0.00000E+00  9.000E+00
      21     1     1     2   511   502 -9.216335133E+00 -7.095469303E+01  4.548301399E+00  7.169516262E+01  8.534086384E-07  0.00000E+00  9.000E+00
#rwgt            1           1   2.8954034236824910E-002           4      208746           0
</event>
<event>
      5   9999  3.19816E-02  7.26024E+00 -1.00000E+00  2.13337E-01
      21    -1     0     0   502   512  0.000000000E+00  0.000000000E+00  2.498524067E+02  2.498524067E+02  0.000000000E+00  0.00000E+00  9.000E+00
      21    -1     0     0   501   502  0.000000000E+00  0.000000000E+00 -2.359825959E+02  2.359825959E+02  0.000000000E+00  0.00000E+00  9.000E+00
      25     1     1     2     0     0 -7.822395983E+01  6.159256037E+01 -1.744845216E+02  2.366061700E+02  1.250000000E+02  0.00000E+00  9.000E+00
      25     1     1     2     0     0  7.480548285E+01 -5.518747505E+01  1.774056607E+02  2.360916900E+02  1.250000000E+02  0.00000E+00  9.000E+00
      21     1     1     2   501   512  3.418476980E+00 -6.405085320E+00  1.094867169E+01  1.313714256E+01  1.685873940E-07  0.00000E+00  9.000E+00
#rwgt            1           1   2.8233239761777239E-002           4      208884           0
</event>
<event>
      5   9999  3.19816E-02  3.55559E+02 -1.00000E+00  1.03249E-01
      21    -1     0     0   502   501  0.000000000E+00  0.000000000E+00  1.880763250E+03  1.880763250E+03  0.000000000E+00  0.00000E+00  9.000E+00
       1    -1     0     0   501     0  0.000000000E+00  0.000000000E+00 -2.970397031E+03  2.970397031E+03  0.000000000E+00  0.00000E+00  9.000E+00
      25     1     1     2     0     0  4.589273606E+02 -1.304063048E+02  1.441778531E+03  1.523801319E+03  1.250000000E+02  0.00000E+00  9.000E+00
      25     1     1     2     0     0 -6.663726845E+02  4.191773796E+02 -2.672426867E+01  7.975596635E+02  1.250000000E+02  0.00000E+00  9.000E+00
       1     1     1     2   502     0  2.074453240E+02 -2.887710748E+02 -2.504688044E+03  2.529799299E+03  0.000000000E+00  0.00000E+00  9.000E+00
#rwgt            2          12   1.4958246096885520E-003           4      209180           0
</event>
<event>
      5   9999  3.19816E-02  4.63921E+01 -1.00000E+00  1.40957E-01
      21    -1     0     0   502   501  0.000000000E+00  0.000000000E+00  1.789398835E+02  1.789398835E+02  0.000000000E+00  0.00000E+00  9.000E+00
       1    -1     0     0   501     0  0.000000000E+00  0.000000000E+00 -3.853482367E+03  3.853482367E+03  0.000000000E+00  0.00000E+00  9.000E+00
      25     1     1     2     0     0 -2.354581808E+02 -4.589200709E+01  2.393938440E+01  2.715598007E+02  1.250000000E+02  0.00000E+00  9.000E+00
      25     1     1     2     0     0  2.528503585E+02  2.883467581E+00 -6.103177625E+02  6.723499011E+02  1.250000000E+02  0.00000E+00  9.000E+00
       1     1     1     2   502     0 -1.739217769E+01  4.300853951E+01 -3.088164105E+03  3.088512548E+03  4.315837288E-05  0.00000E+00  9.000E+00
#rwgt            1           1   2.8136202261904299E-002           4      209199           0
</event>
<event>
      5   9999  3.19816E-02  4.46396E+01 -1.00000E+00  1.41945E-01
      21    -1     0     0   502   501  0.000000000E+00  0.000000000E+00  2.568205299E+02  2.568205299E+02  0.000000000E+00  0.00000E+00  9.000E+00
      21    -1     0     0   501   511  0.000000000E+00  0.000000000E+00 -4.024028894E+02  4.024028894E+02  0.000000000E+00  0.00000E+00  9.000E+00
      25     1     1     2     0     0  1.422846314E+02 -1.360753601E+02  1.311062952E+02  2.675355688E+02  1.250000000E+02  0.00000E+00  9.000E+00
      25     1     1     2     0     0 -1.659996242E+02  9.825620087E+01 -2.094075119E+02  3.109447897E+02  1.250000000E+02  0.00000E+00  9.000E+00
      21     1     1     2   502   511  2.371499284E+01  3.781915918E+01 -6.728114276E+01  8.074306074E+01  9.536743164E-07  0.00000E+00  9.000E+00
#rwgt            1           1   2.3423684773435680E-002           4      209309           0
</event>
<event>
      5   9999  3.19816E-02  6.55208E+01 -1.00000E+00  1.32692E-01
      21    -1     0     0   512   501  0.000000000E+00  0.000000000E+00  3.925420315E+02  3.925420315E+02  0.000000000E+00  0.00000E+00  9.000E+00
      21    -1     0     0   501   502  0.000000000E+00  0.000000000E+00 -7.470219965E+02  7.470219965E+02  0.000000000E+00  0.00000E+00  9.000E+00
      25     1     1     2     0     0 -3.660619856E+02 -2.579390643E+02 -1.736077898E+02  4.962848001E+02  1.250000000E+02  0.00000E+00  9.000E+00
      25     1     1     2     0     0  3.239566496E+02  2.077383029E+02 -3.024450947E+02  5.051743745E+02  1.250000000E+02  0.00000E+00  9.000E+00
      21     1     1     2   512   502  4.210533592E+01  5.020076142E+01  1.215729196E+02  1.381048534E+02  0.000000000E+00  0.00000E+00  9.000E+00
#rwgt            1           1   3.0233331337965397E-002           4      209397           0
</event>
<event>
      5   9999  3.19816E-02  1.79979E+01 -1.00000E+00  1.70239E-01
      21    -1     0     0   511   501  0.000000000E+00  0.000000000E+00  3.435067821E+01  3.435067821E+01  0.000000000E+00  0.00000E+00  9.000E+00
      21    -1     0     0   501   502  0.000000000E+00  0.000000000E+00 -2.356323073E+03  2.356323073E+03  0.000000000E+00  0.00000E+00  9.000E+00
      25     1     1     2     0     0 -7.116706381E+01  1.430520798E+02 -9.658272831E+02  9.869022187E+02  1.250000000E+02  0.00000E+00  9.000E+00
      25     1     1     2     0     0  5.354979299E+01 -1.467341236E+02 -1.367784528E+03  1.382337875E+03  1.250000000E+02  0.00000E+00  9.000E+00
      21     1     1     2   511   502  1.761727082E+01  3.682043860E+00  1.163941660E+01  2.143365804E+01  1.507891493E-06  0.00000E+00  9.000E+00
#rwgt            1           1   5.1516516153121028E-002           4      209501           0
</event>
<event>
      5   9999  3.19816E-02  1.87935E+02 -1.00000E+00  1.12641E-01
      21    -1     0     0   502   501  0.000000000E+00  0.000000000E+00  3.889904823E+02  3.889904823E+02  0.000000000E+00  0.00000E+00  9.000E+00
      21    -1     0     0   512   502  0.000000000E+00  0.000000000E+00 -4.427568890E+02  4.427568890E+02  0.000000000E+00  0.00000E+00  9.000E+00
      25     1     1     2     0     0  3.112578332E+02  2.177261952E+02 -6.100826031E+01  4.045159362E+02  1.250000000E+02  0.00000E+00  9.000E+00
      25     1     1     2     0     0 -1.785680498E+02 -8.463673649E+01  3.769491084E+01  2.368455866E+02  1.250000000E+02  0.00000E+00  9.000E+00
      21     1     1     2   512   501 -1.326897833E+02 -1.330894587E+02 -3.045305725E+01  1.903858485E+02  2.158972058E-06  0.00000E+00  9.000E+00
#rwgt            1           1   2.9192957766889214E-002           4      209681           0
</event>
<event>
      5   9999  3.19816E-02  6.63295E+01 -1.00000E+00  1.32416E-01
      21    -1     0     0   502   501  0.000000000E+00  0.000000000E+00  5.408966578E+02  5.408966578E+02  0.000000000E+00  0.00000E+00  9.000E+00
      21    -1     0     0   501   511  0.000000000E+00  0.000000000E+00 -5.856889699E+02  5.856889699E+02  0.000000000E+00  0.00000E+00  9.000E+00
      25     1     1     2     0     0  5.973878742E+01  1.211743980E+02  3.316717385E+02  3.793192581E+02  1.250000000E+02  0.00000E+00  9.000E+00
      25     1     1     2     0     0 -1.054464426E+02 -1.692411086E+02  1.075320764E+02  2.587463092E+02  1.250000000E+02  0.00000E+00  9.000E+00
      21     1     1     2   502   511  4.570765518E+01  4.806671056E+01 -4.839961271E+02  4.885200604E+02  0.000000000E+00  0.00000E+00  9.000E+00
#rwgt            1           1   2.1500959156050197E-002           4      209766           0
</event>
<event>
      5   9999  3.19816E-02  1.45787E+02 -1.00000E+00  1.16886E-01
      21    -1     0     0   502   512  0.000000000E+00  0.000000000E+00  2.762918213E+03  2.762918213E+03  0.000000000E+00  0.00000E+00  9.000E+00
      21    -1     0     0   501   502  0.000000000E+00  0.000000000E+00 -8.909369264E+02  8.909369264E+02  0.000000000E+00  0.00000E+00  9.000E+00
      25     1     1     2     0     0  9.880093606E+02  9.227424753E+02  9.804719906E+02  1.674683999E+03  1.250000000E+02  0.00000E+00  9.000E+00
      25     1     1     2     0     0 -1.096343011E+03 -1.020300754E+03  5.371170766E+02  1.595964091E+03  1.250000000E+02  0.00000E+00  9.000E+00
      21     1     1     2   501   512  1.083336500E+02  9.755827893E+01  3.543922189E+02  3.832070489E+02  3.814697266E-06  0.00000E+00  9.000E+00
#rwgt            1           1   3.7407932274398446E-002           4      209872           0
</event>
<event>
      5   9999  3.19816E-02  1.72311E+02 -1.00000E+00  1.14056E-01
       2    -1     0     0   502     0  0.000000000E+00  0.000000000E+00  8.188187357E+02  8.188187357E+02  0.000000000E+00  0.00000E+00  9.000E+00
      21    -1     0     0   501   502  0.000000000E+00  0.000000000E+00 -4.612403131E+02  4.612403131E+02  0.000000000E+00  0.00000E+00  9.000E+00
      25     1     1     2     0     0  2.630181853E+02  5.489218169E+01 -5.533570585E+01  3.014610385E+02  1.250000000E+02  0.00000E+00  9.000E+00
      25     1     1     2     0     0 -4.351631416E+02 -6.245857655E+01 -7.317741614E+01  4.628692773E+02  1.250000000E+02  0.00000E+00  9.000E+00
       2     1     1     2   501     0  1.721449563E+02  7.566394853E+00  4.860915446E+02  5.157287330E+02  5.394796609E-06  0.00000E+00  9.000E+00
#rwgt            1           1   3.0879537693825881E-002           4      209946           0
</event>
<event>
      5   9999  3.19816E-02  1.07595E+02 -1.00000E+00  1.22415E-01
      21    -1     0     0   502   501  0.000000000E+00  0.000000000E+00  3.938031888E+02  3.938031888E+02  0.000000000E+00  0.00000E+00  9.000E+00
      21    -1     0     0   511   502  0.000000000E+00  0.000000000E+00 -8.821388161E+02  8.821388161E+02  0.000000000E+00  0.00000E+00  9.000E+00
      25     1     1     2     0     0 -3.116936239E+02 -3.607082646E+02  4.583141986E+00  4.928583696E+02  1.250000000E+02  0.00000E+00  9.000E+00
      25     1     1     2     0     0  3.661611796E+02  2.679187742E+02 -2.883043371E+02  5.519047651E+02  1.250000000E+02  0.00000E+00  9.000E+00
      21     1     1     2   511   501 -5.446755565E+01  9.278949035E+01 -2.046144322E+02  2.311788701E+02  3.814697266E-06  0.00000E+00  9.000E+00
#rwgt            1           1   2.9679353993179163E-002           4      209983           0
</event>
<event>
      5   9999  3.19816E-02  7.56015E+01 -1.00000E+00  1.29550E-01
      21    -1     0     0   502   501  0.000000000E+00  0.000000000E+00  1.193052191E+03  1.193052191E+03  0.000000000E+00  0.00000E+00  9.000E+00
      21    -1     0     0   512   502  0.000000000E+00  0.000000000E+00 -1.035998700E+02  1.035998700E+02  0.000000000E+00  0.00000E+00  9.000E+00
      25     1     1     2     0     0 -1.536676720E+02 -9.316632797E+01  7.150753164E+01  2.302868758E+02  1.250000000E+02  0.00000E+00  9.000E+00
      25     1     1     2     0     0  1.321695763E+02  2.068586802E+01  9.404314644E+02  9.580882220E+02  1.250000000E+02  0.00000E+00  9.000E+00
      21     1     1     2   512   501  2.149809567E+01  7.248045994E+01  7.751332452E+01  1.082769628E+02  1.348699152E-06  0.00000E+00  9.000E+00
#rwgt            2          11   3.3159683753479999E-003           4      210121           0
</event>
<event>
      5   9999  3.19816E-02  6.09744E+02 -1.00000E+00  9.64639E-02
      21    -1     0     0   511   501  0.000000000E+00  0.000000000E+00  1.645908291E+03  1.645908291E+03  0.000000000E+00  0.00000E+00  9.000E+00
      21    -1     0     0   501   502  0.000000000E+00  0.000000000E+00 -6.452682842E+02  6.452682842E+02  0.000000000E+00  0.00000E+00  9.000E+00
      25     1     1     2     0     0  7.047527876E+02  7.692317292E+01 -1.602247935E+02  7.374894241E+02  1.250000000E+02  0.00000E+00  9.000E+00
      25     1     1     2     0     0 -1.685126824E+02 -3.671555843E+02  4.794580970E+02  6.393002535E+02  1.250000000E+02  0.00000E+00  9.000E+00
      21     1     1     2   511   502 -5.362401052E+02  2.902324114E+02  6.814067030E+02  9.143868973E+02  0.000000000E+00  0.00000E+00  9.000E+00
#rwgt            2          11   1.4600999522660025E-003           4      210231           0
</event>
<event>
      5   9999  3.19816E-02  7.84410E+01 -1.00000E+00  1.28765E-01
      21    -1     0     0   502   501  0.000000000E+00  0.000000000E+00  5.763102268E+02  5.763102268E+02  0.000000000E+00  0.00000E+00  9.000E+00
      21    -1     0     0   501   512  0.000000000E+00  0.000000000E+00 -1.566473162E+03  1.566473162E+03  0.000000000E+00  0.00000E+00  9.000E+00
      25     1     1     2     0     0  2.354373615E+02  8.451943298E+02 -3.159656853E+02  9.408738069E+02  1.250000000E+02  0.00000E+00  9.000E+00
      25     1     1     2     0     0 -3.133679386E+02 -8.362601897E+02 -5.538505816E+02  1.058256130E+03  1.250000000E+02  0.00000E+00  9.000E+00
      21     1     1     2   502   512  7.793057713E+01 -8.934140081E+00 -1.203466687E+02  1.436534524E+02  1.348699152E-06  0.00000E+00  9.000E+00
#rwgt            2          11   8.0796397576324529E-003           4      210251           0
</event>
<event>
      5   9999  3.19816E-02  9.15128E+01 -1.00000E+00  1.25585E-01
      21    -1     0     0   502   511  0.000000000E+00  0.000000000E+00  2.577350135E+02  2.577350135E+02  0.000000000E+00  0.00000E+00  9.000E+00
      21    -1     0     0   501   502  0.000000000E+00  0.000000000E+00 -4.320162193E+02  4.320162193E+02  0.000000000E+00  0.00000E+00  9.000E+00
      25     1     1     2     0     0  6.434831667E+00 -4.981881114E+01  1.197289829E+02  1.802313800E+02  1.250000000E+02  0.00000E+00  9.000E+00
      25     1     1     2     0     0 -6.988314890E-01  1.411516969E+02 -3.533116909E+02  4.004727717E+02  1.250000000E+02  0.00000E+00  9.000E+00
      21     1     1     2   501   511 -5.736000178E+00 -9.133288578E+01  5.930150228E+01  1.090470811E+02  2.132480600E-06  0.00000E+00  9.000E+00
#rwgt            1           1   2.6558222316144551E-002           4      210271           0
</event>
<event>
      5   9999  3.19816E-02  4.84696E+01 -1.00000E+00  1.39850E-01
      21    -1     0     0   512   501  0.000000000E+00  0.000000000E+00  4.052146055E+02  4.052146055E+02  0.000000000E+00  0.00000E+00  9.000E+00
      21    -1     0     0   501   502  0.000000000E+00  0.000000000E+00 -2.069870161E+02  2.069870161E+02  0.000000000E+00  0.00000E+00  9.000E+00
      25     1     1     2     0     0  5.282624820E+01  1.021419888E+02 -1.186056067E+02  2.071615030E+02  1.250000000E+02  0.00000E+00  9.000E+00
      25     1     1     2     0     0 -1.012696570E+02 -1.005492708E+02  2.975333934E+02  3.528694085E+02  1.250000000E+02  0.00000E+00  9.000E+00
      21     1     1     2   512   502  4.844340878E+01 -1.592717967E+00  1.929980281E+01  5.217071011E+01  9.233911863E-07  0.00000E+00  9.000E+00
#rwgt            1           1   2.7456392761716322E-002           4      210325           0
</event>
<event>
      5   9999  3.19816E-02  1.55055E+02 -1.00000E+00  1.15826E-01
      21    -1     0     0   502   511  0.000000000E+00  0.000000000E+00  3.747847326E+02  3.747847326E+02  0.000000000E+00  0.00000E+00  9.000E+00
      21    -1     0     0   501   502  0.000000000E+00  0.000000000E+00 -1.264254150E+03  1.264254150E+03  0.000000000E+00  0.00000E+00  9.000E+00
      25     1     1     2     0     0 -1.403392613E+02 -3.881886142E+02 -1.495305074E+02  4.564754989E+02  1.250000000E+02  0.00000E+00  9.000E+00
      25     1     1     2     0     0  1.372557478E+02  5.432128889E+02 -8.254891323E+02  1.005473366E+03  1.250000000E+02  0.00000E+00  9.000E+00
      21     1     1     2   501   511  3.083513591E+00 -1.550242747E+02  8.555022203E+01  1.770900175E+02  4.573661350E-06  0.00000E+00  9.000E+00
#rwgt            1           1   2.5350406057617389E-002           4      210414           0
</event>
<event>
      5   9999  3.19816E-02  5.39122E+01 -1.00000E+00  1.37234E-01
      21    -1     0     0   502   501  0.000000000E+00  0.000000000E+00  2.227950276E+02  2.227950276E+02  0.000000000E+00  0.00000E+00  9.000E+00
      21    -1     0     0   501   512  0.000000000E+00  0.000000000E+00 -9.457126113E+02  9.457126113E+02  0.000000000E+00  0.00000E+00  9.000E+00
      25     1     1     2     0     0  2.895408955E+02 -1.768508641E+02 -2.089080612E+02  4.175856036E+02  1.250000000E+02  0.00000E+00  9.000E+00
      25     1     1     2     0     0 -2.359764136E+02  1.707378745E+02 -9.847030370E+01  3.319001209E+02  1.250000000E+02  0.00000E+00  9.000E+00
      21     1     1     2   502   512 -5.356448196E+01  6.112989612E+00 -4.155392188E+02  4.190219143E+02  5.394796609E-06  0.00000E+00  9.000E+00
#rwgt            1           1   2.6628908699718189E-002           4      210460           0
</event>
<event>
      5   9999  3.19816E-02  7.31653E+00 -1.00000E+00  2.12874E-01
      21    -1     0     0   511   501  0.000000000E+00  0.000000000E+00  6.188004855E+02  6.188004855E+02  0.000000000E+00  0.00000E+00  9.000E+00
      21    -1     0     0   501   502  0.000000000E+00  0.000000000E+00 -3.160160739E+02  3.160160739E+02  0.000000000E+00  0.00000E+00  9.000E+00
      25     1     1     2     0     0 -6.929773446E+01 -1.905743118E+02  5.110575800E+02  5.638489110E+02  1.250000000E+02  0.00000E+00  9.000E+00
      25     1     1     2     0     0  6.430754858E+01  1.852236395E+02 -2.424997197E+02  3.359678132E+02  1.250000000E+02  0.00000E+00  9.000E+00
      21     1     1     2   511   502  4.990185879E+00  5.350672312E+00  3.422655135E+01  3.499983523E+01  0.000000000E+00  0.00000E+00  9.000E+00
#rwgt            1           1   2.8977656583924861E-002           4      210585           0
</event>
<event>
      5   9999  3.19816E-02  1.23145E+02 -1.00000E+00  1.19893E-01
       2    -1     0     0   502     0  0.000000000E+00  0.000000000E+00  9.280533019E+02  9.280533019E+02  0.000000000E+00  0.00000E+00  9.000E+00
      21    -1     0     0   501   502  0.000000000E+00  0.000000000E+00 -4.035843531E+02  4.035843531E+02  0.000000000E+00  0.00000E+00  9.000E+00
      25     1     1     2     0     0 -3.762426876E+02 -2.441725494E+02  7.791816236E+01  4.720964243E+02  1.250000000E+02  0.00000E+00  9.000E+00
      25     1     1     2     0     0  4.586095325E+02  3.357171198E+02  2.632432842E+02  6.387101960E+02  1.250000000E+02  0.00000E+00  9.000E+00
       2     1     1     2   501     0 -8.236684487E+01 -9.154457043E+01  1.833075022E+02  2.208310346E+02  0.000000000E+00  0.00000E+00  9.000E+00
#rwgt            1           1   2.9531067518908698E-002           4      210923           0
</event>
<event>
      5   9999  3.19816E-02  3.03457E+01 -1.00000E+00  1.52695E-01
      21    -1     0     0   502   501  0.000000000E+00  0.000000000E+00  7.273289654E+02  7.273289654E+02  0.000000000E+00  0.00000E+00  9.000E+00
      21    -1     0     0   501   511  0.000000000E+00  0.000000000E+00 -4.785334083E+02  4.785334083E+02  0.000000000E+00  0.00000E+00  9.000E+00
      25     1     1     2     0     0  1.239903913E+02  1.387239147E+02  6.663775771E+02  7.030661540E+02  1.250000000E+02  0.00000E+00  9.000E+00
      25     1     1     2     0     0 -1.369488774E+02 -1.661636152E+02 -3.600466094E+02  4.377486756E+02  1.250000000E+02  0.00000E+00  9.000E+00
      21     1     1     2   502   511  1.295848607E+01  2.743970054E+01 -5.753541053E+01  6.504754408E+01  1.168007728E-06  0.00000E+00  9.000E+00
#rwgt            1           1   2.9672324750697705E-002           4      211014           0
</event>
<event>
      5   9999  3.19816E-02  7.63993E+01 -1.00000E+00  1.29325E-01
      21    -1     0     0   502   512  0.000000000E+00  0.000000000E+00  1.550193137E+02  1.550193137E+02  0.000000000E+00  0.00000E+00  9.000E+00
      21    -1     0     0   501   502  0.000000000E+00  0.000000000E+00 -1.229119587E+03  1.229119587E+03  0.000000000E+00  0.00000E+00  9.000E+00
      25     1     1     2     0     0  2.509916849E+02 -5.484595048E+01 -1.263304668E+02  3.123928472E+02  1.250000000E+02  0.00000E+00  9.000E+00
      25     1     1     2     0     0 -1.874042515E+02  9.719551900E+01 -9.630706527E+02  9.938296657E+02  1.250000000E+02  0.00000E+00  9.000E+00
      21     1     1     2   501   512 -6.358743335E+01 -4.234956852E+01  1.530084587E+01  7.791638799E+01  1.261592536E-06  0.00000E+00  9.000E+00
#rwgt            2          11   3.0235884320755370E-003           4      211259           0
</event>
<event>
      5   9999  3.19816E-02  4.78597E+01 -1.00000E+00  1.40168E-01
      21    -1     0     0   502   501  0.000000000E+00  0.000000000E+00  5.358356563E+02  5.358356563E+02  0.000000000E+00  0.00000E+00  9.000E+00
      21    -1     0     0   501   511  0.000000000E+00  0.000000000E+00 -1.996254676E+02  1.996254676E+02  0.000000000E+00  0.00000E+00  9.000E+00
      25     1     1     2     0     0 -7.339442744E+01 -2.354305046E+02  1.159021553E+02  2.997875483E+02  1.250000000E+02  0.00000E+00  9.000E+00
      25     1     1     2     0     0  8.948787358E+01  2.805032279E+02  2.192614878E+02  3.878024502E+02  1.250000000E+02  0.00000E+00  9.000E+00
      21     1     1     2   502   511 -1.609344614E+01 -4.507272324E+01  1.046545667E+00  4.787112540E+01  2.690474702E-07  0.00000E+00  9.000E+00
#rwgt            1           1   2.7885344047997321E-002           4      211324           0
</event>
<event>
      5   9999  3.19816E-02  1.09870E+01 -1.00000E+00  1.91147E-01
      21    -1     0     0   502   512  0.000000000E+00  0.000000000E+00  2.085430432E+02  2.085430432E+02  0.000000000E+00  0.00000E+00  9.000E+00
      21    -1     0     0   501   502  0.000000000E+00  0.000000000E+00 -5.646745166E+02  5.646745166E+02  0.000000000E+00  0.00000E+00  9.000E+00
      25     1     1     2     0     0 -9.750534072E+01  6.626017341E+01 -4.994597101E+02  5.281881332E+02  1.250000000E+02  0.00000E+00  9.000E+00
      25     1     1     2     0     0  1.006060651E+02 -7.680060366E+01  1.081740871E+02  2.081983338E+02  1.250000000E+02  0.00000E+00  9.000E+00
      21     1     1     2   501   512 -3.100724337E+00  1.054043026E+01  3.515414957E+01  3.683109276E+01  4.768371582E-07  0.00000E+00  9.000E+00
#rwgt            1           1   2.9545600717729312E-002           4      211479           0
</event>
<event>
      5   9999  3.19816E-02  1.05228E+02 -1.00000E+00  1.22841E-01
      21    -1     0     0   502   501  0.000000000E+00  0.000000000E+00  5.135593182E+02  5.135593182E+02  0.000000000E+00  0.00000E+00  9.000E+00
      21    -1     0     0   511   502  0.000000000E+00  0.000000000E+00 -4.230849354E+02  4.230849354E+02  0.000000000E+00  0.00000E+00  9.000E+00
      25     1     1     2     0     0  3.324333203E+02  1.832164573E+02  1.136363959E+02  4.154737214E+02  1.250000000E+02  0.00000E+00  9.000E+00
      25     1     1     2     0     0 -2.325550153E+02 -2.163414654E+02  1.033277530E+02  3.566329897E+02  1.250000000E+02  0.00000E+00  9.000E+00
      21     1     1     2   511   501 -9.987830501E+01  3.312500808E+01 -1.264897661E+02  1.645375425E+02  0.000000000E+00  0.00000E+00  9.000E+00
#rwgt            1           1   2.9387360489206781E-002           4      211724           0
</event>
<event>
      5   9999  3.19816E-02  5.30227E+01 -1.00000E+00  1.37636E-01
      21    -1     0     0   502   501  0.000000000E+00  0.000000000E+00  8.134098782E+02  8.134098782E+02  0.000000000E+00  0.00000E+00  9.000E+00
      21    -1     0     0   512   502  0.000000000E+00  0.000000000E+00 -7.890189611E+02  7.890189611E+02  0.000000000E+00  0.00000E+00  9.000E+00
      25     1     1     2     0     0  4.692137295E+01 -2.135189437E+02  6.521306772E+02  6.990646427E+02  1.250000000E+02  0.00000E+00  9.000E+00
      25     1     1     2     0     0 -1.637047337E+01  2.568554417E+02 -1.308257079E+01  2.864242727E+02  1.250000000E+02  0.00000E+00  9.000E+00
      21     1     1     2   512   501 -3.055089959E+01 -4.333649797E+01 -6.146571892E+02  6.169399240E+02  1.321449896E-05  0.00000E+00  9.000E+00
#rwgt            2          11   5.2250950183123238E-003           4      211813           0
</event>
<event>
      5   9999  3.19816E-02  9.77478E+01 -1.00000E+00  1.24275E-01
      -2    -1     0     0     0   501  0.000000000E+00  0.000000000E+00  3.063760632E+02  3.063760632E+02  0.000000000E+00  0.00000E+00  9.000E+00
      21    -1     0     0   501   502  0.000000000E+00  0.000000000E+00 -4.342308779E+02  4.342308779E+02  0.000000000E+00  0.00000E+00  9.000E+00
      25     1     1     2     0     0  6.269852439E+00  1.435602702E+02  2.378384634E+02  3.046982063E+02  1.250000000E+02  0.00000E+00  9.000E+00
      25     1     1     2     0     0 -6.282787883E+00 -4.581242622E+01 -1.605009578E+02  2.086236067E+02  1.250000000E+02  0.00000E+00  9.000E+00
      -2     1     1     2     0   502  1.293544462E-02 -9.774784396E+01 -2.051923203E+02  2.272851281E+02  2.697398305E-06  0.00000E+00  9.000E+00
#rwgt            1           1   2.5871940222506482E-002           4      211848           0
</event>
<event>
      5   9999  3.19816E-02  5.91193E+01 -1.00000E+00  1.35047E-01
      21    -1     0     0   502   501  0.000000000E+00  0.000000000E+00  1.426085951E+02  1.426085951E+02  0.000000000E+00  0.00000E+00  9.000E+00
      21    -1     0     0   501   511  0.000000000E+00  0.000000000E+00 -1.242246689E+03  1.242246689E+03  0.000000000E+00  0.00000E+00  9.000E+00
      25     1     1     2     0     0  2.955686053E+02  1.958508406E+02 -4.325995740E+02  5.731367582E+02  1.250000000E+02  0.00000E+00  9.000E+00
      25     1     1     2     0     0 -2.859122244E+02 -2.541761424E+02 -5.630477119E+02  6.920975635E+02  1.250000000E+02  0.00000E+00  9.000E+00
      21     1     1     2   502   511 -9.656380900E+00  5.832530182E+01 -1.039908081E+02  1.196209626E+02  0.000000000E+00  0.00000E+00  9.000E+00
#rwgt            1           1   2.9443064137413787E-002           4      211923           0
</event>
<event>
      5   9999  3.19816E-02  1.18041E+02 -1.00000E+00  1.20672E-01
      21    -1     0     0   502   501  0.000000000E+00  0.000000000E+00  5.302786550E+02  5.302786550E+02  0.000000000E+00  0.00000E+00  9.000E+00
      21    -1     0     0   501   512  0.000000000E+00  0.000000000E+00 -1.040361124E+03  1.040361124E+03  0.000000000E+00  0.00000E+00  9.000E+00
      25     1     1     2     0     0  7.858574697E+01 -1.559588398E+02  4.663190520E+02  5.133978356E+02  1.250000000E+02  0.00000E+00  9.000E+00
      25     1     1     2     0     0 -1.908971359E+02  1.196296301E+02 -4.572374549E+02  5.248276432E+02  1.250000000E+02  0.00000E+00  9.000E+00
      21     1     1     2   502   512  1.123113890E+02  3.632920968E+01 -5.191640656E+02  5.324142998E+02  0.000000000E+00  0.00000E+00  9.000E+00
#rwgt            1           1   2.6247425363100128E-002           4      212034           0
</event>
<event>
      5   9999  3.19816E-02  1.67526E+01 -1.00000E+00  1.72979E-01
      21    -1     0     0   511   501  0.000000000E+00  0.000000000E+00  8.849647235E+02  8.849647235E+02  0.000000000E+00  0.00000E+00  9.000E+00
      21    -1     0     0   501   502  0.000000000E+00  0.000000000E+00 -8.337195555E+01  8.337195555E+01  0.000000000E+00  0.00000E+00  9.000E+00
      25     1     1     2     0     0  2.224020777E+02 -1.094462045E+00  5.285429727E+02  5.868956943E+02  1.250000000E+02  0.00000E+00  9.000E+00
      25     1     1     2     0     0 -2.102452145E+02 -1.043198700E+01  2.327628916E+02  3.378097693E+02  1.250000000E+02  0.00000E+00  9.000E+00
      21     1     1     2   511   502 -1.215686316E+01  1.152644905E+01  4.028690375E+01  4.363121547E+01  6.743495762E-07  0.00000E+00  9.000E+00
#rwgt            1           1   2.7822370203244694E-002           4      212163           0
</event>
<event>
      5   9999  3.19816E-02  1.23334E+01 -1.00000E+00  1.85785E-01
      21    -1     0     0   502   512  0.000000000E+00  0.000000000E+00  5.698630214E+01  5.698630214E+01  0.000000000E+00  0.00000E+00  9.000E+00
      21    -1     0     0   501   502  0.000000000E+00  0.000000000E+00 -2.384185363E+03  2.384185363E+03  0.000000000E+00  0.00000E+00  9.000E+00
      25     1     1     2     0     0  2.433531978E+02  5.003386935E+01 -4.596372695E+02  5.372295472E+02  1.250000000E+02  0.00000E+00  9.000E+00
      25     1     1     2     0     0 -2.361245051E+02 -6.002678715E+01 -1.871163317E+03  1.891093640E+03  1.250000000E+02  0.00000E+00  9.000E+00
      21     1     1     2   501   512 -7.228692686E+00  9.992917799E+00  3.601525244E+00  1.284847805E+01  4.951133646E-07  0.00000E+00  9.000E+00
#rwgt            1           1   8.6971458679132987E-002           4      212353           0
</event>
<event>
      5   9999  3.19816E-02  1.18545E+02 -1.00000E+00  1.20594E-01
       1    -1     0     0   502     0  0.000000000E+00  0.000000000E+00  1.137502887E+03  1.137502887E+03  0.000000000E+00  0.00000E+00  9.000E+00
      21    -1     0     0   501   502  0.000000000E+00  0.000000000E+00 -1.013280253E+02  1.013280253E+02  0.000000000E+00  0.00000E+00  9.000E+00
      25     1     1     2     0     0  7.872410910E+01  1.491161102E+02  1.632574540E+02  2.659155805E+02  1.250000000E+02  0.00000E+00  9.000E+00
      25     1     1     2     0     0 -1.650012590E+02 -2.304132742E+02  5.957258163E+02  6.714387095E+02  1.250000000E+02  0.00000E+00  9.000E+00
       1     1     1     2   501     0  8.627714989E+01  8.129716400E+01  2.771915913E+02  3.014766222E+02  0.000000000E+00  0.00000E+00  9.000E+00
#rwgt            1           1   2.5596411100769260E-002           4      212539           0
</event>
<event>
      5   9999  3.19816E-02  9.18297E+00 -1.00000E+00  2.00136E-01
      21    -1     0     0   502   511  0.000000000E+00  0.000000000E+00  2.769066239E+01  2.769066239E+01  0.000000000E+00  0.00000E+00  9.000E+00
      21    -1     0     0   501   502  0.000000000E+00  0.000000000E+00 -1.616878625E+03  1.616878625E+03  0.000000000E+00  0.00000E+00  9.000E+00
      25     1     1     2     0     0 -1.367756464E+02  7.036748691E+00 -1.059421580E+03  1.075526001E+03  1.250000000E+02  0.00000E+00  9.000E+00
      25     1     1     2     0     0  1.333776872E+02  1.494419324E+00 -5.291539380E+02  5.598399153E+02  1.250000000E+02  0.00000E+00  9.000E+00
      21     1     1     2   501   511  3.397959235E+00 -8.531168015E+00 -6.124441980E-01  9.203371261E+00  3.368453549E-07  0.00000E+00  9.000E+00
#rwgt            1           1   3.2414562384254830E-002           4      212631           0
</event>
<event>
      5   9999  3.19816E-02  9.38826E+01 -1.00000E+00  1.25074E-01
      21    -1     0     0   502   501  0.000000000E+00  0.000000000E+00  6.816393044E+01  6.816393044E+01  0.000000000E+00  0.00000E+00  9.000E+00
       2    -1     0     0   501     0  0.000000000E+00  0.000000000E+00 -2.181807611E+03  2.181807611E+03  0.000000000E+00  0.00000E+00  9.000E+00
      25     1     1     2     0     0 -1.572353403E+02 -8.566712398E+01 -1.048874775E+03  1.071365998E+03  1.250000000E+02  0.00000E+00  9.000E+00
      25     1     1     2     0     0  2.447549501E+02  1.196414053E+02 -3.637885603E+02  4.713662780E+02  1.250000000E+02  0.00000E+00  9.000E+00
       2     1     1     2   502     0 -8.751960986E+01 -3.397428127E+01 -7.009803455E+02  7.072392655E+02  7.629394531E-06  0.00000E+00  9.000E+00
#rwgt            2          13   9.2060034449852057E-004           4      212918           0
</event>
<event>
      5   9999  3.19816E-02  4.15179E+01 -1.00000E+00  1.43844E-01
      21    -1     0     0   502   511  0.000000000E+00  0.000000000E+00  6.224476593E+02  6.224476593E+02  0.000000000E+00  0.00000E+00  9.000E+00
      21    -1     0     0   501   502  0.000000000E+00  0.000000000E+00 -5.053409436E+02  5.053409436E+02  0.000000000E+00  0.00000E+00  9.000E+00
      25     1     1     2     0     0  2.114125408E+02  3.236218583E+02 -2.341059600E+02  4.688890808E+02  1.250000000E+02  0.00000E+00  9.000E+00
      25     1     1     2     0     0 -1.949595361E+02 -2.855031802E+02  6.948816175E+01  3.741321842E+02  1.250000000E+02  0.00000E+00  9.000E+00
      21     1     1     2   501   511 -1.645300471E+01 -3.811867810E+01  2.817245139E+02  2.847673379E+02  5.394796609E-06  0.00000E+00  9.000E+00
#rwgt            1           1   2.8195309857121074E-002           4      212937           0
</event>
<event>
      5   9999  3.19816E-02  7.47248E+01 -1.00000E+00  1.29800E-01
      21    -1     0     0   512   501  0.000000000E+00  0.000000000E+00  8.956690473E+02  8.956690473E+02  0.000000000E+00  0.00000E+00  9.000E+00
      21    -1     0     0   501   502  0.000000000E+00  0.000000000E+00 -4.002114881E+02  4.002114881E+02  0.000000000E+00  0.00000E+00  9.000E+00
      25     1     1     2     0     0 -1.869940174E+02 -3.113389399E+02  5.084259409E+02  6.371974855E+02  1.250000000E+02  0.00000E+00  9.000E+00
      25     1     1     2     0     0  2.176669778E+02  3.794782553E+02 -1.692614796E+02  4.854452677E+02  1.250000000E+02  0.00000E+00  9.000E+00
      21     1     1     2   512   502 -3.067296039E+01 -6.813931534E+01  1.562930978E+02  1.732377823E+02  0.000000000E+00  0.00000E+00  9.000E+00
#rwgt            1           1   3.5630847766311528E-002           4      213048           0
</event>
<event>
      5   9999  3.31826E-02  1.52926E+02 -1.00000E+00  1.16062E-01
      21    -1     0     0   502   501  0.000000000E+00  0.000000000E+00  1.892970446E+03  1.892970446E+03  0.000000000E+00  0.00000E+00  9.000E+00
      21    -1     0     0   501   511  0.000000000E+00  0.000000000E+00 -2.436520548E+02  2.436520548E+02  0.000000000E+00  0.00000E+00  9.000E+00
      25     1     1     2     0     0  5.521081501E+02  3.570962380E+01  9.647037280E+02  1.119096452E+03  1.250000000E+02  0.00000E+00  9.000E+00
      25     1     1     2     0     0 -4.460206693E+02  7.443453874E+01  7.211244082E+02  8.603024759E+02  1.250000000E+02  0.00000E+00  9.000E+00
      21     1     1     2   502   511 -1.060874808E+02 -1.101441625E+02 -3.650974542E+01  1.572235721E+02  2.336015456E-06  0.00000E+00  9.000E+00
#rwgt            1           1   3.4305664948425595E-002           4      213158           0
</event>
<event>
      5   9999  3.19816E-02  1.64174E+02 -1.00000E+00  1.14860E-01
       1    -1     0     0   502     0  0.000000000E+00  0.000000000E+00  5.313620631E+02  5.313620631E+02  0.000000000E+00  0.00000E+00  9.000E+00
      21    -1     0     0   501   502  0.000000000E+00  0.000000000E+00 -4.268837378E+02  4.268837378E+02  0.000000000E+00  0.00000E+00  9.000E+00
      25     1     1     2     0     0 -1.478065877E+02 -1.690928025E+02 -5.639809454E+01  2.631442727E+02  1.250000000E+02  0.00000E+00  9.000E+00
      25     1     1     2     0     0  1.334012326E+02  5.551663320E+00 -2.165865474E+02  2.834809382E+02  1.250000000E+02  0.00000E+00  9.000E+00
       1     1     1     2   501     0  1.440535508E+01  1.635411391E+02  3.774629672E+02  4.116205899E+02  0.000000000E+00  0.00000E+00  9.000E+00
#rwgt            2          17   5.9087341196136130E-004           4      213402           0
</event>
<event>
      5   9999  3.19816E-02  9.08764E+01 -1.00000E+00  1.25726E-01
      21    -1     0     0   502   511  0.000000000E+00  0.000000000E+00  3.238856709E+02  3.238856709E+02  0.000000000E+00  0.00000E+00  9.000E+00
      21    -1     0     0   501   502  0.000000000E+00  0.000000000E+00 -2.267849867E+03  2.267849867E+03  0.000000000E+00  0.00000E+00  9.000E+00
      25     1     1     2     0     0  5.707498112E+02 -3.736057092E+02 -5.652824365E+02  8.947099005E+02  1.250000000E+02  0.00000E+00  9.000E+00
      25     1     1     2     0     0 -5.156359607E+02  3.013493203E+02 -1.455376065E+03  1.578111640E+03  1.250000000E+02  0.00000E+00  9.000E+00
      21     1     1     2   501   511 -5.511385053E+01  7.225638886E+01  7.669430570E+01  1.189139974E+02  1.651812370E-06  0.00000E+00  9.000E+00
#rwgt            2          11   5.6742124753584380E-003           4      213421           0
</event>
<event>
      5   9999  3.19816E-02  1.05030E+02 -1.00000E+00  1.22877E-01
      21    -1     0     0   502   501  0.000000000E+00  0.000000000E+00  4.883918741E+02  4.883918741E+02  0.000000000E+00  0.00000E+00  9.000E+00
      21    -1     0     0   501   512  0.000000000E+00  0.000000000E+00 -1.714032482E+02  1.714032482E+02  0.000000000E+00  0.00000E+00  9.000E+00
      25     1     1     2     0     0 -5.240907621E+01  1.485265402E+02  1.747075443E+02  2.663729912E+02  1.250000000E+02  0.00000E+00  9.000E+00
      25     1     1     2     0     0  8.859683036E+01 -4.992762537E+01  2.127893062E+02  2.669203157E+02  1.250000000E+02  0.00000E+00  9.000E+00
      21     1     1     2   502   512 -3.618775414E+01 -9.859891481E+01 -7.050822465E+01  1.265018154E+02  2.132480600E-06  0.00000E+00  9.000E+00
#rwgt            1           1   3.0681424255401490E-002           4      213471           0
</event>
<event>
      5   9999  3.19816E-02  8.77715E+01 -1.00000E+00  1.26430E-01
      21    -1     0     0   502   501  0.000000000E+00  0.000000000E+00  3.247047270E+02  3.247047270E+02  0.000000000E+00  0.00000E+00  9.000E+00
      21    -1     0     0   501   511  0.000000000E+00  0.000000000E+00 -5.399557866E+02  5.399557866E+02  0.000000000E+00  0.00000E+00  9.000E+00
      25     1     1     2     0     0  2.225640825E+02  1.471386507E+02  1.031375805E+02  3.121648825E+02  1.250000000E+02  0.00000E+00  9.000E+00
      25     1     1     2     0     0 -2.436827547E+02 -2.323315798E+02 -2.853812984E+02  4.587229375E+02  1.250000000E+02  0.00000E+00  9.000E+00
      21     1     1     2   502   511  2.111867221E+01  8.519292907E+01 -3.300734169E+01  9.377269370E+01  1.348699152E-06  0.00000E+00  9.000E+00
#rwgt            1           1   2.8910261246661559E-002           4      213522           0
</event>
<event>
      5   9999  3.19816E-02  4.77873E+01 -1.00000E+00  1.40206E-01
      21    -1     0     0   502   501  0.000000000E+00  0.000000000E+00  2.876689829E+02  2.876689829E+02  0.000000000E+00  0.00000E+00  9.000E+00
       2    -1     0     0   501     0  0.000000000E+00  0.000000000E+00 -5.418857807E+02  5.418857807E+02  0.000000000E+00  0.00000E+00  9.000E+00
      25     1     1     2     0     0 -3.638551904E+01  1.215486599E+02  1.921259656E+02  2.619835288E+02  1.250000000E+02  0.00000E+00  9.000E+00
      25     1     1     2     0     0 -5.049184074E+00 -9.774134447E+01 -4.726669497E+01  1.656442125E+02  1.250000000E+02  0.00000E+00  9.000E+00
       2     1     1     2   502     0  4.143470311E+01 -2.380731545E+01 -3.990760684E+02  4.019270223E+02  5.394796609E-06  0.00000E+00  9.000E+00
#rwgt            2          13   3.7524090673452112E-004           4      213617           0
</event>
<event>
      5   9999  3.19816E-02  1.24439E+01 -1.00000E+00  1.85385E-01
      21    -1     0     0   502   511  0.000000000E+00  0.000000000E+00  5.103705871E+02  5.103705871E+02  0.000000000E+00  0.00000E+00  9.000E+00
      21    -1     0     0   501   502  0.000000000E+00  0.000000000E+00 -3.361863048E+02  3.361863048E+02  0.000000000E+00  0.00000E+00  9.000E+00
      25     1     1     2     0     0 -6.558554002E+01 -6.529133050E+01  2.668018628E+02  3.088246346E+02  1.250000000E+02  0.00000E+00  9.000E+00
      25     1     1     2     0     0  7.676814419E+01  5.983240409E+01 -2.950635975E+02  3.349041521E+02  1.250000000E+02  0.00000E+00  9.000E+00
      21     1     1     2   501   511 -1.118260417E+01  5.458926414E+00  2.024460169E+02  2.028281053E+02  2.697398305E-06  0.00000E+00  9.000E+00
#rwgt            1           1   2.8489765240412732E-002           4      213636           0
</event>
<event>
      5   9999  3.19816E-02  1.12245E+02 -1.00000E+00  1.21613E-01
      21    -1     0     0   502   512  0.000000000E+00  0.000000000E+00  7.238838191E+02  7.238838191E+02  0.000000000E+00  0.00000E+00  9.000E+00
      21    -1     0     0   501   502  0.000000000E+00  0.000000000E+00 -3.847665772E+02  3.847665772E+02  0.000000000E+00  0.00000E+00  9.000E+00
      25     1     1     2     0     0 -1.565438255E+02  3.942287710E+02  2.970922354E+02  5.327392322E+02  1.250000000E+02  0.00000E+00  9.000E+00
      25     1     1     2     0     0  6.105795814E+01 -3.352247690E+02 -1.169342077E+02  3.813165731E+02  1.250000000E+02  0.00000E+00  9.000E+00
      21     1     1     2   501   512  9.548586736E+01 -5.900400202E+01  1.589592141E+02  1.945945911E+02  2.697398305E-06  0.00000E+00  9.000E+00
#rwgt            1           1   2.9625462111396789E-002           4      213841           0
</event>
<event>
      5   9999  3.19816E-02  5.78989E+01 -1.00000E+00  1.35536E-01
      21    -1     0     0   502   501  0.000000000E+00  0.000000000E+00  3.343651268E+02  3.343651268E+02  0.000000000E+00  0.00000E+00  9.000E+00
       1    -1     0     0   501     0  0.000000000E+00  0.000000000E+00 -1.726950522E+03  1.726950522E+03  0.000000000E+00  0.00000E+00  9.000E+00
      25     1     1     2     0     0  3.983687209E+02 -2.751847283E+02 -1.359855783E+02  5.182097548E+02  1.250000000E+02  0.00000E+00  9.000E+00
      25     1     1     2     0     0 -3.971170330E+02  3.330700639E+02 -3.570062824E+02  6.416510664E+02  1.250000000E+02  0.00000E+00  9.000E+00
       1     1     1     2   502     0 -1.251687905E+00 -5.788533553E+01 -8.995935344E+02  9.014548275E+02  1.078959322E-05  0.00000E+00  9.000E+00
#rwgt            1           1   3.3261484342684541E-002           4      213919           0
</event>
<event>
      5   9999  3.19816E-02  1.05790E+02 -1.00000E+00  1.22738E-01
      21    -1     0     0   502   511  0.000000000E+00  0.000000000E+00  5.347229321E+02  5.347229321E+02  0.000000000E+00  0.00000E+00  9.000E+00
      21    -1     0     0   501   502  0.000000000E+00  0.000000000E+00 -1.112015197E+03  1.112015197E+03  0.000000000E+00  0.00000E+00  9.000E+00
      25     1     1     2     0     0 -7.534223880E+01 -6.885895408E+02 -2.312166142E+02  7.408900940E+02  1.250000000E+02  0.00000E+00  9.000E+00
      25     1     1     2     0     0  6.897980028E+01  5.829915109E+02 -4.556210249E+02  7.535601057E+02  1.250000000E+02  0.00000E+00  9.000E+00
      21     1     1     2   501   511  6.362438529E+00  1.055980299E+02  1.095453740E+02  1.522879297E+02  2.697398305E-06  0.00000E+00  9.000E+00
#rwgt            1           1   2.6432927613659032E-002           4      214053           0
</event>
<event>
      5   9999  3.19816E-02  6.82333E+01 -1.00000E+00  1.31785E-01
       2    -1     0     0   502     0  0.000000000E+00  0.000000000E+00  6.127026053E+02  6.127026053E+02  0.000000000E+00  0.00000E+00  9.000E+00
      21    -1     0     0   501   502  0.000000000E+00  0.000000000E+00 -5.914173063E+02  5.914173063E+02  0.000000000E+00  0.00000E+00  9.000E+00
      25     1     1     2     0     0  3.140972131E+01 -1.579303289E+02 -2.603302724E+02  3.306439325E+02  1.250000000E+02  0.00000E+00  9.000E+00
      25     1     1     2     0     0  2.631497286E+01  1.943122138E+02 -2.477178324E+02  3.397629155E+02  1.250000000E+02  0.00000E+00  9.000E+00
       2     1     1     2   501     0 -5.772469417E+01 -3.638188491E+01  5.293334038E+02  5.337130636E+02  1.525878906E-05  0.00000E+00  9.000E+00
#rwgt            1           1   2.8124527099398496E-002           4      214125           0
</event>
<event>
      5   9999  3.19816E-02  8.80289E+01 -1.00000E+00  1.26371E-01
      21    -1     0     0   502   511  0.000000000E+00  0.000000000E+00  6.560347546E+02  6.560347546E+02  0.000000000E+00  0.00000E+00  9.000E+00
      21    -1     0     0   501   502  0.000000000E+00  0.000000000E+00 -6.055036378E+02  6.055036378E+02  0.000000000E+00  0.00000E+00  9.000E+00
      25     1     1     2     0     0  1.325304058E+02  2.467240567E+02 -1.625472169E+02  3.471075717E+02  1.250000000E+02  0.00000E+00  9.000E+00
      25     1     1     2     0     0 -5.457780865E+01 -2.058280132E+02 -3.030173183E+02  3.908815721E+02  1.250000000E+02  0.00000E+00  9.000E+00
      21     1     1     2   501   511 -7.795259713E+01 -4.089604349E+01  5.160956519E+02  5.235492486E+02  0.000000000E+00  0.00000E+00  9.000E+00
#rwgt            1           1   2.9693554765755633E-002           4      214202           0
</event>
<event>
      5   9999  3.19816E-02  5.97472E+01 -1.00000E+00  1.34801E-01
      21    -1     0     0   502   512  0.000000000E+00  0.000000000E+00  8.310143190E+02  8.310143190E+02  0.000000000E+00  0.00000E+00  9.000E+00
      21    -1     0     0   501   502  0.000000000E+00  0.000000000E+00 -2.229573835E+02  2.229573835E+02  0.000000000E+00  0.00000E+00  9.000E+00
      25     1     1     2     0     0 -2.804493892E+02 -2.120589965E+02  5.418891289E+02  6.579435431E+02  1.250000000E+02  0.00000E+00  9.000E+00
      25     1     1     2     0     0  2.314987507E+02  1.778017120E+02  1.587954457E+01  3.179343962E+02  1.250000000E+02  0.00000E+00  9.000E+00
      21     1     1     2   501   512  4.895063852E+01  3.425728444E+01  5.028826207E+01  7.809376320E+01  9.536743164E-07  0.00000E+00  9.000E+00
#rwgt            1           1   2.9295707519626138E-002           4      214280           0
</event>
<event>
      5   9999  3.19816E-02  1.32664E+02 -1.00000E+00  1.18547E-01
      21    -1     0     0   502   501  0.000000000E+00  0.000000000E+00  3.611746290E+01  3.611746290E+01  0.000000000E+00  0.00000E+00  9.000E+00
       2    -1     0     0   501     0  0.000000000E+00  0.000000000E+00 -3.853960204E+03  3.853960204E+03  0.000000000E+00  0.00000E+00  9.000E+00
      25     1     1     2     0     0  9.019537709E+01  1.956311109E+02 -1.175564435E+03  1.201658636E+03  1.250000000E+02  0.00000E+00  9.000E+00
      25     1     1     2     0     0 -1.531300443E+02 -7.884456623E+01 -5.181443140E+02  5.601462365E+02  1.250000000E+02  0.00000E+00  9.000E+00
       2     1     1     2   502     0  6.293466726E+01 -1.167865447E+02 -2.124133992E+03  2.128272794E+03  5.285799584E-05  0.00000E+00  9.000E+00
#rwgt            1           1   3.0176884005308272E-002           4      214380           0
</event>
<event>
      5   9999  3.19816E-02  2.87253E+02 -1.00000E+00  1.06208E-01
      21    -1     0     0   502   511  0.000000000E+00  0.000000000E+00  7.987292833E+02  7.987292833E+02  0.000000000E+00  0.00000E+00  9.000E+00
      21    -1     0     0   501   502  0.000000000E+00  0.000000000E+00 -2.363501277E+02  2.363501277E+02  0.000000000E+00  0.00000E+00  9.000E+00
      25     1     1     2     0     0  2.455389176E+02  9.066809394E+01  8.850810571E+01  3.032634961E+02  1.250000000E+02  0.00000E+00  9.000E+00
      25     1     1     2     0     0 -9.607555811E+00  7.319354720E+01 -3.330484523E+01  1.489423150E+02  1.250000000E+02  0.00000E+00  9.000E+00
      21     1     1     2   501   511 -2.359313618E+02 -1.638616411E+02  5.071758951E+02  5.828735999E+02  0.000000000E+00  0.00000E+00  9.000E+00
#rwgt            2          11   3.5529903837518318E-003           4      214518           0
</event>
<event>
      5   9999  3.19816E-02  2.60892E+01 -1.00000E+00  1.57376E-01
      21    -1     0     0   502   501  0.000000000E+00  0.000000000E+00  2.183246260E+02  2.183246260E+02  0.000000000E+00  0.00000E+00  9.000E+00
      21    -1     0     0   512   502  0.000000000E+00  0.000000000E+00 -3.870845658E+02  3.870845658E+02  0.000000000E+00  0.00000E+00  9.000E+00
      25     1     1     2     0     0  7.792955893E+01 -5.403124271E+01 -2.585834156E+02  3.024611945E+02  1.250000000E+02  0.00000E+00  9.000E+00
      25     1     1     2     0     0 -5.221946729E+01  5.846291288E+01  1.661969837E+02  2.222413605E+02  1.250000000E+02  0.00000E+00  9.000E+00
      21     1     1     2   512   501 -2.571009164E+01 -4.431670169E+00 -7.637350786E+01  8.070663674E+01  0.000000000E+00  0.00000E+00  9.000E+00
#rwgt            1           1   2.8871208393470581E-002           4      214538           0
</event>
<event>
      5   9999  3.19816E-02  6.30463E+01 -1.00000E+00  1.33564E-01
      21    -1     0     0   502   501  0.000000000E+00  0.000000000E+00  6.995558663E+02  6.995558663E+02  0.000000000E+00  0.00000E+00  9.000E+00
       1    -1     0     0   501     0  0.000000000E+00  0.000000000E+00 -5.174441330E+02  5.174441330E+02  0.000000000E+00  0.00000E+00  9.000E+00
      25     1     1     2     0     0 -3.628375771E+02 -7.799354669E+01  2.954120471E+02  4.905378459E+02  1.250000000E+02  0.00000E+00  9.000E+00
      25     1     1     2     0     0  3.487019391E+02  1.655237002E+01  1.900242033E+02  4.166547985E+02  1.250000000E+02  0.00000E+00  9.000E+00
       1     1     1     2   502     0  1.413563798E+01  6.144117667E+01 -3.033245172E+02  3.098073549E+02  6.607249480E-06  0.00000E+00  9.000E+00
#rwgt            1           1   2.9571685154487697E-002           4      214697           0
</event>
<event>
      5   9999  3.19816E-02  1.73067E+01 -1.00000E+00  1.71724E-01
      21    -1     0     0   502   501  0.000000000E+00  0.000000000E+00  1.568323869E+02  1.568323869E+02  0.000000000E+00  0.00000E+00  9.000E+00
       2    -1     0     0   501     0  0.000000000E+00  0.000000000E+00 -9.248555719E+02  9.248555719E+02  0.000000000E+00  0.00000E+00  9.000E+00
      25     1     1     2     0     0  2.720864855E+02  1.874675460E+02 -2.146009204E+02  4.133445190E+02  1.250000000E+02  0.00000E+00  9.000E+00
      25     1     1     2     0     0 -2.684797963E+02 -1.705408250E+02 -4.584670394E+02  5.718239242E+02  1.250000000E+02  0.00000E+00  9.000E+00
       2     1     1     2   502     0 -3.606689171E+00 -1.692672093E+01 -9.495522522E+01  9.651951557E+01  1.907348633E-06  0.00000E+00  9.000E+00
#rwgt            1           1   3.1483614830968433E-002           4      214784           0
</event>
<event>
      5   9999  3.19816E-02  1.43198E+02 -1.00000E+00  1.17198E-01
      21    -1     0     0   511   501  0.000000000E+00  0.000000000E+00  5.431630399E+02  5.431630399E+02  0.000000000E+00  0.00000E+00  9.000E+00
      21    -1     0     0   501   502  0.000000000E+00  0.000000000E+00 -6.382876653E+02  6.382876653E+02  0.000000000E+00  0.00000E+00  9.000E+00
      25     1     1     2     0     0  3.443947126E+02  3.595029633E+01  3.386632785E+02  5.002179105E+02  1.250000000E+02  0.00000E+00  9.000E+00
      25     1     1     2     0     0 -2.020488354E+02 -2.035146313E+01 -4.756196654E+02  5.320497909E+02  1.250000000E+02  0.00000E+00  9.000E+00
      21     1     1     2   511   502 -1.423458772E+02 -1.559883320E+01  4.183176141E+01  1.491830037E+02  3.303624740E-06  0.00000E+00  9.000E+00
#rwgt            1           1   2.9488436519353074E-002           4      214952           0
</event>
<event>
      5   9999  3.19816E-02  1.31682E+02 -1.00000E+00  1.18680E-01
      21    -1     0     0   502   501  0.000000000E+00  0.000000000E+00  3.464624804E+02  3.464624804E+02  0.000000000E+00  0.00000E+00  9.000E+00
      -3    -1     0     0     0   502  0.000000000E+00  0.000000000E+00 -8.826507837E+02  8.826507837E+02  0.000000000E+00  0.00000E+00  9.000E+00
      25     1     1     2     0     0  2.204150798E+02 -3.037222709E+02 -7.700666349E+01  4.029702861E+02  1.250000000E+02  0.00000E+00  9.000E+00
      25     1     1     2     0     0 -3.427430923E+02  3.524672216E+02 -2.196267855E+02  5.527810548E+02  1.250000000E+02  0.00000E+00  9.000E+00
      -3     1     1     2     0   501  1.223280125E+02 -4.874495074E+01 -2.395548543E+02  2.733619233E+02  5.394796609E-06  0.00000E+00  9.000E+00
#rwgt            1           1   3.0815248222667003E-002           4      215031           0
</event>
<event>
      5   9999  3.19816E-02  6.12064E+01 -1.00000E+00  1.34243E-01
      21    -1     0     0   502   501  0.000000000E+00  0.000000000E+00  2.053415095E+02  2.053415095E+02  0.000000000E+00  0.00000E+00  9.000E+00
      -2    -1     0     0     0   502  0.000000000E+00  0.000000000E+00 -3.287055406E+03  3.287055406E+03  0.000000000E+00  0.00000E+00  9.000E+00
      25     1     1     2     0     0  5.161035810E+02  4.309404761E+02 -7.273292563E+02  9.983513647E+02  1.250000000E+02  0.00000E+00  9.000E+00
      25     1     1     2     0     0 -5.720429567E+02 -4.061007320E+02 -1.794178987E+03  1.930506200E+03  1.250000000E+02  0.00000E+00  9.000E+00
      -2     1     1     2     0   501  5.593937567E+01 -2.483974409E+01 -5.602056523E+02  5.635393505E+02  0.000000000E+00  0.00000E+00  9.000E+00
#rwgt            1           1   2.4853963655339033E-002           4      215114           0
</event>
<event>
      5   9999  3.19816E-02  2.84831E+01 -1.00000E+00  1.54622E-01
      21    -1     0     0   502   501  0.000000000E+00  0.000000000E+00  1.887581754E+02  1.887581754E+02  0.000000000E+00  0.00000E+00  9.000E+00
      21    -1     0     0   511   502  0.000000000E+00  0.000000000E+00 -1.331606765E+02  1.331606765E+02  0.000000000E+00  0.00000E+00  9.000E+00
      25     1     1     2     0     0  5.423729705E+01 -6.983803825E-01  3.630236286E+01  1.410143031E+02  1.250000000E+02  0.00000E+00  9.000E+00
      25     1     1     2     0     0 -8.116544509E+01 -8.583878382E+00  2.626875623E+01  1.515802098E+02  1.250000000E+02  0.00000E+00  9.000E+00
      21     1     1     2   511   501  2.692814803E+01  9.282258765E+00 -6.973620155E+00  2.932433908E+01  5.654593098E-07  0.00000E+00  9.000E+00
#rwgt            1           1   2.1446990377329025E-002           4      215224           0
</event>
<event>
      5   9999  3.19816E-02  9.47882E+00 -1.00000E+00  1.98483E-01
      21    -1     0     0   512   501  0.000000000E+00  0.000000000E+00  2.881299569E+02  2.881299569E+02  0.000000000E+00  0.00000E+00  9.000E+00
      21    -1     0     0   501   502  0.000000000E+00  0.000000000E+00 -8.783600713E+02  8.783600713E+02  0.000000000E+00  0.00000E+00  9.000E+00
      25     1     1     2     0     0 -7.952530032E+00 -4.361778054E+01  2.560219132E+02  2.883365630E+02  1.250000000E+02  0.00000E+00  9.000E+00
      25     1     1     2     0     0  1.641177723E+01  4.789436092E+01 -8.548097356E+02  8.653830945E+02  1.250000000E+02  0.00000E+00  9.000E+00
      21     1     1     2   512   502 -8.459247200E+00 -4.276580382E+00  8.557707979E+00  1.277037074E+01  2.384185791E-07  0.00000E+00  9.000E+00
#rwgt            1           1   3.1317192801944900E-002           4      215310           0
</event>
<event>
      5   9999  3.19816E-02  3.75454E+02 -1.00000E+00  1.02520E-01
      21    -1     0     0   502   501  0.000000000E+00  0.000000000E+00  2.749311309E+02  2.749311309E+02  0.000000000E+00  0.00000E+00  9.000E+00
       2    -1     0     0   501     0  0.000000000E+00  0.000000000E+00 -1.869190457E+03  1.869190457E+03  0.000000000E+00  0.00000E+00  9.000E+00
      25     1     1     2     0     0 -2.451509770E+01 -5.639268646E+02 -4.809853154E+02  7.520547668E+02  1.250000000E+02  0.00000E+00  9.000E+00
      25     1     1     2     0     0 -9.554848802E+00  1.900217525E+02 -1.134732584E+01  2.279327167E+02  1.250000000E+02  0.00000E+00  9.000E+00
       2     1     1     2   502     0  3.406994650E+01  3.739051121E+02 -1.101926685E+03  1.164134104E+03  2.157918644E-05  0.00000E+00  9.000E+00
#rwgt            1           1   2.7552285902528454E-002           4      215645           0
</event>
<event>
      5   9999  3.19816E-02  1.71771E+01 -1.00000E+00  1.72012E-01
      21    -1     0     0   502   501  0.000000000E+00  0.000000000E+00  5.858049016E+02  5.858049016E+02  0.000000000E+00  0.00000E+00  9.000E+00
      21    -1     0     0   501   511  0.000000000E+00  0.000000000E+00 -7.920417761E+02  7.920417761E+02  0.000000000E+00  0.00000E+00  9.000E+00
      25     1     1     2     0     0  5.819169755E+02 -2.562785792E+02 -2.490770953E+02  6.942409351E+02  1.250000000E+02  0.00000E+00  9.000E+00
      25     1     1     2     0     0 -5.648174422E+02  2.579094729E+02  8.408236428E+01  6.389294822E+02  1.250000000E+02  0.00000E+00  9.000E+00
      21     1     1     2   502   511 -1.709953328E+01 -1.630893713E+00 -4.124214341E+01  4.467626042E+01  0.000000000E+00  0.00000E+00  9.000E+00
#rwgt            1           1   2.6720711991400067E-002           4      215729           0
</event>
<event>
      5   9999  3.19816E-02  1.17566E+02 -1.00000E+00  1.20747E-01
       2    -1     0     0   502     0  0.000000000E+00  0.000000000E+00  1.851813518E+03  1.851813518E+03  0.000000000E+00  0.00000E+00  9.000E+00
      21    -1     0     0   501   502  0.000000000E+00  0.000000000E+00 -6.298861215E+02  6.298861215E+02  0.000000000E+00  0.00000E+00  9.000E+00
      25     1     1     2     0     0  4.542414852E+02  5.363757262E+02  5.709035197E+02  9.141061620E+02  1.250000000E+02  0.00000E+00  9.000E+00
      25     1     1     2     0     0 -3.756838618E+02 -6.238420346E+02 -1.533908453E+02  7.546330231E+02  1.250000000E+02  0.00000E+00  9.000E+00
       2     1     1     2   501     0 -7.855762343E+01  8.746630838E+01  8.044147218E+02  8.129604541E+02  1.078959322E-05  0.00000E+00  9.000E+00
#rwgt            1           1   3.2403841845582738E-002           4      215978           0
</event>
<event>
      5   9999  3.19816E-02  4.77739E+01 -1.00000E+00  1.40214E-01
      21    -1     0     0   502   501  0.000000000E+00  0.000000000E+00  6.162896550E+02  6.162896550E+02  0.000000000E+00  0.00000E+00  9.000E+00
      21    -1     0     0   501   511  0.000000000E+00  0.000000000E+00 -1.078053039E+02  1.078053039E+02  0.000000000E+00  0.00000E+00  9.000E+00
      25     1     1     2     0     0 -3.530191573E+00  2.015738694E+02  2.767679774E+02  3.645133748E+02  1.250000000E+02  0.00000E+00  9.000E+00
      25     1     1     2     0     0  3.967703899E+01 -1.703368040E+02  2.252529246E+02  3.113724044E+02  1.250000000E+02  0.00000E+00  9.000E+00
      21     1     1     2   502   511 -3.614684742E+01 -3.123706542E+01  6.463449188E+00  4.820917972E+01  3.264680848E-07  0.00000E+00  9.000E+00
#rwgt            1           1   2.9434014687673937E-002           4      216133           0
</event>
<event>
      5   9999  3.19816E-02  1.25755E+02 -1.00000E+00  1.19511E-01
      21    -1     0     0   502   501  0.000000000E+00  0.000000000E+00  2.393177351E+03  2.393177351E+03  0.000000000E+00  0.00000E+00  9.000E+00
       1    -1     0     0   501     0  0.000000000E+00  0.000000000E+00 -9.771869145E+01  9.771869145E+01  0.000000000E+00  0.00000E+00  9.000E+00
      25     1     1     2     0     0 -9.690100615E+01  2.525661236E+02  6.797496639E+02  7.422021674E+02  1.250000000E+02  0.00000E+00  9.000E+00
      25     1     1     2     0     0  1.768310457E+02 -1.554804563E+02  1.599888869E+03  1.621947220E+03  1.250000000E+02  0.00000E+00  9.000E+00
       1     1     1     2   502     0 -7.993003956E+01 -9.708566733E+01  1.582012599E+01  1.267466544E+02  2.191636123E-06  0.00000E+00  9.000E+00
#rwgt            1           1   8.1846807806957217E-002           4      216260           0
</event>
<event>
      5   9999  3.19816E-02  2.04192E+01 -1.00000E+00  1.65629E-01
      21    -1     0     0   502   511  0.000000000E+00  0.000000000E+00  1.469803544E+02  1.469803544E+02  0.000000000E+00  0.00000E+00  9.000E+00
      21    -1     0     0   501   502  0.000000000E+00  0.000000000E+00 -5.045012951E+02  5.045012951E+02  0.000000000E+00  0.00000E+00  9.000E+00
      25     1     1     2     0     0  1.229878629E+02  1.432841102E+02 -1.685244756E+02  2.822797363E+02  1.250000000E+02  0.00000E+00  9.000E+00
      25     1     1     2     0     0 -1.432208027E+02 -1.460361293E+02 -2.243830435E+02  3.283466150E+02  1.250000000E+02  0.00000E+00  9.000E+00
      21     1     1     2   501   511  2.023293970E+01  2.752019057E+00  3.538657834E+01  4.085529812E+01  8.259061849E-07  0.00000E+00  9.000E+00
#rwgt            1           1   3.0886614011283866E-002           4      216327           0
</event>
<event>
      5   9999  3.19816E-02  7.06272E+01 -1.00000E+00  1.31025E-01
      21    -1     0     0   512   501  0.000000000E+00  0.000000000E+00  1.394029087E+03  1.394029087E+03  0.000000000E+00  0.00000E+00  9.000E+00
      21    -1     0     0   501   502  0.000000000E+00  0.000000000E+00 -3.709678240E+02  3.709678240E+02  0.000000000E+00  0.00000E+00  9.000E+00
      25     1     1     2     0     0  4.001805958E+02  3.356558935E+02  9.363988119E+02  1.079480024E+03  1.250000000E+02  0.00000E+00  9.000E+00
      25     1     1     2     0     0 -3.555268199E+02 -2.809362045E+02 -1.046697430E+02  4.815653910E+02  1.250000000E+02  0.00000E+00  9.000E+00
      21     1     1     2   512   502 -4.465377588E+01 -5.471968901E+01  1.913321936E+02  2.039514952E+02  2.697398305E-06  0.00000E+00  9.000E+00
#rwgt            1           1   2.9489799126386402E-002           4      216469           0
</event>
<event>
      5   9999  3.19816E-02  2.30188E+02 -1.00000E+00  1.09470E-01
      21    -1     0     0   511   501  0.000000000E+00  0.000000000E+00  2.653940803E+03  2.653940803E+03  0.000000000E+00  0.00000E+00  9.000E+00
      21    -1     0     0   501   502  0.000000000E+00  0.000000000E+00 -4.379454986E+02  4.379454986E+02  0.000000000E+00  0.00000E+00  9.000E+00
      25     1     1     2     0     0 -5.409185159E+02  7.478513632E+02  3.449187793E+02  9.932111893E+02  1.250000000E+02  0.00000E+00  9.000E+00
      25     1     1     2     0     0  3.602008819E+02 -6.052757060E+02  1.318191879E+03  1.499786046E+03  1.250000000E+02  0.00000E+00  9.000E+00
      21     1     1     2   511   502  1.807176340E+02 -1.425756572E+02  5.528846464E+02  5.988890661E+02  0.000000000E+00  0.00000E+00  9.000E+00
#rwgt            2          11   2.9713531415872748E-003           4      216622           0
</event>
<event>
      5   9999  3.19816E-02  5.12156E+01 -1.00000E+00  1.38483E-01
      21    -1     0     0   502   501  0.000000000E+00  0.000000000E+00  2.007083130E+02  2.007083130E+02  0.000000000E+00  0.00000E+00  9.000E+00
       1    -1     0     0   501     0  0.000000000E+00  0.000000000E+00 -1.055369373E+03  1.055369373E+03  0.000000000E+00  0.00000E+00  9.000E+00
      25     1     1     2     0     0  1.073147775E+02 -1.934376399E+02 -1.978752801E+02  3.220469042E+02  1.250000000E+02  0.00000E+00  9.000E+00
      25     1     1     2     0     0 -9.775264817E+01  1.431225817E+02  5.479737744E+01  2.206069042E+02  1.250000000E+02  0.00000E+00  9.000E+00
       1     1     1     2   502     0 -9.562129378E+00  5.031505819E+01 -7.115831571E+02  7.134238774E+02  7.629394531E-06  0.00000E+00  9.000E+00
#rwgt            1           1   2.6766578746356899E-002           4      216642           0
</event>
<event>
      5   9999  3.19816E-02  6.35872E+01 -1.00000E+00  1.33369E-01
      21    -1     0     0   502   501  0.000000000E+00  0.000000000E+00  3.248083264E+02  3.248083264E+02  0.000000000E+00  0.00000E+00  9.000E+00
      -1    -1     0     0     0   502  0.000000000E+00  0.000000000E+00 -1.063395316E+03  1.063395316E+03  0.000000000E+00  0.00000E+00  9.000E+00
      25     1     1     2     0     0 -2.829679433E+02 -5.480804202E+01 -2.680316428E+02  4.129657854E+02  1.250000000E+02  0.00000E+00  9.000E+00
      25     1     1     2     0     0  2.589219001E+02  1.136732833E+02  1.554219544E+02  3.460392313E+02  1.250000000E+02  0.00000E+00  9.000E+00
      -1     1     1     2     0   501  2.404604322E+01 -5.886524127E+01 -6.259773011E+02  6.291986255E+02  1.078959322E-05  0.00000E+00  9.000E+00
#rwgt            1           1   2.8922548016443634E-002           4      216761           0
</event>
<event>
      5   9999  3.19816E-02  1.66090E+03 -1.00000E+00  8.59966E-02
       2    -1     0     0   502     0  0.000000000E+00  0.000000000E+00  2.581082052E+03  2.581082052E+03  0.000000000E+00  0.00000E+00  9.000E+00
      21    -1     0     0   501   502  0.000000000E+00  0.000000000E+00 -1.268757476E+03  1.268757476E+03  0.000000000E+00  0.00000E+00  9.000E+00
      25     1     1     2     0     0 -1.037181057E+03 -1.066999054E+02  5.145461791E+02  1.169406767E+03  1.250000000E+02  0.00000E+00  9.000E+00
      25     1     1     2     0     0 -5.068921136E+02  7.186173615E+02  1.671359140E+02  9.038307036E+02  1.250000000E+02  0.00000E+00  9.000E+00
       2     1     1     2   501     0  1.544073171E+03 -6.119174561E+02  6.306424827E+02  1.776602058E+03  2.018548058E-05  0.00000E+00  9.000E+00
#rwgt            2          18   4.1079009263253767E-004           4      216868           0
</event>
<event>
      5   9999  3.19816E-02  1.51725E+01 -1.00000E+00  1.76917E-01
      21    -1     0     0   502   501  0.000000000E+00  0.000000000E+00  6.421188857E+02  6.421188857E+02  0.000000000E+00  0.00000E+00  9.000E+00
      21    -1     0     0   501   511  0.000000000E+00  0.000000000E+00 -7.981304471E+01  7.981304471E+01  0.000000000E+00  0.00000E+00  9.000E+00
      25     1     1     2     0     0 -9.135311810E+01  8.451023425E+01  4.134068123E+02  4.494636407E+02  1.250000000E+02  0.00000E+00  9.000E+00
      25     1     1     2     0     0  8.852567360E+01 -6.960352223E+01  1.746968206E+02  2.425395315E+02  1.250000000E+02  0.00000E+00  9.000E+00
      21     1     1     2   502   511  2.827444498E+00 -1.490671202E+01 -2.579779188E+01  2.992875826E+01  1.066240300E-06  0.00000E+00  9.000E+00
#rwgt            1           1   3.2825619707304375E-002           4      216887           0
</event>
<event>
      5   9999  3.19816E-02  9.51983E+01 -1.00000E+00  1.24797E-01
      21    -1     0     0   502   501  0.000000000E+00  0.000000000E+00  7.547123985E+02  7.547123985E+02  0.000000000E+00  0.00000E+00  9.000E+00
      21    -1     0     0   512   502  0.000000000E+00  0.000000000E+00 -1.649488839E+03  1.649488839E+03  0.000000000E+00  0.00000E+00  9.000E+00
      25     1     1     2     0     0  2.023329128E+02 -6.438354246E+02 -5.171903694E+02  8.594030136E+02  1.250000000E+02  0.00000E+00  9.000E+00
      25     1     1     2     0     0 -1.161976333E+02  6.843747172E+02  3.663467253E+02  7.947990731E+02  1.250000000E+02  0.00000E+00  9.000E+00
      21     1     1     2   512   501 -8.613527948E+01 -4.053929255E+01 -7.439327960E+02  7.499991504E+02  1.078959322E-05  0.00000E+00  9.000E+00
#rwgt            1           1   1.9252402004968319E-002           4      217012           0
</event>
<event>
      5   9999  3.19816E-02  3.78058E+01 -1.00000E+00  1.46376E-01
      21    -1     0     0   502   501  0.000000000E+00  0.000000000E+00  8.638289608E+01  8.638289608E+01  0.000000000E+00  0.00000E+00  9.000E+00
      21    -1     0     0   501   511  0.000000000E+00  0.000000000E+00 -9.042771121E+02  9.042771121E+02  0.000000000E+00  0.00000E+00  9.000E+00
      25     1     1     2     0     0 -1.495908579E+02  1.020365435E+02 -3.455978316E+02  4.096971347E+02  1.250000000E+02  0.00000E+00  9.000E+00
      25     1     1     2     0     0  1.848453766E+02 -8.838393409E+01 -2.191518666E+02  3.250108824E+02  1.250000000E+02  0.00000E+00  9.000E+00
      21     1     1     2   502   511 -3.525451862E+01 -1.365260944E+01 -2.531445178E+02  2.559519911E+02  2.697398305E-06  0.00000E+00  9.000E+00
#rwgt            1           1   3.1566738355336368E-002           4      217119           0
</event>
<event>
      5   9999  3.19816E-02  7.47807E+01 -1.00000E+00  1.29784E-01
      21    -1     0     0   512   501  0.000000000E+00  0.000000000E+00  1.500697266E+02  1.500697266E+02  0.000000000E+00  0.00000E+00  9.000E+00
      21    -1     0     0   501   502  0.000000000E+00  0.000000000E+00 -8.652533836E+02  8.652533836E+02  0.000000000E+00  0.00000E+00  9.000E+00
      25     1     1     2     0     0 -1.847099175E+02  2.467568220E+02 -5.348893689E+02  6.298716693E+02  1.250000000E+02  0.00000E+00  9.000E+00
      25     1     1     2     0     0  1.468534519E+02 -1.822662004E+02 -1.495872166E+02  3.046116208E+02  1.250000000E+02  0.00000E+00  9.000E+00
      21     1     1     2   512   502  3.785646565E+01 -6.449062163E+01 -3.070707145E+01  8.083982006E+01  1.719260824E-06  0.00000E+00  9.000E+00
#rwgt            1           1   2.9433129346581467E-002           4      217243           0
</event>
<event>
      5   9999  3.19816E-02  1.38889E+02 -1.00000E+00  1.17734E-01
      21    -1     0     0   502   501  0.000000000E+00  0.000000000E+00  2.921192608E+03  2.921192608E+03  0.000000000E+00  0.00000E+00  9.000E+00
       1    -1     0     0   501     0  0.000000000E+00  0.000000000E+00 -1.489055245E+03  1.489055245E+03  0.000000000E+00  0.00000E+00  9.000E+00
      25     1     1     2     0     0 -8.345875826E+02  1.581230015E+03  1.427219305E+03  2.291157947E+03  1.250000000E+02  0.00000E+00  9.000E+00
      25     1     1     2     0     0  6.987137054E+02 -1.552448309E+03  3.540458304E+02  1.743350236E+03  1.250000000E+02  0.00000E+00  9.000E+00
       1     1     1     2   502     0  1.358738772E+02 -2.878170594E+01 -3.491277731E+02  3.757396692E+02  3.814697266E-06  0.00000E+00  9.000E+00
#rwgt            2          12   7.9090282124633278E-004           4      217346           0
</event>
<event>
      5   9999  3.19816E-02  2.01394E+01 -1.00000E+00  1.66121E-01
       2    -1     0     0   502     0  0.000000000E+00  0.000000000E+00  1.008388626E+03  1.008388626E+03  0.000000000E+00  0.00000E+00  9.000E+00
      21    -1     0     0   501   502  0.000000000E+00  0.000000000E+00 -8.170526229E+02  8.170526229E+02  0.000000000E+00  0.00000E+00  9.000E+00
      25     1     1     2     0     0  4.327605707E+02 -1.205868039E+01  2.819887688E+01  4.514945182E+02  1.250000000E+02  0.00000E+00  9.000E+00
      25     1     1     2     0     0 -4.463976053E+02 -2.761144967E+00 -5.164900672E+02  6.940212068E+02  1.250000000E+02  0.00000E+00  9.000E+00
       2     1     1     2   501     0  1.363703463E+01  1.481982536E+01  6.796271935E+02  6.799255239E+02  1.321449896E-05  0.00000E+00  9.000E+00
#rwgt            1           1   2.9101120113849428E-002           4      217365           0
</event>
<event>
      5   9999  3.19816E-02  2.39809E+01 -1.00000E+00  1.60117E-01
      21    -1     0     0   511   501  0.000000000E+00  0.000000000E+00  9.871597127E+02  9.871597127E+02  0.000000000E+00  0.00000E+00  9.000E+00
      21    -1     0     0   501   502  0.000000000E+00  0.000000000E+00 -2.307769422E+02  2.307769422E+02  0.000000000E+00  0.00000E+00  9.000E+00
      25     1     1     2     0     0  3.024059437E+02  1.183495580E+02  6.960007782E+02  7.781375559E+02  1.250000000E+02  0.00000E+00  9.000E+00
      25     1     1     2     0     0 -3.249649780E+02 -1.264843305E+02 -4.668533919E+00  3.704690514E+02  1.250000000E+02  0.00000E+00  9.000E+00
      21     1     1     2   511   502  2.255903433E+01  8.134772479E+00  6.505052623E+01  6.933004771E+01  9.536743164E-07  0.00000E+00  9.000E+00
#rwgt            1           1   2.6479690900460266E-002           4      217538           0
</event>
<event>
      5   9999  3.19816E-02  3.18754E+01 -1.00000E+00  1.51233E-01
      21    -1     0     0   502   512  0.000000000E+00  0.000000000E+00  1.368589591E+02  1.368589591E+02  0.000000000E+00  0.00000E+00  9.000E+00
      21    -1     0     0   501   502  0.000000000E+00  0.000000000E+00 -9.191911529E+02  9.191911529E+02  0.000000000E+00  0.00000E+00  9.000E+00
      25     1     1     2     0     0 -1.431259463E+02 -1.980867655E+02 -2.572254996E+02  3.761826163E+02  1.250000000E+02  0.00000E+00  9.000E+00
      25     1     1     2     0     0  1.330656605E+02  2.283329297E+02 -5.605461731E+02  6.322020317E+02  1.250000000E+02  0.00000E+00  9.000E+00
      21     1     1     2   501   512  1.006028575E+01 -3.024616425E+01  3.543947880E+01  4.766546401E+01  8.259061849E-07  0.00000E+00  9.000E+00
#rwgt            2          11   1.7202477916845040E-003           4      217665           0
</event>
<event>
      5   9999  3.19816E-02  4.54979E+01 -1.00000E+00  1.41455E-01
      21    -1     0     0   502   511  0.000000000E+00  0.000000000E+00  2.000336161E+02  2.000336161E+02  0.000000000E+00  0.00000E+00  9.000E+00
      21    -1     0     0   501   502  0.000000000E+00  0.000000000E+00 -1.855447833E+03  1.855447833E+03  0.000000000E+00  0.00000E+00  9.000E+00
      25     1     1     2     0     0 -4.243035705E+02 -1.901847005E+02 -1.050948443E+03  1.155993673E+03  1.250000000E+02  0.00000E+00  9.000E+00
      25     1     1     2     0     0  4.623043858E+02  2.152045742E+02 -6.497012682E+02  8.353293314E+02  1.250000000E+02  0.00000E+00  9.000E+00
      21     1     1     2   501   511 -3.800081533E+01 -2.501987370E+01  4.523549499E+01  6.415844490E+01  1.784161275E-06  0.00000E+00  9.000E+00
#rwgt            1           1   2.8815409922472009E-002           4      217685           0
</event>
<event>
      5   9999  3.19816E-02  5.82247E+01 -1.00000E+00  1.35404E-01
      21    -1     0     0   502   501  0.000000000E+00  0.000000000E+00  9.486446367E+02  9.486446367E+02  0.000000000E+00  0.00000E+00  9.000E+00
      21    -1     0     0   501   512  0.000000000E+00  0.000000000E+00 -1.569795457E+02  1.569795457E+02  0.000000000E+00  0.00000E+00  9.000E+00
      25     1     1     2     0     0  1.058525490E+02 -2.315257990E+02  5.817621819E+02  6.472103167E+02  1.250000000E+02  0.00000E+00  9.000E+00
      25     1     1     2     0     0 -1.528364297E+02  2.659151605E+02  2.222939974E+02  3.988852819E+02  1.250000000E+02  0.00000E+00  9.000E+00
      21     1     1     2   502   512  4.698388073E+01 -3.438936150E+01 -1.239108829E+01  5.952858391E+01  1.118282261E-06  0.00000E+00  9.000E+00
#rwgt            1           1   2.4691006969989691E-002           4      217763           0
</event>
<event>
      5   9999  3.19816E-02  1.97455E+02 -1.00000E+00  1.11851E-01
      21    -1     0     0   511   501  0.000000000E+00  0.000000000E+00  1.110692915E+03  1.110692915E+03  0.000000000E+00  0.00000E+00  9.000E+00
      21    -1     0     0   501   502  0.000000000E+00  0.000000000E+00 -7.007913141E+02  7.007913141E+02  0.000000000E+00  0.00000E+00  9.000E+00
      25     1     1     2     0     0 -6.609440756E+01  7.440520269E+02  4.536874375E+02  8.828585280E+02  1.250000000E+02  0.00000E+00  9.000E+00
      25     1     1     2     0     0 -1.244040209E+02 -6.921035553E+02 -1.050095381E+02  7.218972882E+02  1.250000000E+02  0.00000E+00  9.000E+00
      21     1     1     2   511   502  1.904984284E+02 -5.194847166E+01  6.122370099E+01  2.067284124E+02  2.611744678E-06  0.00000E+00  9.000E+00
#rwgt            1           1   2.2019493164713824E-002           4      217810           0
</event>
<event>
      5   9999  3.19816E-02  9.03374E+01 -1.00000E+00  1.25846E-01
      21    -1     0     0   502   501  0.000000000E+00  0.000000000E+00  3.980784422E+02  3.980784422E+02  0.000000000E+00  0.00000E+00  9.000E+00
      21    -1     0     0   512   502  0.000000000E+00  0.000000000E+00 -2.682508841E+03  2.682508841E+03  0.000000000E+00  0.00000E+00  9.000E+00
      25     1     1     2     0     0 -7.521189401E+02 -4.932651742E+02 -6.099784243E+02  1.093934235E+03  1.250000000E+02  0.00000E+00  9.000E+00
      25     1     1     2     0     0  7.772936727E+02  5.800238935E+02 -1.554399618E+03  1.836408545E+03  1.250000000E+02  0.00000E+00  9.000E+00
      21     1     1     2   512   501 -2.517473260E+01 -8.675871936E+01 -1.200523567E+02  1.502445037E+02  1.348699152E-06  0.00000E+00  9.000E+00
#rwgt            1           1   2.8914098280432711E-002           4      217891           0
</event>
<event>
      5   9999  3.19816E-02  1.03713E+01 -1.00000E+00  1.93944E-01
      21    -1     0     0   502   501  0.000000000E+00  0.000000000E+00  2.454039601E+02  2.454039601E+02  0.000000000E+00  0.00000E+00  9.000E+00
      21    -1     0     0   511   502  0.000000000E+00  0.000000000E+00 -3.584184046E+02  3.584184046E+02  0.000000000E+00  0.00000E+00  9.000E+00
      25     1     1     2     0     0  2.532019454E+01 -6.922247513E+01 -1.088137572E+02  1.813788771E+02  1.250000000E+02  0.00000E+00  9.000E+00
      25     1     1     2     0     0 -1.540699817E+01  6.617412721E+01  1.847646011E+02  2.331938004E+02  1.250000000E+02  0.00000E+00  9.000E+00
      21     1     1     2   511   501 -9.913196365E+00  3.048347921E+00 -1.889652884E+02  1.892496872E+02  2.697398305E-06  0.00000E+00  9.000E+00
#rwgt            1           1   2.7926386802828468E-002           4      217980           0
</event>
<event>
      5   9999  3.19816E-02  3.10130E+01 -1.00000E+00  1.52045E-01
       1    -1     0     0   502     0  0.000000000E+00  0.000000000E+00  9.845532702E+02  9.845532702E+02  0.000000000E+00  0.00000E+00  9.000E+00
      21    -1     0     0   501   502  0.000000000E+00  0.000000000E+00 -2.198027462E+02  2.198027462E+02  0.000000000E+00  0.00000E+00  9.000E+00
      25     1     1     2     0     0 -7.601158168E+01 -2.030282080E+01  2.724290661E+02  3.098912085E+02  1.250000000E+02  0.00000E+00  9.000E+00
      25     1     1     2     0     0  4.951211059E+01  3.641446611E+01 -1.765453788E+02  2.248793748E+02  1.250000000E+02  0.00000E+00  9.000E+00
       1     1     1     2   501     0  2.649947109E+01 -1.611164532E+01  6.688668366E+02  6.695854331E+02  1.078959322E-05  0.00000E+00  9.000E+00
#rwgt            1           1   2.4892362466827363E-002           4      218159           0
</event>
<event>
      5   9999  3.19816E-02  7.53270E+01 -1.00000E+00  1.29628E-01
      21    -1     0     0   502   501  0.000000000E+00  0.000000000E+00  5.074740920E+02  5.074740920E+02  0.000000000E+00  0.00000E+00  9.000E+00
      21    -1     0     0   511   502  0.000000000E+00  0.000000000E+00 -1.876130682E+02  1.876130682E+02  0.000000000E+00  0.00000E+00  9.000E+00
      25     1     1     2     0     0 -6.998850602E+01 -9.159205184E+00 -9.971641074E+01  1.747874269E+02  1.250000000E+02  0.00000E+00  9.000E+00
      25     1     1     2     0     0  1.350862483E+02 -2.874122044E+01  4.018346660E+02  4.429113354E+02  1.250000000E+02  0.00000E+00  9.000E+00
      21     1     1     2   511   501 -6.509774224E+01  3.790042562E+01  1.774276851E+01  7.738839798E+01  8.596304120E-07  0.00000E+00  9.000E+00
#rwgt            1           1   3.4774441514064301E-002           4      218248           0
</event>
<event>
      5   9999  3.62102E-02  7.46236E+01 -1.00000E+00  1.29829E-01
      21    -1     0     0   512   501  0.000000000E+00  0.000000000E+00  2.205050396E+02  2.205050396E+02  0.000000000E+00  0.00000E+00  9.000E+00
      21    -1     0     0   501   502  0.000000000E+00  0.000000000E+00 -1.149500268E+03  1.149500268E+03  0.000000000E+00  0.00000E+00  9.000E+00
      25     1     1     2     0     0 -2.729077873E+02  2.042522030E+02 -8.392383305E+02  9.144088791E+02  1.250000000E+02  0.00000E+00  9.000E+00
      25     1     1     2     0     0  2.653457130E+02 -1.300126980E+02 -1.551432972E+02  3.563791404E+02  1.250000000E+02  0.00000E+00  9.000E+00
      21     1     1     2   512   502  7.562074392E+00 -7.423950498E+01  6.538639916E+01  9.921728813E+01  2.336015456E-06  0.00000E+00  9.000E+00
#rwgt            1           1   3.6883332903584344E-002           4      218294           0
</event>
<event>
      5   9999  3.19816E-02  5.95569E+01 -1.00000E+00  1.34876E-01
       2    -1     0     0   502     0  0.000000000E+00  0.000000000E+00  3.747261933E+02  3.747261933E+02  0.000000000E+00  0.00000E+00  9.000E+00
      21    -1     0     0   501   502  0.000000000E+00  0.000000000E+00 -4.738387371E+02  4.738387371E+02  0.000000000E+00  0.00000E+00  9.000E+00
      25     1     1     2     0     0  1.533576682E+02  1.457974780E+02  2.140305317E+02  3.258980631E+02  1.250000000E+02  0.00000E+00  9.000E+00
      25     1     1     2     0     0 -1.197946534E+02 -9.659844940E+01 -3.827546509E+02  4.310546858E+02  1.250000000E+02  0.00000E+00  9.000E+00
       2     1     1     2   501     0 -3.356301485E+01 -4.919902864E+01  6.961157529E+01  9.161218151E+01  1.348699152E-06  0.00000E+00  9.000E+00
#rwgt            1           1   2.7986754908540391E-002           4      218363           0
</event>
<event>
      5   9999  3.19816E-02  1.20070E+02 -1.00000E+00  1.20357E-01
      21    -1     0     0   511   501  0.000000000E+00  0.000000000E+00  4.966453027E+02  4.966453027E+02  0.000000000E+00  0.00000E+00  9.000E+00
      21    -1     0     0   501   502  0.000000000E+00  0.000000000E+00 -2.690981078E+03  2.690981078E+03  0.000000000E+00  0.00000E+00  9.000E+00
      25     1     1     2     0     0  1.446692920E+02 -8.632218650E+01 -2.596335569E+03  2.604796366E+03  1.250000000E+02  0.00000E+00  9.000E+00
      25     1     1     2     0     0 -2.159963643E+02 -1.026644922E+01  3.886922694E+02  4.620243604E+02  1.250000000E+02  0.00000E+00  9.000E+00
      21     1     1     2   511   502  7.132707228E+01  9.658863572E+01  1.330752432E+01  1.208056538E+02  1.460009660E-06  0.00000E+00  9.000E+00
#rwgt            2          11   8.9411331553522870E-003           4      218440           0
</event>
<event>
      5   9999  3.19816E-02  1.05319E+02 -1.00000E+00  1.22824E-01
       2    -1     0     0   502     0  0.000000000E+00  0.000000000E+00  1.848692338E+03  1.848692338E+03  0.000000000E+00  0.00000E+00  9.000E+00
      21    -1     0     0   501   502  0.000000000E+00  0.000000000E+00 -4.834187469E+01  4.834187469E+01  0.000000000E+00  0.00000E+00  9.000E+00
      25     1     1     2     0     0 -7.848166761E+01  8.592569206E+01  6.862312772E+02  7.071640281E+02  1.250000000E+02  0.00000E+00  9.000E+00
      25     1     1     2     0     0  5.429693930E+01 -1.884304526E+02  3.609726512E+02  4.293954448E+02  1.250000000E+02  0.00000E+00  9.000E+00
       2     1     1     2   501     0  2.418472831E+01  1.025047605E+02  7.531465353E+02  7.604747403E+02  1.078959322E-05  0.00000E+00  9.000E+00
#rwgt            1           1   3.4044839027672663E-002           4      218460           0
</event>
<event>
      5   9999  3.19816E-02  2.41516E+01 -1.00000E+00  1.59882E-01
      21    -1     0     0   511   501  0.000000000E+00  0.000000000E+00  3.922248700E+02  3.922248700E+02  0.000000000E+00  0.00000E+00  9.000E+00
      21    -1     0     0   501   502  0.000000000E+00  0.000000000E+00 -1.562195232E+02  1.562195232E+02  0.000000000E+00  0.00000E+00  9.000E+00
      25     1     1     2     0     0  1.058667201E+02 -8.476582372E+01  9.246432016E+01  2.063193103E+02  1.250000000E+02  0.00000E+00  9.000E+00
      25     1     1     2     0     0 -1.051079820E+02  1.089055026E+02 -2.714946561E-01  1.962986757E+02  1.250000000E+02  0.00000E+00  9.000E+00
      21     1     1     2   511   502 -7.587381324E-01 -2.413967884E+01  1.438125213E+02  1.458264072E+02  0.000000000E+00  0.00000E+00  9.000E+00
#rwgt            1           1   2.7594815344580196E-002           4      218517           0
</event>
<event>
      5   9999  3.19816E-02  6.12889E+01 -1.00000E+00  1.34212E-01
      21    -1     0     0   502   501  0.000000000E+00  0.000000000E+00  9.849141926E+02  9.849141926E+02  0.000000000E+00  0.00000E+00  9.000E+00
      21    -1     0     0   512   502  0.000000000E+00  0.000000000E+00 -1.642143659E+03  1.642143659E+03  0.000000000E+00  0.00000E+00  9.000E+00
      25     1     1     2     0     0  6.475852610E+02 -3.580086963E+02 -1.335367058E+03  1.531785584E+03  1.250000000E+02  0.00000E+00  9.000E+00
      25     1     1     2     0     0 -5.933081948E+02  3.295423505E+02  7.374482508E+02  1.009984008E+03  1.250000000E+02  0.00000E+00  9.000E+00
      21     1     1     2   512   501 -5.427706626E+01  2.846634582E+01 -5.931065882E+01  8.528825837E+01  9.536743164E-07  0.00000E+00  9.000E+00
#rwgt            2          11   2.8682834754549684E-002           4      218782           0
</event>
<event>
      5   9999  3.19816E-02  6.76103E+01 -1.00000E+00  1.31989E-01
      21    -1     0     0   502   501  0.000000000E+00  0.000000000E+00  4.844353492E+02  4.844353492E+02  0.000000000E+00  0.00000E+00  9.000E+00
      21    -1     0     0   511   502  0.000000000E+00  0.000000000E+00 -4.199040218E+02  4.199040218E+02  0.000000000E+00  0.00000E+00  9.000E+00
      25     1     1     2     0     0 -1.173215911E+02 -3.123840555E+02  2.245135882E+02  4.211644634E+02  1.250000000E+02  0.00000E+00  9.000E+00
      25     1     1     2     0     0  1.677189305E+02  2.673145926E+02 -3.519433650E+01  3.412482562E+02  1.250000000E+02  0.00000E+00  9.000E+00
      21     1     1     2   511   501 -5.039733936E+01  4.506946297E+01 -1.247879244E+02  1.419266514E+02  0.000000000E+00  0.00000E+00  9.000E+00
#rwgt            1           1   3.3586951474503461E-002           4      218802           0
</event>
<event>
      5   9999  3.19816E-02  1.07318E+02 -1.00000E+00  1.22464E-01
      21    -1     0     0   502   501  0.000000000E+00  0.000000000E+00  1.868895285E+02  1.868895285E+02  0.000000000E+00  0.00000E+00  9.000E+00
      21    -1     0     0   501   512  0.000000000E+00  0.000000000E+00 -8.408742235E+02  8.408742235E+02  0.000000000E+00  0.00000E+00  9.000E+00
      25     1     1     2     0     0 -4.947399793E+01  9.675028819E+01 -5.541052184E+01  1.746528576E+02  1.250000000E+02  0.00000E+00  9.000E+00
      25     1     1     2     0     0 -5.603638818E+01 -7.713685408E+01  7.277523057E+01  1.732380017E+02  1.250000000E+02  0.00000E+00  9.000E+00
      21     1     1     2   502   512  1.055103861E+02 -1.961343411E+01 -6.713494037E+02  6.798728927E+02  0.000000000E+00  0.00000E+00  9.000E+00
#rwgt            1           1   2.5189376523594206E-002           4      218878           0
</event>
<event>
      5   9999  3.19816E-02  2.34803E+01 -1.00000E+00  1.60818E-01
      21    -1     0     0   502   511  0.000000000E+00  0.000000000E+00  7.517289387E+02  7.517289387E+02  0.000000000E+00  0.00000E+00  9.000E+00
      21    -1     0     0   501   502  0.000000000E+00  0.000000000E+00 -4.105142267E+02  4.105142267E+02  0.000000000E+00  0.00000E+00  9.000E+00
      25     1     1     2     0     0  1.981081894E+01 -2.476730259E+02 -3.296822753E+02  4.313349034E+02  1.250000000E+02  0.00000E+00  9.000E+00
      25     1     1     2     0     0 -3.689297603E+01  2.315633205E+02  5.995132276E+02  6.557619790E+02  1.250000000E+02  0.00000E+00  9.000E+00
      21     1     1     2   501   511  1.708215709E+01  1.610970544E+01  7.138375962E+01  7.514628293E+01  9.536743164E-07  0.00000E+00  9.000E+00
#rwgt            1           1   3.0851374170684863E-002           4      218922           0
</event>
<event>
      5   9999  3.19816E-02  1.39296E+02 -1.00000E+00  1.17682E-01
      21    -1     0     0   502   501  0.000000000E+00  0.000000000E+00  1.106933902E+03  1.106933902E+03  0.000000000E+00  0.00000E+00  9.000E+00
       2    -1     0     0   501     0  0.000000000E+00  0.000000000E+00 -6.379665673E+02  6.379665673E+02  0.000000000E+00  0.00000E+00  9.000E+00
      25     1     1     2     0     0  3.014350554E+02  3.167390415E+02  4.999736924E+02  6.758590135E+02  1.250000000E+02  0.00000E+00  9.000E+00
      25     1     1     2     0     0 -2.511930324E+02 -1.868190134E+02  4.534173285E+02  5.649881035E+02  1.250000000E+02  0.00000E+00  9.000E+00
       2     1     1     2   502     0 -5.024202304E+01 -1.299200280E+02 -4.844236861E+02  5.040533525E+02  0.000000000E+00  0.00000E+00  9.000E+00
#rwgt            1           1   2.5770504568941369E-002           4      219132           0
</event>
<event>
      5   9999  3.19816E-02  3.69638E+02 -1.00000E+00  1.02728E-01
       1    -1     0     0   502     0  0.000000000E+00  0.000000000E+00  3.920400826E+02  3.920400826E+02  0.000000000E+00  0.00000E+00  9.000E+00
      21    -1     0     0   501   502  0.000000000E+00  0.000000000E+00 -1.192069339E+03  1.192069339E+03  0.000000000E+00  0.00000E+00  9.000E+00
      25     1     1     2     0     0  3.673004606E+02 -2.933443639E+02 -7.311504983E+02  8.781609166E+02  1.250000000E+02  0.00000E+00  9.000E+00
      25     1     1     2     0     0 -1.921479377E+02 -3.216141384E+01 -2.078024466E+02  3.110659790E+02  1.250000000E+02  0.00000E+00  9.000E+00
       1     1     1     2   501     0 -1.751525229E+02  3.255057777E+02  1.389236889E+02  3.948825255E+02  2.697398305E-06  0.00000E+00  9.000E+00
#rwgt            2          17   3.9492034019690477E-004           4      219277           0
</event>
<event>
      5   9999  3.19816E-02  1.18377E+02 -1.00000E+00  1.20620E-01
      21    -1     0     0   502   511  0.000000000E+00  0.000000000E+00  5.580075728E+02  5.580075728E+02  0.000000000E+00  0.00000E+00  9.000E+00
      21    -1     0     0   501   502  0.000000000E+00  0.000000000E+00 -2.477963871E+02  2.477963871E+02  0.000000000E+00  0.00000E+00  9.000E+00
      25     1     1     2     0     0  2.985207496E+01  1.833591352E+02  3.287268250E+01  2.263124656E+02  1.250000000E+02  0.00000E+00  9.000E+00
      25     1     1     2     0     0 -6.374990427E+01 -2.967788873E+02  6.246615117E+01  3.341687871E+02  1.250000000E+02  0.00000E+00  9.000E+00
      21     1     1     2   501   511  3.389782931E+01  1.134197521E+02  2.148723520E+02  2.453227072E+02  2.697398305E-06  0.00000E+00  9.000E+00
#rwgt            1           1   2.4989961859225505E-002           4      219311           0
</event>
<event>
      5   9999  3.19816E-02  9.21218E+01 -1.00000E+00  1.25452E-01
      21    -1     0     0   502   501  0.000000000E+00  0.000000000E+00  8.462700994E+01  8.462700994E+01  0.000000000E+00  0.00000E+00  9.000E+00
      21    -1     0     0   512   502  0.000000000E+00  0.000000000E+00 -1.407273051E+03  1.407273051E+03  0.000000000E+00  0.00000E+00  9.000E+00
      25     1     1     2     0     0  9.687369707E+01 -1.851425228E+02 -7.014754293E+02  7.425328578E+02  1.250000000E+02  0.00000E+00  9.000E+00
      25     1     1     2     0     0 -7.216162550E+01  2.738878506E+02 -3.735537834E+02  4.851693353E+02  1.250000000E+02  0.00000E+00  9.000E+00
      21     1     1     2   512   501 -2.471207157E+01 -8.874532779E+01 -2.476168284E+02  2.641978679E+02  4.672030912E-06  0.00000E+00  9.000E+00
#rwgt            1           1   1.2309595681207389E-002           4      219365           0
</event>
<event>
      5   9999  3.19816E-02  3.92687E+01 -1.00000E+00  1.45339E-01
      21    -1     0     0   502   501  0.000000000E+00  0.000000000E+00  1.161279672E+02  1.161279672E+02  0.000000000E+00  0.00000E+00  9.000E+00
       2    -1     0     0   501     0  0.000000000E+00  0.000000000E+00 -7.137839102E+02  7.137839102E+02  0.000000000E+00  0.00000E+00  9.000E+00
      25     1     1     2     0     0 -2.021926562E+01 -2.917768077E+01 -1.653737168E+02  2.103179069E+02  1.250000000E+02  0.00000E+00  9.000E+00
      25     1     1     2     0     0  5.526260371E+01  4.689753533E+01  3.661092489E+01  1.490593640E+02  1.250000000E+02  0.00000E+00  9.000E+00
       2     1     1     2   502     0 -3.504333809E+01 -1.771985456E+01 -4.688931511E+02  4.705346066E+02  5.394796609E-06  0.00000E+00  9.000E+00
#rwgt            1           1   2.4931726093295269E-002           4      219431           0
</event>
<event>
      5   9999  3.19816E-02  4.68913E+01 -1.00000E+00  1.40685E-01
      21    -1     0     0   511   501  0.000000000E+00  0.000000000E+00  7.444082117E+02  7.444082117E+02  0.000000000E+00  0.00000E+00  9.000E+00
      21    -1     0     0   501   502  0.000000000E+00  0.000000000E+00 -9.830006642E+02  9.830006642E+02  0.000000000E+00  0.00000E+00  9.000E+00
      25     1     1     2     0     0  2.988490133E+02 -4.510910085E+02 -9.264599623E+01  5.630294053E+02  1.250000000E+02  0.00000E+00  9.000E+00
      25     1     1     2     0     0 -3.309971119E+02  4.169546342E+02 -5.394206729E+02  7.681210304E+02  1.250000000E+02  0.00000E+00  9.000E+00
      21     1     1     2   511   502  3.214809867E+01  3.413637426E+01  3.934742166E+02  3.962584402E+02  0.000000000E+00  0.00000E+00  9.000E+00
#rwgt            1           1   3.0088245718418196E-002           4      219523           0
</event>
<event>
      5   9999  3.19816E-02  5.64434E+01 -1.00000E+00  1.36137E-01
      21    -1     0     0   502   501  0.000000000E+00  0.000000000E+00  2.965480842E+02  2.965480842E+02  0.000000000E+00  0.00000E+00  9.000E+00
      21    -1     0     0   501   512  0.000000000E+00  0.000000000E+00 -7.885499855E+02  7.885499855E+02  0.000000000E+00  0.00000E+00  9.000E+00
      25     1     1     2     0     0 -4.855667801E+00 -1.037132850E+02  2.558456005E+02  3.030874367E+02  1.250000000E+02  0.00000E+00  9.000E+00
      25     1     1     2     0     0 -4.915828851E+01  8.733174741E+01 -6.459766975E+02  6.655480938E+02  1.250000000E+02  0.00000E+00  9.000E+00
      21     1     1     2   502   512  5.401395631E+01  1.638153762E+01 -1.018708044E+02  1.164625392E+02  0.000000000E+00  0.00000E+00  9.000E+00
#rwgt            1           1   2.8938876850010016E-002           4      219650           0
</event>
<event>
      5   9999  3.19816E-02  4.99089E+02 -1.00000E+00  9.88745E-02
       2    -1     0     0   502     0  0.000000000E+00  0.000000000E+00  8.555090909E+02  8.555090909E+02  0.000000000E+00  0.00000E+00  9.000E+00
      21    -1     0     0   501   502  0.000000000E+00  0.000000000E+00 -5.885791076E+02  5.885791076E+02  0.000000000E+00  0.00000E+00  9.000E+00
      25     1     1     2     0     0 -5.672315827E+02 -1.469733228E+02  1.080874606E+02  6.088191235E+02  1.250000000E+02  0.00000E+00  9.000E+00
      25     1     1     2     0     0  2.108397025E+02 -2.024186635E+02  9.704031151E+01  3.323680453E+02  1.250000000E+02  0.00000E+00  9.000E+00
       2     1     1     2   501     0  3.563918802E+02  3.493919862E+02  6.180221109E+01  5.029010297E+02  3.090257978E-06  0.00000E+00  9.000E+00
#rwgt            2          18   3.5196540862921736E-004           4      219767           0
</event>
<event>
      5   9999  3.19816E-02  1.50387E+02 -1.00000E+00  1.16349E-01
      21    -1     0     0   511   501  0.000000000E+00  0.000000000E+00  2.674598516E+02  2.674598516E+02  0.000000000E+00  0.00000E+00  9.000E+00
      21    -1     0     0   501   502  0.000000000E+00  0.000000000E+00 -1.287293886E+03  1.287293886E+03  0.000000000E+00  0.00000E+00  9.000E+00
      25     1     1     2     0     0  2.954181838E+02  7.942979532E+01 -6.518294792E+02  7.308130169E+02  1.250000000E+02  0.00000E+00  9.000E+00
      25     1     1     2     0     0 -4.303040164E+02 -1.459283663E+02 -4.508992662E+02  6.522206550E+02  1.250000000E+02  0.00000E+00  9.000E+00
      21     1     1     2   511   502  1.348858326E+02  6.649857095E+01  8.289471118E+01  1.717200655E+02  4.768371582E-06  0.00000E+00  9.000E+00
#rwgt            1           1   3.4540031961105042E-002           4      219816           0
</event>
<event>
      5   9999  3.19816E-02  4.64900E+01 -1.00000E+00  1.40903E-01
      21    -1     0     0   502   501  0.000000000E+00  0.000000000E+00  9.729415636E+01  9.729415636E+01  0.000000000E+00  0.00000E+00  9.000E+00
      21    -1     0     0   501   512  0.000000000E+00  0.000000000E+00 -5.970604622E+02  5.970604622E+02  0.000000000E+00  0.00000E+00  9.000E+00
      25     1     1     2     0     0  1.909172170E+01 -1.451971378E+01  6.598218468E+00  1.274513727E+02  1.250000000E+02  0.00000E+00  9.000E+00
      25     1     1     2     0     0  2.592435706E+01  2.613337224E+01 -1.180913946E+02  1.758567681E+02  1.250000000E+02  0.00000E+00  9.000E+00
      21     1     1     2   502   512 -4.501607877E+01 -1.161365847E+01 -3.882731298E+02  3.910464777E+02  0.000000000E+00  0.00000E+00  9.000E+00
#rwgt            1           1   1.3781823546903407E-002           4      219866           0
</event>
<event>
      5   9999  3.19816E-02  7.23445E+01 -1.00000E+00  1.30500E-01
      21    -1     0     0   502   501  0.000000000E+00  0.000000000E+00  1.464235799E+03  1.464235799E+03  0.000000000E+00  0.00000E+00  9.000E+00
      21    -1     0     0   511   502  0.000000000E+00  0.000000000E+00 -2.132073523E+02  2.132073523E+02  0.000000000E+00  0.00000E+00  9.000E+00
      25     1     1     2     0     0 -3.062873990E+01 -4.117145955E+02  1.010744685E+03  1.098943514E+03  1.250000000E+02  0.00000E+00  9.000E+00
      25     1     1     2     0     0 -3.994157092E+01  4.276381374E+02  2.366565553E+02  5.060642556E+02  1.250000000E+02  0.00000E+00  9.000E+00
      21     1     1     2   511   501  7.057031082E+01 -1.592354187E+01  3.627206459E+00  7.243538211E+01  7.644745909E-07  0.00000E+00  9.000E+00
#rwgt            1           1   3.2709955490472307E-002           4      219922           0
</event>
<event>
      5   9999  3.19816E-02  5.93119E+01 -1.00000E+00  1.34972E-01
      21    -1     0     0   502   501  0.000000000E+00  0.000000000E+00  5.179261383E+02  5.179261383E+02  0.000000000E+00  0.00000E+00  9.000E+00
      21    -1     0     0   512   502  0.000000000E+00  0.000000000E+00 -3.667426344E+02  3.667426344E+02  0.000000000E+00  0.00000E+00  9.000E+00
      25     1     1     2     0     0  8.658116712E+01  1.270639578E+02  2.139320123E+01  1.993093498E+02  1.250000000E+02  0.00000E+00  9.000E+00
      25     1     1     2     0     0 -4.601749723E+01 -8.379165429E+01  3.889085361E+02  4.195396297E+02  1.250000000E+02  0.00000E+00  9.000E+00
      21     1     1     2   512   501 -4.056366989E+01 -4.327230347E+01 -2.591182334E+02  2.658197932E+02  0.000000000E+00  0.00000E+00  9.000E+00
#rwgt            1           1   3.2043399675922284E-002           4      220002           0
</event>
<event>
      5   9999  3.19816E-02  3.46563E+01 -1.00000E+00  1.48811E-01
       2    -1     0     0   502     0  0.000000000E+00  0.000000000E+00  2.027336145E+03  2.027336145E+03  0.000000000E+00  0.00000E+00  9.000E+00
      21    -1     0     0   501   502  0.000000000E+00  0.000000000E+00 -3.157862706E+02  3.157862706E+02  0.000000000E+00  0.00000E+00  9.000E+00
      25     1     1     2     0     0 -2.170485993E+02  5.216878232E+01  3.082878768E+01  2.576957323E+02  1.250000000E+02  0.00000E+00  9.000E+00
      25     1     1     2     0     0  2.013693113E+02 -2.126221064E+01 -1.321695429E+02  2.722048295E+02  1.250000000E+02  0.00000E+00  9.000E+00
       2     1     1     2   501     0  1.567928799E+01 -3.090657169E+01  1.812890629E+03  1.813221853E+03  3.051757812E-05  0.00000E+00  9.000E+00
#rwgt            1           1   2.7881685193116297E-002           4      220094           0
</event>
<event>
      5   9999  3.19816E-02  2.12953E+01 -1.00000E+00  1.64151E-01
      21    -1     0     0   502   501  0.000000000E+00  0.000000000E+00  3.102356112E+02  3.102356112E+02  0.000000000E+00  0.00000E+00  9.000E+00
      21    -1     0     0   501   511  0.000000000E+00  0.000000000E+00 -7.740897021E+02  7.740897021E+02  0.000000000E+00  0.00000E+00  9.000E+00
      25     1     1     2     0     0  3.080237204E+02  3.327853311E+02 -1.068781634E+02  4.823615146E+02  1.250000000E+02  0.00000E+00  9.000E+00
      25     1     1     2     0     0 -2.867834956E+02 -3.312546801E+02 -3.120464049E+02  5.522430581E+02  1.250000000E+02  0.00000E+00  9.000E+00
      21     1     1     2   502   511 -2.124022476E+01 -1.530651013E+00 -4.492952263E+01  4.972074058E+01  0.000000000E+00  0.00000E+00  9.000E+00
#rwgt            1           1   2.6177673441424659E-002           4      220181           0
</event>
<event>
      5   9999  3.19816E-02  1.98331E+01 -1.00000E+00  1.66670E-01
      21    -1     0     0   502   512  0.000000000E+00  0.000000000E+00  3.333537164E+02  3.333537164E+02  0.000000000E+00  0.00000E+00  9.000E+00
      21    -1     0     0   501   502  0.000000000E+00  0.000000000E+00 -6.483641441E+02  6.483641441E+02  0.000000000E+00  0.00000E+00  9.000E+00
      25     1     1     2     0     0  4.102907755E+01  1.169093209E+02  2.873906783E+02  3.370008554E+02  1.250000000E+02  0.00000E+00  9.000E+00
      25     1     1     2     0     0 -2.193355691E+01 -1.115510082E+02 -6.015891182E+02  6.248673263E+02  1.250000000E+02  0.00000E+00  9.000E+00
      21     1     1     2   501   512 -1.909552064E+01 -5.358312787E+00 -8.119877615E-01  1.984967880E+01  2.301252665E-07  0.00000E+00  9.000E+00
#rwgt            1           1   2.9674406997537695E-002           4      220346           0
</event>
<event>
      5   9999  3.19816E-02  1.37438E+02 -1.00000E+00  1.17919E-01
      21    -1     0     0   511   501  0.000000000E+00  0.000000000E+00  1.084955346E+03  1.084955346E+03  0.000000000E+00  0.00000E+00  9.000E+00
      21    -1     0     0   501   502  0.000000000E+00  0.000000000E+00 -4.922476724E+02  4.922476724E+02  0.000000000E+00  0.00000E+00  9.000E+00
      25     1     1     2     0     0 -5.404457251E+01  4.396789714E+02 -2.149061353E+02  5.079843115E+02  1.250000000E+02  0.00000E+00  9.000E+00
      25     1     1     2     0     0  1.772384143E+02 -3.787493779E+02  2.675250773E+02  5.119171943E+02  1.250000000E+02  0.00000E+00  9.000E+00
      21     1     1     2   511   502 -1.231938418E+02 -6.092959353E+01  5.400887313E+02  5.573015124E+02  7.629394531E-06  0.00000E+00  9.000E+00
#rwgt            1           1   2.3392588224601735E-002           4      220522           0
</event>
<event>
      5   9999  3.19816E-02  1.85463E+01 -1.00000E+00  1.69119E-01
      21    -1     0     0   512   501  0.000000000E+00  0.000000000E+00  2.794820498E+02  2.794820498E+02  0.000000000E+00  0.00000E+00  9.000E+00
      21    -1     0     0   501   502  0.000000000E+00  0.000000000E+00 -4.892911277E+02  4.892911277E+02  0.000000000E+00  0.00000E+00  9.000E+00
      25     1     1     2     0     0 -3.382822259E+01  1.024113579E+02  2.243453293E+02  2.785466957E+02  1.250000000E+02  0.00000E+00  9.000E+00
      25     1     1     2     0     0  3.836987166E+01 -1.203929981E+02 -4.367195183E+02  4.715036147E+02  1.250000000E+02  0.00000E+00  9.000E+00
      21     1     1     2   512   502 -4.541649070E+00  1.798164020E+01  2.565111027E+00  1.872286717E+01  2.210199382E-07  0.00000E+00  9.000E+00
#rwgt            1           1   2.8909945556426668E-002           4      220592           0
</event>
<event>
      5   9999  3.19816E-02  1.39275E+02 -1.00000E+00  1.17685E-01
       2    -1     0     0   502     0  0.000000000E+00  0.000000000E+00  1.233937943E+03  1.233937943E+03  0.000000000E+00  0.00000E+00  9.000E+00
      21    -1     0     0   501   502  0.000000000E+00  0.000000000E+00 -1.173483602E+03  1.173483602E+03  0.000000000E+00  0.00000E+00  9.000E+00
      25     1     1     2     0     0 -6.668526880E+02 -3.791578452E+02 -5.273705005E+02  9.392538655E+02  1.250000000E+02  0.00000E+00  9.000E+00
      25     1     1     2     0     0  5.911788561E+02  4.960805985E+02 -8.008392708E+01  7.858923816E+02  1.250000000E+02  0.00000E+00  9.000E+00
       2     1     1     2   501     0  7.567383187E+01 -1.169227532E+02  6.679087690E+02  6.822752984E+02  1.078959322E-05  0.00000E+00  9.000E+00
#rwgt            1           1   2.6332685135957282E-002           4      220748           0
</event>
<event>
      5   9999  3.19816E-02  1.07449E+02 -1.00000E+00  1.22441E-01
       2    -1     0     0   502     0  0.000000000E+00  0.000000000E+00  8.263955331E+02  8.263955331E+02  0.000000000E+00  0.00000E+00  9.000E+00
      21    -1     0     0   501   502  0.000000000E+00  0.000000000E+00 -2.651642051E+02  2.651642051E+02  0.000000000E+00  0.00000E+00  9.000E+00
      25     1     1     2     0     0  4.266923229E+01 -4.040052625E+02  1.043886814E+02  4.376790060E+02  1.250000000E+02  0.00000E+00  9.000E+00
      25     1     1     2     0     0 -1.092761318E+02  3.196914763E+02  3.451882558E+02  4.989226844E+02  1.250000000E+02  0.00000E+00  9.000E+00
       2     1     1     2   501     0  6.660689953E+01  8.431378616E+01  1.116543908E+02  1.549580478E+02  1.348699152E-06  0.00000E+00  9.000E+00
#rwgt            1           1   1.5849212248306401E-002           4      220808           0
</event>
<event>
      5   9999  3.19816E-02  7.69196E+01 -1.00000E+00  1.29180E-01
      21    -1     0     0   502   501  0.000000000E+00  0.000000000E+00  8.524624808E+02  8.524624808E+02  0.000000000E+00  0.00000E+00  9.000E+00
      21    -1     0     0   501   511  0.000000000E+00  0.000000000E+00 -2.499493089E+03  2.499493089E+03  0.000000000E+00  0.00000E+00  9.000E+00
      25     1     1     2     0     0 -1.374911991E+03  2.516721358E+02 -6.535964165E+02  1.548074650E+03  1.250000000E+02  0.00000E+00  9.000E+00
      25     1     1     2     0     0  1.319706771E+03 -3.052352457E+02 -7.602383985E+02  1.558326647E+03  1.250000000E+02  0.00000E+00  9.000E+00
      21     1     1     2   502   511  5.520521992E+01  5.356310984E+01 -2.331957934E+02  2.455542732E+02  0.000000000E+00  0.00000E+00  9.000E+00
#rwgt            1           1   3.8916459252475138E-002           4      220896           0
</event>
<event>
      5   9999  3.19816E-02  5.48589E+02 -1.00000E+00  9.77211E-02
       2    -1     0     0   502     0  0.000000000E+00  0.000000000E+00  1.401376250E+03  1.401376250E+03  0.000000000E+00  0.00000E+00  9.000E+00
      21    -1     0     0   501   502  0.000000000E+00  0.000000000E+00 -1.396926147E+03  1.396926147E+03  0.000000000E+00  0.00000E+00  9.000E+00
      25     1     1     2     0     0 -7.356233436E+02  5.123035087E+02 -3.521290659E+02  9.711933215E+02  1.250000000E+02  0.00000E+00  9.000E+00
      25     1     1     2     0     0  1.110852126E+03 -1.121117681E+02 -7.954759029E+01  1.126283407E+03  1.250000000E+02  0.00000E+00  9.000E+00
       2     1     1     2   501     0 -3.752287820E+02 -4.001917406E+02  4.361267588E+02  7.008256687E+02  1.206313194E-05  0.00000E+00  9.000E+00
#rwgt            1           1   3.4994580307240272E-002           4      221078           0
</event>
<event>
      5   9999  3.19816E-02  7.35153E+01 -1.00000E+00  1.30152E-01
      21    -1     0     0   502   501  0.000000000E+00  0.000000000E+00  3.753255417E+02  3.753255417E+02  0.000000000E+00  0.00000E+00  9.000E+00
      21    -1     0     0   511   502  0.000000000E+00  0.000000000E+00 -6.472047138E+02  6.472047138E+02  0.000000000E+00  0.00000E+00  9.000E+00
      25     1     1     2     0     0  1.673259905E+02  3.158461271E+02  1.622926241E+02  4.119716725E+02  1.250000000E+02  0.00000E+00  9.000E+00
      25     1     1     2     0     0 -1.684040567E+02 -2.423387811E+02 -2.326011356E+02  3.960003780E+02  1.250000000E+02  0.00000E+00  9.000E+00
      21     1     1     2   511   501  1.078066181E+00 -7.350734601E+01 -2.015706606E+02  2.145582050E+02  3.814697266E-06  0.00000E+00  9.000E+00
#rwgt            1           1   2.9982615791474758E-002           4      221107           0
</event>
<event>
      5   9999  3.19816E-02  2.93336E+02 -1.00000E+00  1.05910E-01
      21    -1     0     0   502   512  0.000000000E+00  0.000000000E+00  4.872608579E+02  4.872608579E+02  0.000000000E+00  0.00000E+00  9.000E+00
      21    -1     0     0   501   502  0.000000000E+00  0.000000000E+00 -4.118246620E+02  4.118246620E+02  0.000000000E+00  0.00000E+00  9.000E+00
      25     1     1     2     0     0  4.750217591E+01  1.859200116E+01  2.077699210E+02  2.477810713E+02  1.250000000E+02  0.00000E+00  9.000E+00
      25     1     1     2     0     0 -8.876768326E+01  2.718272258E+02 -1.702968479E+02  3.555218118E+02  1.250000000E+02  0.00000E+00  9.000E+00
      21     1     1     2   501   512  4.126550735E+01 -2.904192270E+02  3.796312276E+01  2.957826367E+02  6.555427115E-06  0.00000E+00  9.000E+00
#rwgt            2          11   3.2146280783736138E-003           4      221183           0
</event>
<event>
      5   9999  3.19816E-02  2.29062E+01 -1.00000E+00  1.61650E-01
      21    -1     0     0   502   501  0.000000000E+00  0.000000000E+00  7.447637609E+02  7.447637609E+02  0.000000000E+00  0.00000E+00  9.000E+00
      21    -1     0     0   501   511  0.000000000E+00  0.000000000E+00 -9.597974652E+01  9.597974652E+01  0.000000000E+00  0.00000E+00  9.000E+00
      25     1     1     2     0     0  1.528863682E+02 -5.980061623E+01  4.091369033E+02  4.582230472E+02  1.250000000E+02  0.00000E+00  9.000E+00
      25     1     1     2     0     0 -1.756408834E+02  5.716862988E+01  2.663113528E+02  3.473682611E+02  1.250000000E+02  0.00000E+00  9.000E+00
      21     1     1     2   502   511  2.275451524E+01  2.631986347E+00 -2.666424180E+01  3.515219917E+01  0.000000000E+00  0.00000E+00  9.000E+00
#rwgt            1           1   2.5564870156340257E-002           4      221218           0
</event>
<event>
      5   9999  3.19816E-02  1.11231E+02 -1.00000E+00  1.21784E-01
      21    -1     0     0   512   501  0.000000000E+00  0.000000000E+00  5.164662445E+02  5.164662445E+02  0.000000000E+00  0.00000E+00  9.000E+00
      21    -1     0     0   501   502  0.000000000E+00  0.000000000E+00 -3.403380813E+02  3.403380813E+02  0.000000000E+00  0.00000E+00  9.000E+00
      25     1     1     2     0     0  1.329512217E+02  2.068943907E+02  4.020158179E+01  2.787875238E+02  1.250000000E+02  0.00000E+00  9.000E+00
      25     1     1     2     0     0 -1.290696304E+02 -9.573137191E+01 -1.618881776E+02  2.601081450E+02  1.250000000E+02  0.00000E+00  9.000E+00
      21     1     1     2   512   502 -3.881591239E+00 -1.111630188E+02  2.978147590E+02  3.179086569E+02  3.814697266E-06  0.00000E+00  9.000E+00
#rwgt            1           1   3.4925232770621643E-002           4      221371           0
</event>
<event>
      5   9999  3.19816E-02  6.59904E+01 -1.00000E+00  1.32531E-01
      21    -1     0     0   502   501  0.000000000E+00  0.000000000E+00  2.366296268E+02  2.366296268E+02  0.000000000E+00  0.00000E+00  9.000E+00
       1    -1     0     0   501     0  0.000000000E+00  0.000000000E+00 -8.594100136E+02  8.594100136E+02  0.000000000E+00  0.00000E+00  9.000E+00
      25     1     1     2     0     0  2.684325852E-01  1.765492302E+02  1.115694614E+02  2.433977146E+02  1.250000000E+02  0.00000E+00  9.000E+00
      25     1     1     2     0     0  6.338301400E+01 -1.591359021E+02 -1.387850253E+02  2.534322889E+02  1.250000000E+02  0.00000E+00  9.000E+00
       1     1     1     2   502     0 -6.365144658E+01 -1.741332806E+01 -5.955648230E+02  5.992096369E+02  1.078959322E-05  0.00000E+00  9.000E+00
#rwgt            1           1   2.6717544189632684E-002           4      221441           0
</event>
<event>
      5   9999  3.19816E-02  7.87878E+01 -1.00000E+00  1.28671E-01
      21    -1     0     0   502   511  0.000000000E+00  0.000000000E+00  1.136270583E+03  1.136270583E+03  0.000000000E+00  0.00000E+00  9.000E+00
      21    -1     0     0   501   502  0.000000000E+00  0.000000000E+00 -1.130626116E+03  1.130626116E+03  0.000000000E+00  0.00000E+00  9.000E+00
      25     1     1     2     0     0 -2.133972448E+02 -3.630099248E+02 -8.503545745E+02  9.571010877E+02  1.250000000E+02  0.00000E+00  9.000E+00
      25     1     1     2     0     0  2.747573367E+02  4.124312063E+02  6.537689614E+01  5.152574429E+02  1.250000000E+02  0.00000E+00  9.000E+00
      21     1     1     2   501   511 -6.136009182E+01 -4.942128148E+01  7.906221454E+02  7.945381682E+02  1.078959322E-05  0.00000E+00  9.000E+00
#rwgt            1           1   3.0044379585553650E-002           4      221574           0
</event>
<event>
      5   9999  3.19816E-02  8.06022E+01 -1.00000E+00  1.28192E-01
       2    -1     0     0   502     0  0.000000000E+00  0.000000000E+00  3.723581577E+03  3.723581577E+03  0.000000000E+00  0.00000E+00  9.000E+00
      21    -1     0     0   501   502  0.000000000E+00  0.000000000E+00 -1.637477386E+02  1.637477386E+02  0.000000000E+00  0.00000E+00  9.000E+00
      25     1     1     2     0     0  2.448966296E+02 -7.842162829E+01  3.165894542E+02  4.265890217E+02  1.250000000E+02  0.00000E+00  9.000E+00
      25     1     1     2     0     0 -3.124364912E+02  1.224112126E+02  1.880094913E+02  4.044423751E+02  1.250000000E+02  0.00000E+00  9.000E+00
       2     1     1     2   501     0  6.753986152E+01 -4.398958435E+01  3.055234893E+03  3.056297919E+03  4.315837288E-05  0.00000E+00  9.000E+00
#rwgt            1           1   2.8206369551544371E-002           4      221678           0
</event>
<event>
      5   9999  3.19816E-02  1.29033E+02 -1.00000E+00  1.19045E-01
      21    -1     0     0   502   501  0.000000000E+00  0.000000000E+00  2.974479262E+02  2.974479262E+02  0.000000000E+00  0.00000E+00  9.000E+00
      21    -1     0     0   501   511  0.000000000E+00  0.000000000E+00 -1.917896766E+03  1.917896766E+03  0.000000000E+00  0.00000E+00  9.000E+00
      25     1     1     2     0     0  6.950591109E+02 -1.162800097E+02 -6.299545543E+02  9.534652320E+02  1.250000000E+02  0.00000E+00  9.000E+00
      25     1     1     2     0     0 -5.947860728E+02  1.974892412E+02 -7.233906764E+02  9.652417021E+02  1.250000000E+02  0.00000E+00  9.000E+00
      21     1     1     2   502   511 -1.002730381E+02 -8.120923147E+01 -2.671036088E+02  2.966377577E+02  5.394796609E-06  0.00000E+00  9.000E+00
#rwgt            1           1   2.6298080085918409E-002           4      221755           0
</event>
<event>
      5   9999  3.19816E-02  1.02551E+02 -1.00000E+00  1.23338E-01
      21    -1     0     0   502   501  0.000000000E+00  0.000000000E+00  1.749204783E+03  1.749204783E+03  0.000000000E+00  0.00000E+00  9.000E+00
      21    -1     0     0   501   512  0.000000000E+00  0.000000000E+00 -1.907260217E+02  1.907260217E+02  0.000000000E+00  0.00000E+00  9.000E+00
      25     1     1     2     0     0 -3.187795440E+02  1.732691249E+02  1.593730285E+02  4.155326094E+02  1.250000000E+02  0.00000E+00  9.000E+00
      25     1     1     2     0     0  2.695331766E+02 -2.632214441E+02  1.356441720E+03  1.413326856E+03  1.250000000E+02  0.00000E+00  9.000E+00
      21     1     1     2   502   512  4.924636734E+01  8.995231924E+01  4.266401288E+01  1.110713394E+02  2.477718555E-06  0.00000E+00  9.000E+00
#rwgt            1           1   3.5535357904058942E-002           4      221803           0
</event>
<event>
      5   9999  3.19816E-02  6.57376E+02 -1.00000E+00  9.55891E-02
      21    -1     0     0   502   511  0.000000000E+00  0.000000000E+00  7.134755437E+02  7.134755437E+02  0.000000000E+00  0.00000E+00  9.000E+00
      21    -1     0     0   501   502  0.000000000E+00  0.000000000E+00 -1.090176780E+03  1.090176780E+03  0.000000000E+00  0.00000E+00  9.000E+00
      25     1     1     2     0     0  2.158864874E+02 -6.954654616E+02 -2.639467651E+01  7.393245990E+02  1.250000000E+02  0.00000E+00  9.000E+00
      25     1     1     2     0     0 -1.691479861E+02  3.975331073E+01 -3.460961526E+02  4.069384643E+02  1.250000000E+02  0.00000E+00  9.000E+00
      21     1     1     2   501   511 -4.673850123E+01  6.557121509E+02 -4.210407283E+00  6.573892605E+02  1.399440394E-05  0.00000E+00  9.000E+00
#rwgt            2          11   1.7371581740048875E-003           4      221991           0
</event>
<event>
      5   9999  3.19816E-02  1.29279E+01 -1.00000E+00  1.83690E-01
      21    -1     0     0   512   501  0.000000000E+00  0.000000000E+00  3.521031047E+02  3.521031047E+02  0.000000000E+00  0.00000E+00  9.000E+00
      21    -1     0     0   501   502  0.000000000E+00  0.000000000E+00 -3.808762473E+02  3.808762473E+02  0.000000000E+00  0.00000E+00  9.000E+00
      25     1     1     2     0     0  2.697208200E+02 -1.099809767E+02  1.499730994E+02  3.506594737E+02  1.250000000E+02  0.00000E+00  9.000E+00
      25     1     1     2     0     0 -2.772449983E+02  9.946824984E+01 -1.831241469E+02  3.686708220E+02  1.250000000E+02  0.00000E+00  9.000E+00
      21     1     1     2   512   502  7.524178342E+00  1.051272689E+01  4.377904911E+00  1.364905629E+01  1.685873940E-07  0.00000E+00  9.000E+00
#rwgt            1           1   3.0841939135097061E-002           4      222101           0
</event>
<event>
      5   9999  3.19816E-02  3.91696E+01 -1.00000E+00  1.45407E-01
      21    -1     0     0   502   501  0.000000000E+00  0.000000000E+00  5.760677410E+02  5.760677410E+02  0.000000000E+00  0.00000E+00  9.000E+00
      21    -1     0     0   501   511  0.000000000E+00  0.000000000E+00 -4.067791824E+02  4.067791824E+02  0.000000000E+00  0.00000E+00  9.000E+00
      25     1     1     2     0     0  3.820999074E+02  1.363128489E+02  2.952201466E+02  5.170700794E+02  1.250000000E+02  0.00000E+00  9.000E+00
      25     1     1     2     0     0 -3.519791125E+02 -1.613527655E+02 -1.280469111E+02  4.265501401E+02  1.250000000E+02  0.00000E+00  9.000E+00
      21     1     1     2   502   511 -3.012079495E+01  2.503991661E+01  2.115323094E+00  3.922670397E+01  2.384185791E-07  0.00000E+00  9.000E+00
#rwgt            1           1   3.0179207904986589E-002           4      222295           0
</event>
<event>
      5   9999  3.19816E-02  2.99053E+01 -1.00000E+00  1.53135E-01
      21    -1     0     0   502   501  0.000000000E+00  0.000000000E+00  5.528799587E+02  5.528799587E+02  0.000000000E+00  0.00000E+00  9.000E+00
      21    -1     0     0   501   512  0.000000000E+00  0.000000000E+00 -4.230353553E+02  4.230353553E+02  0.000000000E+00  0.00000E+00  9.000E+00
      25     1     1     2     0     0  3.993408915E+02 -1.704689216E+02 -4.329735704E+01  4.539079885E+02  1.250000000E+02  0.00000E+00  9.000E+00
      25     1     1     2     0     0 -3.836121797E+02  1.959038491E+02  1.906554776E+02  4.873511400E+02  1.250000000E+02  0.00000E+00  9.000E+00
      21     1     1     2   502   512 -1.572871182E+01 -2.543492752E+01 -1.751351714E+01  3.465618554E+01  5.840038640E-07  0.00000E+00  9.000E+00
#rwgt            1           1   2.7906610321944331E-002           4      222413           0
</event>
<event>
      5   9999  3.19816E-02  3.07600E+01 -1.00000E+00  1.52289E-01
      21    -1     0     0   502   511  0.000000000E+00  0.000000000E+00  5.556926437E+02  5.556926437E+02  0.000000000E+00  0.00000E+00  9.000E+00
      21    -1     0     0   501   502  0.000000000E+00  0.000000000E+00 -1.504697482E+02  1.504697482E+02  0.000000000E+00  0.00000E+00  9.000E+00
      25     1     1     2     0     0  6.133753005E+01  3.128944622E+01 -9.863169198E+01  1.734777585E+02  1.250000000E+02  0.00000E+00  9.000E+00
      25     1     1     2     0     0 -3.953357953E+01 -9.592372230E+00  4.644582564E+02  4.827021747E+02  1.250000000E+02  0.00000E+00  9.000E+00
      21     1     1     2   501   511 -2.180395052E+01 -2.169707399E+01  3.939633103E+01  4.998245869E+01  4.768371582E-07  0.00000E+00  9.000E+00
#rwgt            1           1   2.7486370808817575E-002           4      222583           0
</event>
<event>
      5   9999  3.19816E-02  6.85381E+01 -1.00000E+00  1.31687E-01
      21    -1     0     0   502   501  0.000000000E+00  0.000000000E+00  1.219027927E+02  1.219027927E+02  0.000000000E+00  0.00000E+00  9.000E+00
       2    -1     0     0   501     0  0.000000000E+00  0.000000000E+00 -1.690504227E+03  1.690504227E+03  0.000000000E+00  0.00000E+00  9.000E+00
      25     1     1     2     0     0  3.396572791E+02  7.732082458E+01 -1.208432304E+03  1.263835120E+03  1.250000000E+02  0.00000E+00  9.000E+00
      25     1     1     2     0     0 -3.073659245E+02 -1.686640680E+01 -2.386898012E+02  4.090918093E+02  1.250000000E+02  0.00000E+00  9.000E+00
       2     1     1     2   502     0 -3.229135458E+01 -6.045441779E+01 -1.214793290E+02  1.394800903E+02  2.697398305E-06  0.00000E+00  9.000E+00
#rwgt            1           1   2.7752676489675741E-002           4      222780           0
</event>
<event>
      5   9999  3.19816E-02  4.55008E+01 -1.00000E+00  1.41453E-01
      21    -1     0     0   502   511  0.000000000E+00  0.000000000E+00  8.123106143E+01  8.123106143E+01  0.000000000E+00  0.00000E+00  9.000E+00
      21    -1     0     0   501   502  0.000000000E+00  0.000000000E+00 -5.901941772E+02  5.901941772E+02  0.000000000E+00  0.00000E+00  9.000E+00
      25     1     1     2     0     0 -1.547140343E+02  4.321860819E+01 -2.568185649E+02  3.276965910E+02  1.250000000E+02  0.00000E+00  9.000E+00
      25     1     1     2     0     0  1.191272299E+02 -1.486550457E+01 -2.410621415E+02  2.968976864E+02  1.250000000E+02  0.00000E+00  9.000E+00
      21     1     1     2   501   511  3.558680435E+01 -2.835310362E+01 -1.108240939E+01  4.683096120E+01  1.032382731E-06  0.00000E+00  9.000E+00
#rwgt            1           1   3.1839232178974337E-002           4      222875           0
</event>
<event>
      5   9999  3.19816E-02  1.88104E+01 -1.00000E+00  1.68597E-01
      21    -1     0     0   512   501  0.000000000E+00  0.000000000E+00  8.977243513E+02  8.977243513E+02  0.000000000E+00  0.00000E+00  9.000E+00
      21    -1     0     0   501   502  0.000000000E+00  0.000000000E+00 -5.220278894E+01  5.220278894E+01  0.000000000E+00  0.00000E+00  9.000E+00
      25     1     1     2     0     0 -4.523537520E+01 -7.357016784E+01  9.209533423E+01  1.776664272E+02  1.250000000E+02  0.00000E+00  9.000E+00
      25     1     1     2     0     0  2.685157413E+01  7.755361780E+01  6.940540963E+02  7.099800414E+02  1.250000000E+02  0.00000E+00  9.000E+00
      21     1     1     2   512   502  1.838380107E+01 -3.983449966E+00  5.937213190E+01  6.228067165E+01  9.536743164E-07  0.00000E+00  9.000E+00
#rwgt            1           1   2.7310642341146447E-002           4      222948           0
</event>
<event>
      5   9999  3.19816E-02  2.71385E+01 -1.00000E+00  1.56126E-01
      21    -1     0     0   511   501  0.000000000E+00  0.000000000E+00  1.291947503E+02  1.291947503E+02  0.000000000E+00  0.00000E+00  9.000E+00
      21    -1     0     0   501   502  0.000000000E+00  0.000000000E+00 -1.148455343E+03  1.148455343E+03  0.000000000E+00  0.00000E+00  9.000E+00
      25     1     1     2     0     0 -2.502403823E+02  1.726253596E+02 -7.514836655E+02  8.202270803E+02  1.250000000E+02  0.00000E+00  9.000E+00
      25     1     1     2     0     0  2.276183335E+02 -1.576340281E+02 -2.917660058E+02  4.212018455E+02  1.250000000E+02  0.00000E+00  9.000E+00
      21     1     1     2   511   502  2.262204884E+01 -1.499133147E+01  2.398907834E+01  3.622116774E+01  4.768371582E-07  0.00000E+00  9.000E+00
#rwgt            1           1   3.5564606563819906E-002           4      223016           0
</event>
<event>
      5   9999  3.19816E-02  1.92292E+01 -1.00000E+00  1.67790E-01
      21    -1     0     0   502   512  0.000000000E+00  0.000000000E+00  3.097654284E+02  3.097654284E+02  0.000000000E+00  0.00000E+00  9.000E+00
      21    -1     0     0   501   502  0.000000000E+00  0.000000000E+00 -1.184063459E+03  1.184063459E+03  0.000000000E+00  0.00000E+00  9.000E+00
      25     1     1     2     0     0 -3.549106281E+02  3.391619697E+02 -6.678916292E+01  5.109581078E+02  1.250000000E+02  0.00000E+00  9.000E+00
      25     1     1     2     0     0  3.726839734E+02 -3.465016017E+02 -8.086750332E+02  9.636062544E+02  1.250000000E+02  0.00000E+00  9.000E+00
      21     1     1     2   501   512 -1.777334533E+01  7.339632019E+00  1.166165306E+00  1.926452553E+01  3.701371654E-07  0.00000E+00  9.000E+00
#rwgt            1           1   2.7957259677610112E-002           4      223172           0
</event>
<event>
      5   9999  3.19816E-02  4.15441E+02 -1.00000E+00  1.01193E-01
      21    -1     0     0   511   501  0.000000000E+00  0.000000000E+00  2.232974676E+03  2.232974676E+03  0.000000000E+00  0.00000E+00  9.000E+00
      21    -1     0     0   501   502  0.000000000E+00  0.000000000E+00 -6.122248203E+02  6.122248203E+02  0.000000000E+00  0.00000E+00  9.000E+00
      25     1     1     2     0     0  1.027000163E+03  3.810439664E+02  7.852338863E+02  1.353566066E+03  1.250000000E+02  0.00000E+00  9.000E+00
      25     1     1     2     0     0 -6.116441806E+02 -3.894339730E+02  2.569625995E+02  7.793729534E+02  1.250000000E+02  0.00000E+00  9.000E+00
      21     1     1     2   511   502 -4.153559827E+02  8.390006535E+00  5.785533700E+02  7.122604766E+02  1.525878906E-05  0.00000E+00  9.000E+00
#rwgt            2          11   2.4523944002744847E-003           4      223430           0
</event>
<event>
      5   9999  3.19816E-02  4.28594E+01 -1.00000E+00  1.43005E-01
      21    -1     0     0   502   501  0.000000000E+00  0.000000000E+00  2.046342334E+02  2.046342334E+02  0.000000000E+00  0.00000E+00  9.000E+00
      21    -1     0     0   501   512  0.000000000E+00  0.000000000E+00 -7.218713373E+02  7.218713373E+02  0.000000000E+00  0.00000E+00  9.000E+00
      25     1     1     2     0     0  1.445486475E+02  2.992787838E+02 -1.801025398E+02  3.981507589E+02  1.250000000E+02  0.00000E+00  9.000E+00
      25     1     1     2     0     0 -1.086081892E+02 -3.226285863E+02 -2.875329963E+02  4.628014341E+02  1.250000000E+02  0.00000E+00  9.000E+00
      21     1     1     2   502   512 -3.594045830E+01  2.334980243E+01 -4.960156775E+01  6.555337779E+01  0.000000000E+00  0.00000E+00  9.000E+00
#rwgt            1           1   3.0125702767003184E-002           4      223450           0
</event>
<event>
      5   9999  3.19816E-02  5.73143E+01 -1.00000E+00  1.35775E-01
       1    -1     0     0   502     0  0.000000000E+00  0.000000000E+00  2.358113029E+03  2.358113029E+03  0.000000000E+00  0.00000E+00  9.000E+00
      21    -1     0     0   501   502  0.000000000E+00  0.000000000E+00 -2.213962894E+02  2.213962894E+02  0.000000000E+00  0.00000E+00  9.000E+00
      25     1     1     2     0     0  6.060644458E+01 -2.605678908E+02 -6.322861357E+01  3.019795099E+02  1.250000000E+02  0.00000E+00  9.000E+00
      25     1     1     2     0     0 -3.445821938E+01  2.095658835E+02  3.575832493E+02  4.342764195E+02  1.250000000E+02  0.00000E+00  9.000E+00
       1     1     1     2   501     0 -2.614822519E+01  5.100200730E+01  1.842362104E+03  1.843253389E+03  3.737624730E-05  0.00000E+00  9.000E+00
#rwgt            1           1   2.9436030115771426E-002           4      223546           0
</event>
<event>
      5   9999  3.19816E-02  3.81998E+01 -1.00000E+00  1.46091E-01
      21    -1     0     0   502   501  0.000000000E+00  0.000000000E+00  7.460599172E+02  7.460599172E+02  0.000000000E+00  0.00000E+00  9.000E+00
      21    -1     0     0   501   511  0.000000000E+00  0.000000000E+00 -1.414352034E+02  1.414352034E+02  0.000000000E+00  0.00000E+00  9.000E+00
      25     1     1     2     0     0  4.028095630E+01 -1.120774973E+02  6.309066940E+02  6.541041029E+02  1.250000000E+02  0.00000E+00  9.000E+00
      25     1     1     2     0     0 -2.270144175E+01  1.459918953E+02 -1.855742810E+01  1.944180215E+02  1.250000000E+02  0.00000E+00  9.000E+00
      21     1     1     2   502   511 -1.757951455E+01 -3.391439800E+01 -7.724552123E+00  3.897299615E+01  8.596304120E-07  0.00000E+00  9.000E+00
#rwgt            1           1   3.0671789938475587E-002           4      223672           0
</event>
<event>
      5   9999  3.19816E-02  2.80975E+02 -1.00000E+00  1.06525E-01
      21    -1     0     0   502   512  0.000000000E+00  0.000000000E+00  3.014546912E+03  3.014546912E+03  0.000000000E+00  0.00000E+00  9.000E+00
      21    -1     0     0   501   502  0.000000000E+00  0.000000000E+00 -2.467894189E+02  2.467894189E+02  0.000000000E+00  0.00000E+00  9.000E+00
      25     1     1     2     0     0 -2.032395295E+02 -5.207693809E+02  1.315000231E+03  1.434349212E+03  1.250000000E+02  0.00000E+00  9.000E+00
      25     1     1     2     0     0  4.275272306E+02  6.900091341E+02  9.987199091E+02  1.293042379E+03  1.250000000E+02  0.00000E+00  9.000E+00
      21     1     1     2   501   512 -2.242877012E+02 -1.692397532E+02  4.540373527E+02  5.339447393E+02  7.629394531E-06  0.00000E+00  9.000E+00
#rwgt            1           1   2.8802758553885265E-002           4      223761           0
</event>
<event>
      5   9999  3.19816E-02  4.62835E+01 -1.00000E+00  1.41017E-01
      21    -1     0     0   502   511  0.000000000E+00  0.000000000E+00  1.869431997E+02  1.869431997E+02  0.000000000E+00  0.00000E+00  9.000E+00
      21    -1     0     0   501   502  0.000000000E+00  0.000000000E+00 -6.750350386E+02  6.750350386E+02  0.000000000E+00  0.00000E+00  9.000E+00
      25     1     1     2     0     0 -2.881604123E+01 -2.533982169E+02 -4.604910574E+02  5.410342268E+02  1.250000000E+02  0.00000E+00  9.000E+00
      25     1     1     2     0     0 -1.536214123E+01  2.395979887E+02 -3.847100982E+01  2.734011891E+02  1.250000000E+02  0.00000E+00  9.000E+00
      21     1     1     2   501   511  4.417818246E+01  1.380022818E+01  1.087022826E+01  4.754282244E+01  5.057621821E-07  0.00000E+00  9.000E+00
#rwgt            1           1   2.2710841688489435E-002           4      223809           0
</event>
<event>
      5   9999  3.19816E-02  4.15403E+01 -1.00000E+00  1.43830E-01
      21    -1     0     0   502   512  0.000000000E+00  0.000000000E+00  4.212141375E+02  4.212141375E+02  0.000000000E+00  0.00000E+00  9.000E+00
      21    -1     0     0   501   502  0.000000000E+00  0.000000000E+00 -8.594382091E+02  8.594382091E+02  0.000000000E+00  0.00000E+00  9.000E+00
      25     1     1     2     0     0  2.068249120E+02 -1.139138723E+02  1.356892528E+01  2.675108040E+02  1.250000000E+02  0.00000E+00  9.000E+00
      25     1     1     2     0     0 -2.403546033E+02  8.939137851E+01 -7.029180558E+02  7.586039461E+02  1.250000000E+02  0.00000E+00  9.000E+00
      21     1     1     2   501   512  3.352969127E+01  2.452249375E+01  2.511250588E+02  2.545375965E+02  3.814697266E-06  0.00000E+00  9.000E+00
#rwgt            1           1   2.8966176729259448E-002           4      223902           0
</event>
<event>
      5   9999  3.19816E-02  6.34211E+01 -1.00000E+00  1.33429E-01
      21    -1     0     0   502   501  0.000000000E+00  0.000000000E+00  8.269640425E+02  8.269640425E+02  0.000000000E+00  0.00000E+00  9.000E+00
      21    -1     0     0   511   502  0.000000000E+00  0.000000000E+00 -2.490766691E+02  2.490766691E+02  0.000000000E+00  0.00000E+00  9.000E+00
      25     1     1     2     0     0  3.002463025E+02  7.778040871E+01  5.736847973E+02  6.640307830E+02  1.250000000E+02  0.00000E+00  9.000E+00
      25     1     1     2     0     0 -3.190642855E+02 -1.721537916E+01  2.805085535E+01  3.442531598E+02  1.250000000E+02  0.00000E+00  9.000E+00
      21     1     1     2   511   501  1.881798300E+01 -6.056502955E+01 -2.384827919E+01  6.775676873E+01  1.118282261E-06  0.00000E+00  9.000E+00
#rwgt            1           1   3.0073246761253017E-002           4      224088           0
</event>
<event>
      5   9999  3.19816E-02  3.21060E+01 -1.00000E+00  1.51021E-01
      21    -1     0     0   502   501  0.000000000E+00  0.000000000E+00  8.735069142E+02  8.735069142E+02  0.000000000E+00  0.00000E+00  9.000E+00
      21    -1     0     0   501   512  0.000000000E+00  0.000000000E+00 -2.396004346E+02  2.396004346E+02  0.000000000E+00  0.00000E+00  9.000E+00
      25     1     1     2     0     0  2.753805550E+01 -3.148965486E+02  5.495412586E+02  6.461724040E+02  1.250000000E+02  0.00000E+00  9.000E+00
      25     1     1     2     0     0 -4.491648432E+01  3.418926210E+02  1.481091320E+02  3.955620935E+02  1.250000000E+02  0.00000E+00  9.000E+00
      21     1     1     2   502   512  1.737842883E+01 -2.699607244E+01 -6.374391099E+01  7.137285131E+01  1.168007728E-06  0.00000E+00  9.000E+00
#rwgt            1           1   2.5757637117172869E-002           4      224185           0
</event>
<event>
      5   9999  3.19816E-02  5.12218E+01 -1.00000E+00  1.38480E-01
      21    -1     0     0   511   501  0.000000000E+00  0.000000000E+00  1.139442143E+02  1.139442143E+02  0.000000000E+00  0.00000E+00  9.000E+00
      21    -1     0     0   501   502  0.000000000E+00  0.000000000E+00 -3.142092293E+03  3.142092293E+03  0.000000000E+00  0.00000E+00  9.000E+00
      25     1     1     2     0     0  2.625760364E+02 -3.977568657E+01 -1.164992839E+03  1.201399849E+03  1.250000000E+02  0.00000E+00  9.000E+00
      25     1     1     2     0     0 -3.014384694E+02  6.408340302E+00 -1.937254144E+03  1.964557160E+03  1.250000000E+02  0.00000E+00  9.000E+00
      21     1     1     2   511   502  3.886243294E+01  3.336734626E+01  7.409890433E+01  9.007949885E+01  2.523185073E-06  0.00000E+00  9.000E+00
#rwgt            1           1   3.1055315413731740E-002           4      224357           0
</event>
<event>
      5   9999  3.19816E-02  1.75285E+01 -1.00000E+00  1.71239E-01
      21    -1     0     0   502   501  0.000000000E+00  0.000000000E+00  4.530872835E+02  4.530872835E+02  0.000000000E+00  0.00000E+00  9.000E+00
      21    -1     0     0   501   512  0.000000000E+00  0.000000000E+00 -2.199507915E+02  2.199507915E+02  0.000000000E+00  0.00000E+00  9.000E+00
      25     1     1     2     0     0 -1.645655141E+01  2.616921968E+01  4.140662803E+02  4.336260262E+02  1.250000000E+02  0.00000E+00  9.000E+00
      25     1     1     2     0     0  4.611204048E+00 -1.324886175E+01 -1.826796687E+02  2.217964312E+02  1.250000000E+02  0.00000E+00  9.000E+00
      21     1     1     2   502   512  1.184534736E+01 -1.292035793E+01  1.749880346E+00  1.761561763E+01  2.138718977E-07  0.00000E+00  9.000E+00
#rwgt            1           1   2.8802157527974052E-002           4      224427           0
</event>
<event>
      5   9999  3.19816E-02  1.66912E+02 -1.00000E+00  1.14584E-01
      21    -1     0     0   502   511  0.000000000E+00  0.000000000E+00  1.336775880E+02  1.336775880E+02  0.000000000E+00  0.00000E+00  9.000E+00
      21    -1     0     0   501   502  0.000000000E+00  0.000000000E+00 -1.595600157E+03  1.595600157E+03  0.000000000E+00  0.00000E+00  9.000E+00
      25     1     1     2     0     0 -1.934903867E+02  8.329953411E+01 -1.713736700E+02  2.989502917E+02  1.250000000E+02  0.00000E+00  9.000E+00
      25     1     1     2     0     0  6.909196508E+01 -1.945852103E+02 -1.228922158E+03  1.252402401E+03  1.250000000E+02  0.00000E+00  9.000E+00
      21     1     1     2   501   511  1.243984216E+02  1.112856762E+02 -6.162674098E+01  1.779250523E+02  1.348699152E-06  0.00000E+00  9.000E+00
#rwgt            2          11   3.7545435014052762E-003           4      224639           0
</event>
<event>
      5   9999  3.19816E-02  5.78112E+02 -1.00000E+00  9.70934E-02
      21    -1     0     0   502   501  0.000000000E+00  0.000000000E+00  2.869317711E+03  2.869317711E+03  0.000000000E+00  0.00000E+00  9.000E+00
      -1    -1     0     0     0   502  0.000000000E+00  0.000000000E+00 -5.993590514E+02  5.993590514E+02  0.000000000E+00  0.00000E+00  9.000E+00
      25     1     1     2     0     0  2.253994870E+02 -5.102742895E+02  2.140995173E+03  2.216003184E+03  1.250000000E+02  0.00000E+00  9.000E+00
      25     1     1     2     0     0  3.474489205E+02  4.324372252E+02  3.090083287E+02  6.471737427E+02  1.250000000E+02  0.00000E+00  9.000E+00
      -1     1     1     2     0   501 -5.728484074E+02  7.783706429E+01 -1.800448419E+02  6.054998362E+02  1.112165812E-05  0.00000E+00  9.000E+00
#rwgt            1           1   3.2637453388430035E-002           4      224674           0
</event>
<event>
      5   9999  3.19816E-02  8.80060E+01 -1.00000E+00  1.26376E-01
      21    -1     0     0   502   501  0.000000000E+00  0.000000000E+00  2.149858637E+02  2.149858637E+02  0.000000000E+00  0.00000E+00  9.000E+00
      21    -1     0     0   501   511  0.000000000E+00  0.000000000E+00 -4.826958632E+02  4.826958632E+02  0.000000000E+00  0.00000E+00  9.000E+00
      25     1     1     2     0     0  5.552594123E+01  2.471769297E+01  4.010223748E+01  1.446626557E+02  1.250000000E+02  0.00000E+00  9.000E+00
      25     1     1     2     0     0 -1.140832618E+02  4.097930918E+01  5.269671800E+01  1.819237162E+02  1.250000000E+02  0.00000E+00  9.000E+00
      21     1     1     2   502   511  5.855732062E+01 -6.569700215E+01 -3.605089550E+02  3.710953551E+02  6.607249480E-06  0.00000E+00  9.000E+00
#rwgt            1           1   4.7550555707909704E-002           4      224703           0
</event>
<event>
      5   9999  3.19816E-02  1.16079E+02 -1.00000E+00  1.20984E-01
      21    -1     0     0   512   501  0.000000000E+00  0.000000000E+00  8.286084973E+02  8.286084973E+02  0.000000000E+00  0.00000E+00  9.000E+00
      21    -1     0     0   501   502  0.000000000E+00  0.000000000E+00 -2.102437889E+02  2.102437889E+02  0.000000000E+00  0.00000E+00  9.000E+00
      25     1     1     2     0     0  5.298903334E+01 -1.293638255E+02  2.560378505E+02  3.173692138E+02  1.250000000E+02  0.00000E+00  9.000E+00
      25     1     1     2     0     0  6.143469958E+01  1.098308658E+02 -1.272717373E+02  2.183120164E+02  1.250000000E+02  0.00000E+00  9.000E+00
      21     1     1     2   512   502 -1.144237329E+02  1.953295969E+01  4.895985952E+02  5.031710560E+02  5.394796609E-06  0.00000E+00  9.000E+00
#rwgt            1           1   2.6530506320620574E-002           4      224759           0
</event>
<event>
      5   9999  3.19816E-02  1.00256E+02 -1.00000E+00  1.23778E-01
      21    -1     0     0   502   501  0.000000000E+00  0.000000000E+00  7.523460639E+02  7.523460639E+02  0.000000000E+00  0.00000E+00  9.000E+00
      21    -1     0     0   511   502  0.000000000E+00  0.000000000E+00 -1.257330259E+02  1.257330259E+02  0.000000000E+00  0.00000E+00  9.000E+00
      25     1     1     2     0     0  1.053412292E+02 -3.686731514E+01  6.216007639E+02  6.437922671E+02  1.250000000E+02  0.00000E+00  9.000E+00
      25     1     1     2     0     0 -5.154619396E+00  3.313030967E+01 -2.000672902E+01  1.309559343E+02  1.250000000E+02  0.00000E+00  9.000E+00
      21     1     1     2   511   501 -1.001866098E+02  3.737005473E+00  2.501900309E+01  1.033308884E+02  1.118282261E-06  0.00000E+00  9.000E+00
#rwgt            1           1   2.4860559322310089E-002           4      224848           0
</event>
<event>
      5   9999  3.19816E-02  1.08698E+02 -1.00000E+00  1.22220E-01
      21    -1     0     0   502   501  0.000000000E+00  0.000000000E+00  7.492558122E+01  7.492558122E+01  0.000000000E+00  0.00000E+00  9.000E+00
       1    -1     0     0   501     0  0.000000000E+00  0.000000000E+00 -1.099021732E+03  1.099021732E+03  0.000000000E+00  0.00000E+00  9.000E+00
      25     1     1     2     0     0  1.281377862E+02  1.673106512E+02 -4.879431064E+02  5.460088107E+02  1.250000000E+02  0.00000E+00  9.000E+00
      25     1     1     2     0     0 -2.036893049E+01 -1.531254167E+02 -2.349130479E+02  3.076872221E+02  1.250000000E+02  0.00000E+00  9.000E+00
       1     1     1     2   502     0 -1.077688557E+02 -1.418523450E+01 -3.012399967E+02  3.202512806E+02  0.000000000E+00  0.00000E+00  9.000E+00
#rwgt            1           1   2.9076028762548674E-002           4      224894           0
</event>
<event>
      5   9999  3.19816E-02  2.99521E+01 -1.00000E+00  1.53088E-01
       2    -1     0     0   502     0  0.000000000E+00  0.000000000E+00  8.127842515E+02  8.127842515E+02  0.000000000E+00  0.00000E+00  9.000E+00
      21    -1     0     0   501   502  0.000000000E+00  0.000000000E+00 -8.788793090E+02  8.788793090E+02  0.000000000E+00  0.00000E+00  9.000E+00
      25     1     1     2     0     0  5.650944918E+01  1.623316399E+02 -4.018782246E+02  4.546163069E+02  1.250000000E+02  0.00000E+00  9.000E+00
      25     1     1     2     0     0 -2.749518010E+01 -1.697679375E+02 -4.252439669E+02  4.754309297E+02  1.250000000E+02  0.00000E+00  9.000E+00
       2     1     1     2   501     0 -2.901426908E+01  7.436297657E+00  7.610271339E+02  7.616163239E+02  1.078959322E-05  0.00000E+00  9.000E+00
#rwgt            1           1   3.5593374996070189E-002           4      224937           0
</event>
<event>
      5   9999  3.19816E-02  1.26284E+02 -1.00000E+00  1.19435E-01
      21    -1     0     0   502   501  0.000000000E+00  0.000000000E+00  2.110263639E+03  2.110263639E+03  0.000000000E+00  0.00000E+00  9.000E+00
       1    -1     0     0   501     0  0.000000000E+00  0.000000000E+00 -1.840415044E+02  1.840415044E+02  0.000000000E+00  0.00000E+00  9.000E+00
      25     1     1     2     0     0 -2.498571216E+02  2.319803912E+02  1.560643301E+03  1.602334545E+03  1.250000000E+02  0.00000E+00  9.000E+00
      25     1     1     2     0     0  3.750313767E+02 -2.152751289E+02  3.374965468E+02  5.626018431E+02  1.250000000E+02  0.00000E+00  9.000E+00
       1     1     1     2   502     0 -1.251742551E+02 -1.670526229E+01  2.808228694E+01  1.293687550E+02  1.348699152E-06  0.00000E+00  9.000E+00
#rwgt            2          12   8.8687344217155308E-005           4      225092           0
</event>
<event>
      5   9999  3.19816E-02  2.04267E+01 -1.00000E+00  1.65616E-01
      21    -1     0     0   502   501  0.000000000E+00  0.000000000E+00  3.941127345E+02  3.941127345E+02  0.000000000E+00  0.00000E+00  9.000E+00
      -5    -1     0     0     0   502  0.000000000E+00  0.000000000E+00 -1.324593812E+03  1.324593812E+03  0.000000000E+00  0.00000E+00  9.000E+00
      25     1     1     2     0     0  1.750057398E+02 -1.331782458E+02 -7.583543031E+01  2.640823103E+02  1.250000000E+02  0.00000E+00  9.000E+00
      25     1     1     2     0     0 -1.732483705E+02  1.535291967E+02  2.421978428E+02  3.575905580E+02  1.250000000E+02  0.00000E+00  9.000E+00
      -5     1     1     2     0   501 -1.757369314E+00 -2.035095090E+01 -1.096843490E+03  1.097033678E+03  1.525878906E-05  0.00000E+00  9.000E+00
#rwgt            1           1   3.0512235499224410E-002           4      225141           0
</event>
<event>
      5   9999  3.19816E-02  1.76109E+02 -1.00000E+00  1.13697E-01
       2    -1     0     0   502     0  0.000000000E+00  0.000000000E+00  1.318205766E+03  1.318205766E+03  0.000000000E+00  0.00000E+00  9.000E+00
      21    -1     0     0   501   502  0.000000000E+00  0.000000000E+00 -1.092159605E+02  1.092159605E+02  0.000000000E+00  0.00000E+00  9.000E+00
      25     1     1     2     0     0  2.129995229E+02  4.199414485E+01  6.514911059E+02  6.979956777E+02  1.250000000E+02  0.00000E+00  9.000E+00
      25     1     1     2     0     0 -1.860608168E+02  1.320426291E+02  4.591166264E+02  5.276996874E+02  1.250000000E+02  0.00000E+00  9.000E+00
       2     1     1     2   501     0 -2.693870616E+01 -1.740367740E+02  9.838207326E+01  2.017263615E+02  2.697398305E-06  0.00000E+00  9.000E+00
#rwgt            1           1   3.0425227183311872E-002           4      225283           0
</event>
<event>
      5   9999  3.19816E-02  3.28033E+02 -1.00000E+00  1.04347E-01
      21    -1     0     0   502   501  0.000000000E+00  0.000000000E+00  7.984818758E+02  7.984818758E+02  0.000000000E+00  0.00000E+00  9.000E+00
      21    -1     0     0   511   502  0.000000000E+00  0.000000000E+00 -9.728278018E+02  9.728278018E+02  0.000000000E+00  0.00000E+00  9.000E+00
      25     1     1     2     0     0 -2.950117089E+02  2.941583299E+02  5.463691913E+02  6.983590227E+02  1.250000000E+02  0.00000E+00  9.000E+00
      25     1     1     2     0     0 -1.842135252E+01 -1.973837507E+02  4.615973176E+01  2.388627474E+02  1.250000000E+02  0.00000E+00  9.000E+00
      21     1     1     2   511   501  3.134330614E+02 -9.677457922E+01 -7.668748490E+02  8.340879074E+02  0.000000000E+00  0.00000E+00  9.000E+00
#rwgt            1           1   2.7869582248630721E-002           4      225335           0
</event>
<event>
      5   9999  3.19816E-02  5.87929E+01 -1.00000E+00  1.35177E-01
      21    -1     0     0   502   512  0.000000000E+00  0.000000000E+00  1.218776971E+02  1.218776971E+02  0.000000000E+00  0.00000E+00  9.000E+00
      21    -1     0     0   501   502  0.000000000E+00  0.000000000E+00 -1.748538557E+03  1.748538557E+03  0.000000000E+00  0.00000E+00  9.000E+00
      25     1     1     2     0     0  7.061407774E+01 -7.890529012E+00 -1.636243282E+03  1.642548533E+03  1.250000000E+02  0.00000E+00  9.000E+00
      25     1     1     2     0     0 -6.702947125E+01  6.657401147E+01  3.994700343E+01  1.616966669E+02  1.250000000E+02  0.00000E+00  9.000E+00
      21     1     1     2   501   512 -3.584606495E+00 -5.868348246E+01 -3.036458186E+01  6.617105371E+01  1.215700987E-06  0.00000E+00  9.000E+00
#rwgt            1           1   2.9385991874600975E-002           4      225363           0
</event>
<event>
      5   9999  3.19816E-02  1.46407E+02 -1.00000E+00  1.16812E-01
      -1    -1     0     0     0   501  0.000000000E+00  0.000000000E+00  2.003043597E+03  2.003043597E+03  0.000000000E+00  0.00000E+00  9.000E+00
      21    -1     0     0   501   502  0.000000000E+00  0.000000000E+00 -3.442616734E+01  3.442616734E+01  0.000000000E+00  0.00000E+00  9.000E+00
      25     1     1     2     0     0 -4.508288433E+01 -1.158738664E+02  5.764905388E+02  6.028478752E+02  1.250000000E+02  0.00000E+00  9.000E+00
      25     1     1     2     0     0  1.625690164E+01 -2.766762441E+01  2.335755395E+02  2.668563602E+02  1.250000000E+02  0.00000E+00  9.000E+00
      -1     1     1     2     0   502  2.882598269E+01  1.435414908E+02  1.158551352E+03  1.167765529E+03  2.157918644E-05  0.00000E+00  9.000E+00
#rwgt            1           1   2.0676778005105680E-002           4      225463           0
</event>
<event>
      5   9999  3.19816E-02  4.02346E+01 -1.00000E+00  1.44683E-01
      21    -1     0     0   511   501  0.000000000E+00  0.000000000E+00  1.596800300E+02  1.596800300E+02  0.000000000E+00  0.00000E+00  9.000E+00
      21    -1     0     0   501   502  0.000000000E+00  0.000000000E+00 -2.351054107E+03  2.351054107E+03  0.000000000E+00  0.00000E+00  9.000E+00
      25     1     1     2     0     0 -2.859060580E+00 -1.652389570E+02 -5.942686496E+02  6.293586538E+02  1.250000000E+02  0.00000E+00  9.000E+00
      25     1     1     2     0     0  3.899990922E+01  1.475567313E+02 -1.730672458E+03  1.741880058E+03  1.250000000E+02  0.00000E+00  9.000E+00
      21     1     1     2   511   502 -3.614084864E+01  1.768222567E+01  1.335670302E+02  1.394954250E+02  8.092194914E-06  0.00000E+00  9.000E+00
#rwgt            1           1   7.0905682521921615E-002           4      225496           0
</event>
<event>
      5   9999  3.19816E-02  7.05971E+01 -1.00000E+00  1.31034E-01
      21    -1     0     0   502   501  0.000000000E+00  0.000000000E+00  1.566646936E+03  1.566646936E+03  0.000000000E+00  0.00000E+00  9.000E+00
      21    -1     0     0   501   512  0.000000000E+00  0.000000000E+00 -5.206910138E+02  5.206910138E+02  0.000000000E+00  0.00000E+00  9.000E+00
      25     1     1     2     0     0  3.714498380E+02  3.722191348E+02 -2.229554105E+02  5.846846855E+02  1.250000000E+02  0.00000E+00  9.000E+00
      25     1     1     2     0     0 -4.138018538E+02 -4.287014778E+02  1.292101774E+03  1.428344820E+03  1.250000000E+02  0.00000E+00  9.000E+00
      21     1     1     2   502   512  4.235201583E+01  5.648234298E+01 -2.319044105E+01  7.430844413E+01  8.920806376E-07  0.00000E+00  9.000E+00
#rwgt            1           1   3.5504158228502551E-002           4      225602           0
</event>
<event>
      5   9999  3.19816E-02  5.99725E+01 -1.00000E+00  1.34714E-01
      21    -1     0     0   511   501  0.000000000E+00  0.000000000E+00  1.002217805E+02  1.002217805E+02  0.000000000E+00  0.00000E+00  9.000E+00
      21    -1     0     0   501   502  0.000000000E+00  0.000000000E+00 -4.888631894E+02  4.888631894E+02  0.000000000E+00  0.00000E+00  9.000E+00
      25     1     1     2     0     0 -5.430514420E+00  9.184958750E+01 -6.027780632E+01  1.665060093E+02  1.250000000E+02  0.00000E+00  9.000E+00
      25     1     1     2     0     0 -5.452832708E+01 -9.312847418E+01 -3.224976598E+02  3.623202889E+02  1.250000000E+02  0.00000E+00  9.000E+00
      21     1     1     2   511   502  5.995884150E+01  1.278886678E+00 -5.865942724E+00  6.025867165E+01  9.536743164E-07  0.00000E+00  9.000E+00
#rwgt            1           1   2.9603757988366921E-002           4      225730           0
</event>
<event>
      5   9999  3.19816E-02  2.22100E+02 -1.00000E+00  1.10016E-01
      21    -1     0     0   512   501  0.000000000E+00  0.000000000E+00  5.323921802E+02  5.323921802E+02  0.000000000E+00  0.00000E+00  9.000E+00
      21    -1     0     0   501   502  0.000000000E+00  0.000000000E+00 -9.889391367E+02  9.889391367E+02  0.000000000E+00  0.00000E+00  9.000E+00
      25     1     1     2     0     0 -1.676622146E+02 -6.711852012E+02 -1.219275763E+02  7.135065006E+02  1.250000000E+02  0.00000E+00  9.000E+00
      25     1     1     2     0     0  1.913810106E+02  4.503556819E+02 -2.862239293E+02  5.805136253E+02  1.250000000E+02  0.00000E+00  9.000E+00
      21     1     1     2   512   502 -2.371879606E+01  2.208295193E+02 -4.839545090E+01  2.273111909E+02  1.784161275E-06  0.00000E+00  9.000E+00
#rwgt            1           1   3.2133366095411522E-002           4      225850           0
</event>
<event>
      5   9999  3.19816E-02  1.94917E+02 -1.00000E+00  1.12057E-01
      21    -1     0     0   502   501  0.000000000E+00  0.000000000E+00  9.450523574E+02  9.450523574E+02  0.000000000E+00  0.00000E+00  9.000E+00
      21    -1     0     0   511   502  0.000000000E+00  0.000000000E+00 -7.693084415E+02  7.693084415E+02  0.000000000E+00  0.00000E+00  9.000E+00
      25     1     1     2     0     0  9.771107201E+01 -6.412607308E+02  1.839611541E+02  6.857328085E+02  1.250000000E+02  0.00000E+00  9.000E+00
      25     1     1     2     0     0 -5.153224669E+00  8.127994597E+02  5.367463066E+01  8.241210369E+02  1.250000000E+02  0.00000E+00  9.000E+00
      21     1     1     2   511   501 -9.255784734E+01 -1.715387289E+02 -6.189186893E+01  2.045069536E+02  3.303624740E-06  0.00000E+00  9.000E+00
#rwgt            1           1   3.5464615256725160E-002           4      225896           0
</event>
<event>
      5   9999  3.19816E-02  6.80790E+01 -1.00000E+00  1.31836E-01
      21    -1     0     0   502   512  0.000000000E+00  0.000000000E+00  2.286892647E+03  2.286892647E+03  0.000000000E+00  0.00000E+00  9.000E+00
      21    -1     0     0   501   502  0.000000000E+00  0.000000000E+00 -3.620570295E+02  3.620570295E+02  0.000000000E+00  0.00000E+00  9.000E+00
      25     1     1     2     0     0  3.088809246E+02 -2.515549912E+01  3.950524919E+02  5.174279623E+02  1.250000000E+02  0.00000E+00  9.000E+00
      25     1     1     2     0     0 -3.242585218E+02 -4.116406897E+01 -1.982141130E+02  4.021839183E+02  1.250000000E+02  0.00000E+00  9.000E+00
      21     1     1     2   501   512  1.537759721E+01  6.631956810E+01  1.727997239E+03  1.729337796E+03  3.051757812E-05  0.00000E+00  9.000E+00
#rwgt            1           1   3.1701368550779548E-002           4      226007           0
</event>
<event>
      5   9999  3.19816E-02  1.63047E+02 -1.00000E+00  1.14976E-01
      21    -1     0     0   502   511  0.000000000E+00  0.000000000E+00  9.186657957E+02  9.186657957E+02  0.000000000E+00  0.00000E+00  9.000E+00
      21    -1     0     0   501   502  0.000000000E+00  0.000000000E+00 -4.359425564E+02  4.359425564E+02  0.000000000E+00  0.00000E+00  9.000E+00
      25     1     1     2     0     0  2.049901861E+02  3.704414010E+01 -1.929200021E+02  3.102198767E+02  1.250000000E+02  0.00000E+00  9.000E+00
      25     1     1     2     0     0 -5.178943245E+01  1.875708397E+01 -1.499554432E+02  2.028438031E+02  1.250000000E+02  0.00000E+00  9.000E+00
      21     1     1     2   501   511 -1.532007536E+02 -5.580122408E+01  8.255986846E+02  8.415446723E+02  0.000000000E+00  0.00000E+00  9.000E+00
#rwgt            1           1   3.1699062798091114E-002           4      226106           0
</event>
<event>
      5   9999  3.19816E-02  5.95275E+01 -1.00000E+00  1.34887E-01
      21    -1     0     0   502   512  0.000000000E+00  0.000000000E+00  1.019870396E+03  1.019870396E+03  0.000000000E+00  0.00000E+00  9.000E+00
      21    -1     0     0   501   502  0.000000000E+00  0.000000000E+00 -1.776687381E+02  1.776687381E+02  0.000000000E+00  0.00000E+00  9.000E+00
      25     1     1     2     0     0  1.435927055E+02  2.885817479E+02  9.588745145E+01  3.587724817E+02  1.250000000E+02  0.00000E+00  9.000E+00
      25     1     1     2     0     0 -8.837625583E+01 -2.663405164E+02  5.127263045E+02  5.977130554E+02  1.250000000E+02  0.00000E+00  9.000E+00
      21     1     1     2   501   512 -5.521644970E+01 -2.224123153E+01  2.335879023E+02  2.410535974E+02  2.697398305E-06  0.00000E+00  9.000E+00
#rwgt            1           1   2.7882178079151696E-002           4      226166           0
</event>
<event>
      5   9999  3.19816E-02  5.59996E+01 -1.00000E+00  1.36324E-01
      21    -1     0     0   511   501  0.000000000E+00  0.000000000E+00  1.246793502E+03  1.246793502E+03  0.000000000E+00  0.00000E+00  9.000E+00
      21    -1     0     0   501   502  0.000000000E+00  0.000000000E+00 -2.223966047E+02  2.223966047E+02  0.000000000E+00  0.00000E+00  9.000E+00
      25     1     1     2     0     0  1.735493964E+02  4.059942536E+02  6.203061815E+02  7.715928238E+02  1.250000000E+02  0.00000E+00  9.000E+00
      25     1     1     2     0     0 -1.496186581E+02 -4.566230565E+02  3.019435194E+02  5.811069157E+02  1.250000000E+02  0.00000E+00  9.000E+00
      21     1     1     2   511   502 -2.393073827E+01  5.062880288E+01  1.021471964E+02  1.164903672E+02  1.348699152E-06  0.00000E+00  9.000E+00
#rwgt            1           1   3.3083830921984969E-002           4      226273           0
</event>
<event>
      5   9999  3.19816E-02  1.35492E+02 -1.00000E+00  1.18172E-01
      21    -1     0     0   502   501  0.000000000E+00  0.000000000E+00  5.739802085E+02  5.739802085E+02  0.000000000E+00  0.00000E+00  9.000E+00
      21    -1     0     0   512   502  0.000000000E+00  0.000000000E+00 -1.973280502E+02  1.973280502E+02  0.000000000E+00  0.00000E+00  9.000E+00
      25     1     1     2     0     0 -1.406212325E+02  1.910192189E+02  2.008924405E+02  3.350305145E+02  1.250000000E+02  0.00000E+00  9.000E+00
      25     1     1     2     0     0  1.861207913E+02 -6.339484048E+01  1.891788299E+02  3.001224491E+02  1.250000000E+02  0.00000E+00  9.000E+00
      21     1     1     2   512   501 -4.549955876E+01 -1.276243784E+02 -1.341911211E+01  1.361552951E+02  2.078484985E-06  0.00000E+00  9.000E+00
#rwgt            1           1   2.7475737636496633E-002           4      226393           0
</event>
<event>
      5   9999  3.19816E-02  3.78490E+01 -1.00000E+00  1.46345E-01
      21    -1     0     0   502   501  0.000000000E+00  0.000000000E+00  1.174550187E+03  1.174550187E+03  0.000000000E+00  0.00000E+00  9.000E+00
      21    -1     0     0   501   511  0.000000000E+00  0.000000000E+00 -2.191922559E+02  2.191922559E+02  0.000000000E+00  0.00000E+00  9.000E+00
      25     1     1     2     0     0  4.118910689E+02 -1.612764073E+02  5.219749541E+02  6.955193634E+02  1.250000000E+02  0.00000E+00  9.000E+00
      25     1     1     2     0     0 -4.341543789E+02  1.306677569E+02  4.552139079E+02  6.545294412E+02  1.250000000E+02  0.00000E+00  9.000E+00
      21     1     1     2   502   511  2.226331002E+01  3.060865039E+01 -2.183093115E+01  4.369363806E+01  0.000000000E+00  0.00000E+00  9.000E+00
#rwgt            1           1   2.8990167976955250E-002           4      226429           0
</event>
<event>
      5   9999  3.19816E-02  7.23608E+01 -1.00000E+00  1.30495E-01
      21    -1     0     0   502   501  0.000000000E+00  0.000000000E+00  2.635500154E+02  2.635500154E+02  0.000000000E+00  0.00000E+00  9.000E+00
      21    -1     0     0   501   512  0.000000000E+00  0.000000000E+00 -6.668326880E+02  6.668326880E+02  0.000000000E+00  0.00000E+00  9.000E+00
      25     1     1     2     0     0  4.944365817E+01  7.714962585E+00 -6.911736693E+01  1.513486253E+02  1.250000000E+02  0.00000E+00  9.000E+00
      25     1     1     2     0     0 -3.940961943E+01  6.394674076E+01  1.958057584E+02  2.441458556E+02  1.250000000E+02  0.00000E+00  9.000E+00
      21     1     1     2   502   512 -1.003403874E+01 -7.166170335E+01 -5.299710641E+02  5.348882224E+02  0.000000000E+00  0.00000E+00  9.000E+00
#rwgt            1           1   2.9891041306217066E-002           4      226628           0
</event>
<event>
      5   9999  3.19816E-02  1.02776E+02 -1.00000E+00  1.23295E-01
      21    -1     0     0   511   501  0.000000000E+00  0.000000000E+00  4.222239541E+02  4.222239541E+02  0.000000000E+00  0.00000E+00  9.000E+00
      21    -1     0     0   501   502  0.000000000E+00  0.000000000E+00 -3.339664557E+03  3.339664557E+03  0.000000000E+00  0.00000E+00  9.000E+00
      25     1     1     2     0     0  3.831930383E+02 -1.006558540E+03 -1.055771528E+03  1.513365626E+03  1.250000000E+02  0.00000E+00  9.000E+00
      25     1     1     2     0     0 -2.947991895E+02  9.541234357E+02 -1.890570129E+03  2.141760609E+03  1.250000000E+02  0.00000E+00  9.000E+00
      21     1     1     2   511   502 -8.839384879E+01  5.243510469E+01  2.890105376E+01  1.067622762E+02  2.023048729E-06  0.00000E+00  9.000E+00
#rwgt            1           1   1.7685235593956680E-002           4      226700           0
</event>
<event>
      5   9999  3.19816E-02  2.19372E+02 -1.00000E+00  1.10206E-01
      21    -1     0     0   512   501  0.000000000E+00  0.000000000E+00  1.619678140E+03  1.619678140E+03  0.000000000E+00  0.00000E+00  9.000E+00
      21    -1     0     0   501   502  0.000000000E+00  0.000000000E+00 -2.578715884E+02  2.578715884E+02  0.000000000E+00  0.00000E+00  9.000E+00
      25     1     1     2     0     0 -1.055142716E+02  5.097795770E+02  3.401073863E+02  6.342763695E+02  1.250000000E+02  0.00000E+00  9.000E+00
      25     1     1     2     0     0 -1.079374210E+00 -3.180454206E+02  2.069525470E+02  3.995102143E+02  1.250000000E+02  0.00000E+00  9.000E+00
      21     1     1     2   512   502  1.065936459E+02 -1.917341564E+02  8.147466181E+02  8.437631443E+02  0.000000000E+00  0.00000E+00  9.000E+00
#rwgt            1           1   2.8161956089988768E-002           4      226785           0
</event>
<event>
      5   9999  3.19816E-02  1.66960E+02 -1.00000E+00  1.14579E-01
      21    -1     0     0   502   501  0.000000000E+00  0.000000000E+00  3.504906430E+02  3.504906430E+02  0.000000000E+00  0.00000E+00  9.000E+00
       1    -1     0     0   501     0  0.000000000E+00  0.000000000E+00 -1.167261577E+03  1.167261577E+03  0.000000000E+00  0.00000E+00  9.000E+00
      25     1     1     2     0     0 -3.361325028E+01 -1.188355950E+02 -4.965857743E+02  5.267581802E+02  1.250000000E+02  0.00000E+00  9.000E+00
      25     1     1     2     0     0 -9.174024501E+01  8.553353218E+00  3.058842009E+02  3.430445696E+02  1.250000000E+02  0.00000E+00  9.000E+00
       1     1     1     2   502     0  1.253534953E+02  1.102822418E+02 -6.260693602E+02  6.479494698E+02  7.629394531E-06  0.00000E+00  9.000E+00
#rwgt            1           1   2.0712265175133124E-002           4      226817           0
</event>
<event>
      5   9999  3.38398E-02  4.40509E+01 -1.00000E+00  1.42289E-01
      21    -1     0     0   511   501  0.000000000E+00  0.000000000E+00  6.961229815E+01  6.961229815E+01  0.000000000E+00  0.00000E+00  9.000E+00
      21    -1     0     0   501   502  0.000000000E+00  0.000000000E+00 -2.156495065E+03  2.156495065E+03  0.000000000E+00  0.00000E+00  9.000E+00
      25     1     1     2     0     0 -1.399197037E+02  2.708663910E+02 -7.492360660E+02  8.184899558E+02  1.250000000E+02  0.00000E+00  9.000E+00
      25     1     1     2     0     0  1.839439785E+02 -2.693342748E+02 -1.309637918E+03  1.355416104E+03  1.250000000E+02  0.00000E+00  9.000E+00
      21     1     1     2   511   502 -4.402427478E+01 -1.532116218E+00 -2.800878297E+01  5.220130337E+01  7.539457465E-07  0.00000E+00  9.000E+00
#rwgt            1           1  0.10005240407705375                4      226870           0
</event>
<event>
      5   9999  3.19816E-02  1.02828E+02 -1.00000E+00  1.23286E-01
      21    -1     0     0   502   512  0.000000000E+00  0.000000000E+00  1.653648033E+03  1.653648033E+03  0.000000000E+00  0.00000E+00  9.000E+00
      21    -1     0     0   501   502  0.000000000E+00  0.000000000E+00 -4.220880947E+02  4.220880947E+02  0.000000000E+00  0.00000E+00  9.000E+00
      25     1     1     2     0     0  1.606486398E+01  3.870705575E+02  3.829464196E+02  5.588869801E+02  1.250000000E+02  0.00000E+00  9.000E+00
      25     1     1     2     0     0  7.126529178E+01 -3.327831380E+02 -2.326002985E+02  4.307566106E+02  1.250000000E+02  0.00000E+00  9.000E+00
      21     1     1     2   501   512 -8.733015577E+01 -5.428741950E+01  1.081213817E+03  1.086092537E+03  0.000000000E+00  0.00000E+00  9.000E+00
#rwgt            1           1   2.7924666824064841E-002           4      227001           0
</event>
<event>
      5   9999  3.19816E-02  8.83008E+00 -1.00000E+00  2.02218E-01
      21    -1     0     0   502   501  0.000000000E+00  0.000000000E+00  8.445422801E+01  8.445422801E+01  0.000000000E+00  0.00000E+00  9.000E+00
      21    -1     0     0   501   511  0.000000000E+00  0.000000000E+00 -4.143302948E+02  4.143302948E+02  0.000000000E+00  0.00000E+00  9.000E+00
      25     1     1     2     0     0  1.970766971E+01  1.091956416E+02 -9.723849475E+01  1.933711593E+02  1.250000000E+02  0.00000E+00  9.000E+00
      25     1     1     2     0     0 -1.544697539E+01 -1.169297737E+02 -1.685428569E+02  2.407132644E+02  1.250000000E+02  0.00000E+00  9.000E+00
      21     1     1     2   502   511 -4.260694323E+00  7.734132086E+00 -6.409471519E+01  6.470009915E+01  9.536743164E-07  0.00000E+00  9.000E+00
#rwgt            1           1   2.6076761908150708E-002           4      227092           0
</event>
<event>
      5   9999  3.19816E-02  7.83873E+01 -1.00000E+00  1.28779E-01
      21    -1     0     0   502   512  0.000000000E+00  0.000000000E+00  1.661536737E+03  1.661536737E+03  0.000000000E+00  0.00000E+00  9.000E+00
      21    -1     0     0   501   502  0.000000000E+00  0.000000000E+00 -3.444545311E+02  3.444545311E+02  0.000000000E+00  0.00000E+00  9.000E+00
      25     1     1     2     0     0  3.035127242E+02 -2.672179564E+02  1.507404281E+02  4.493028896E+02  1.250000000E+02  0.00000E+00  9.000E+00
      25     1     1     2     0     0 -3.814427031E+02  2.587627629E+02  1.005895929E+02  4.880573423E+02  1.250000000E+02  0.00000E+00  9.000E+00
      21     1     1     2   501   512  7.792997892E+01  8.455193510E+00  1.065752185E+03  1.068631036E+03  1.525878906E-05  0.00000E+00  9.000E+00
#rwgt            1           1   2.6446640219093091E-002           4      227282           0
</event>
<event>
      5   9999  3.19816E-02  8.52118E+00 -1.00000E+00  2.04150E-01
      21    -1     0     0   502   501  0.000000000E+00  0.000000000E+00  1.977097193E+02  1.977097193E+02  0.000000000E+00  0.00000E+00  9.000E+00
      21    -1     0     0   511   502  0.000000000E+00  0.000000000E+00 -4.174980657E+02  4.174980657E+02  0.000000000E+00  0.00000E+00  9.000E+00
      25     1     1     2     0     0  5.585512531E+01 -7.624588153E+01  1.410103067E+02  2.108130358E+02  1.250000000E+02  0.00000E+00  9.000E+00
      25     1     1     2     0     0 -4.915202086E+01  7.098481268E+01 -2.449726765E+02  2.882557493E+02  1.250000000E+02  0.00000E+00  9.000E+00
      21     1     1     2   511   501 -6.703104446E+00  5.261068859E+00 -1.158259766E+02  1.161389999E+02  1.907348633E-06  0.00000E+00  9.000E+00
#rwgt            1           1   2.5939128204706965E-002           4      227374           0
</event>
<event>
      5   9999  3.19816E-02  1.06186E+02 -1.00000E+00  1.22667E-01
      21    -1     0     0   512   501  0.000000000E+00  0.000000000E+00  1.632028414E+02  1.632028414E+02  0.000000000E+00  0.00000E+00  9.000E+00
      21    -1     0     0   501   502  0.000000000E+00  0.000000000E+00 -1.137693593E+03  1.137693593E+03  0.000000000E+00  0.00000E+00  9.000E+00
      25     1     1     2     0     0 -2.075160269E+02 -5.357494742E+01 -8.493010904E+02  8.847997053E+02  1.250000000E+02  0.00000E+00  9.000E+00
      25     1     1     2     0     0  2.034197202E+02  1.596815482E+02 -6.673042365E+01  2.948825679E+02  1.250000000E+02  0.00000E+00  9.000E+00
      21     1     1     2   512   502  4.096306658E+00 -1.061066008E+02 -5.845923796E+01  1.212141615E+02  2.236564522E-06  0.00000E+00  9.000E+00
#rwgt            1           1   2.0458340220604158E-002           4      227588           0
</event>
<event>
      5   9999  3.19816E-02  1.30938E+02 -1.00000E+00  1.18782E-01
      21    -1     0     0   511   501  0.000000000E+00  0.000000000E+00  5.992589440E+02  5.992589440E+02  0.000000000E+00  0.00000E+00  9.000E+00
      21    -1     0     0   501   502  0.000000000E+00  0.000000000E+00 -4.438645874E+02  4.438645874E+02  0.000000000E+00  0.00000E+00  9.000E+00
      25     1     1     2     0     0 -2.058754709E+02  1.508540330E+02  2.872887668E+02  4.041057836E+02  1.250000000E+02  0.00000E+00  9.000E+00
      25     1     1     2     0     0  7.979097328E+01 -1.155356024E+02 -3.426895784E+02  3.908659898E+02  1.250000000E+02  0.00000E+00  9.000E+00
      21     1     1     2   511   502  1.260844976E+02 -3.531843061E+01  2.107951682E+02  2.481517581E+02  0.000000000E+00  0.00000E+00  9.000E+00
#rwgt            1           1   2.9689488242982828E-002           4      227634           0
</event>
<event>
      5   9999  3.19816E-02  2.54466E+02 -1.00000E+00  1.07968E-01
      21    -1     0     0   502   501  0.000000000E+00  0.000000000E+00  3.550566736E+02  3.550566736E+02  0.000000000E+00  0.00000E+00  9.000E+00
       1    -1     0     0   501     0  0.000000000E+00  0.000000000E+00 -7.538975525E+02  7.538975525E+02  0.000000000E+00  0.00000E+00  9.000E+00
      25     1     1     2     0     0  3.638881344E+02 -1.976716912E+02  1.573917471E+01  4.328526233E+02  1.250000000E+02  0.00000E+00  9.000E+00
      25     1     1     2     0     0 -2.482188299E+02 -2.898599947E+01 -2.258680645E+02  3.592967551E+02  1.250000000E+02  0.00000E+00  9.000E+00
       1     1     1     2   502     0 -1.156693045E+02  2.266576906E+02 -1.887119891E+02  3.168048477E+02  3.814697266E-06  0.00000E+00  9.000E+00
#rwgt            1           1   2.4825090427499263E-002           4      227707           0
</event>
<event>
      5   9999  3.19816E-02  9.28663E+01 -1.00000E+00  1.25291E-01
      21    -1     0     0   502   501  0.000000000E+00  0.000000000E+00  2.061511881E+03  2.061511881E+03  0.000000000E+00  0.00000E+00  9.000E+00
       1    -1     0     0   501     0  0.000000000E+00  0.000000000E+00 -6.053647447E+02  6.053647447E+02  0.000000000E+00  0.00000E+00  9.000E+00
      25     1     1     2     0     0 -4.540676001E+02  3.035139419E+02  1.587051111E+03  1.683049116E+03  1.250000000E+02  0.00000E+00  9.000E+00
      25     1     1     2     0     0  5.463092484E+02 -2.927606578E+02  1.815735102E+02  6.578423347E+02  1.250000000E+02  0.00000E+00  9.000E+00
       1     1     1     2   502     0 -9.224164829E+01 -1.075328414E+01 -3.124774856E+02  3.259851742E+02  0.000000000E+00  0.00000E+00  9.000E+00
#rwgt            2          12   1.1355376167108951E-003           4      227955           0
</event>
<event>
      5   9999  6.28911E-02  4.14329E+02 -1.00000E+00  1.01228E-01
       2    -1     0     0   502     0  0.000000000E+00  0.000000000E+00  1.524473532E+03  1.524473532E+03  0.000000000E+00  0.00000E+00  9.000E+00
      21    -1     0     0   501   502  0.000000000E+00  0.000000000E+00 -2.284834558E+03  2.284834558E+03  0.000000000E+00  0.00000E+00  9.000E+00
      25     1     1     2     0     0 -2.147145623E+01  3.263665807E+02 -1.960616254E+03  1.991636830E+03  1.250000000E+02  0.00000E+00  9.000E+00
      25     1     1     2     0     0 -2.701127085E+02 -3.200809739E+01 -1.982737902E+02  3.590583372E+02  1.250000000E+02  0.00000E+00  9.000E+00
       2     1     1     2   501     0  2.915841647E+02 -2.943584833E+02  1.398529019E+03  1.458612923E+03  0.000000000E+00  0.00000E+00  9.000E+00
#rwgt            2          18  0.21118513103808201                4      228109           0
</event>
<event>
      5   9999  3.19816E-02  9.04723E+01 -1.00000E+00  1.25816E-01
      21    -1     0     0   502   511  0.000000000E+00  0.000000000E+00  4.236213367E+02  4.236213367E+02  0.000000000E+00  0.00000E+00  9.000E+00
      21    -1     0     0   501   502  0.000000000E+00  0.000000000E+00 -5.021737046E+02  5.021737046E+02  0.000000000E+00  0.00000E+00  9.000E+00
      25     1     1     2     0     0 -1.783428479E+02 -3.488487006E+02 -2.857155083E+01  4.122413381E+02  1.250000000E+02  0.00000E+00  9.000E+00
      25     1     1     2     0     0  9.133256434E+01  3.736366843E+02 -9.047031206E+01  4.144344176E+02  1.250000000E+02  0.00000E+00  9.000E+00
      21     1     1     2   501   511  8.701028359E+01 -2.478798369E+01  4.048949497E+01  9.911928565E+01  1.966049969E-06  0.00000E+00  9.000E+00
#rwgt            1           1   2.5922060016078999E-002           4      228128           0
</event>
<event>
      5   9999  3.19816E-02  2.18790E+02 -1.00000E+00  1.10247E-01
      21    -1     0     0   512   501  0.000000000E+00  0.000000000E+00  4.333688451E+02  4.333688451E+02  0.000000000E+00  0.00000E+00  9.000E+00
      21    -1     0     0   501   502  0.000000000E+00  0.000000000E+00 -3.904192764E+02  3.904192764E+02  0.000000000E+00  0.00000E+00  9.000E+00
      25     1     1     2     0     0  2.004969237E+02  2.147912229E+02 -8.471796182E+01  3.303580163E+02  1.250000000E+02  0.00000E+00  9.000E+00
      25     1     1     2     0     0  1.777296670E+01 -1.997138297E+02 -7.246789884E+00  2.363874110E+02  1.250000000E+02  0.00000E+00  9.000E+00
      21     1     1     2   512   502 -2.182698904E+02 -1.507739329E+01  1.349143204E+02  2.570426943E+02  2.697398305E-06  0.00000E+00  9.000E+00
#rwgt            1           1   2.6998278495570849E-002           4      228253           0
</event>
<event>
      5   9999  3.19816E-02  2.72035E+02 -1.00000E+00  1.06991E-01
      21    -1     0     0   502   501  0.000000000E+00  0.000000000E+00  1.605827779E+02  1.605827779E+02  0.000000000E+00  0.00000E+00  9.000E+00
      21    -1     0     0   511   502  0.000000000E+00  0.000000000E+00 -1.241849359E+03  1.241849359E+03  0.000000000E+00  0.00000E+00  9.000E+00
      25     1     1     2     0     0 -3.797353507E+02  1.357384685E+02 -4.891324142E+02  6.461419249E+02  1.250000000E+02  0.00000E+00  9.000E+00
      25     1     1     2     0     0  1.183961022E+02 -6.020683394E+01 -1.454436295E+02  2.332838383E+02  1.250000000E+02  0.00000E+00  9.000E+00
      21     1     1     2   511   501  2.613392485E+02 -7.553163459E+01 -4.466905371E+02  5.230063733E+02  1.206313194E-05  0.00000E+00  9.000E+00
#rwgt            1           1   2.8084950634149182E-002           4      228285           0
</event>
<event>
      5   9999  3.19816E-02  4.44908E+02 -1.00000E+00  1.00314E-01
       1    -1     0     0   502     0  0.000000000E+00  0.000000000E+00  2.071210703E+03  2.071210703E+03  0.000000000E+00  0.00000E+00  9.000E+00
      21    -1     0     0   501   502  0.000000000E+00  0.000000000E+00 -6.771450550E+02  6.771450550E+02  0.000000000E+00  0.00000E+00  9.000E+00
      25     1     1     2     0     0 -7.579690904E+02 -5.260682746E+02  7.420536104E+01  9.340216310E+02  1.250000000E+02  0.00000E+00  9.000E+00
      25     1     1     2     0     0  5.353514391E+02  1.408610310E+02  1.238109423E+03  1.361977583E+03  1.250000000E+02  0.00000E+00  9.000E+00
       1     1     1     2   501     0  2.226176512E+02  3.852072436E+02  8.175086420E+01  4.523565441E+02  9.246215548E-06  0.00000E+00  9.000E+00
#rwgt            1           1   2.9045380777030113E-002           4      228317           0
</event>
<event>
      5   9999  3.19816E-02  6.83686E+00 -1.00000E+00  2.17011E-01
      21    -1     0     0   502   501  0.000000000E+00  0.000000000E+00  9.885147551E+01  9.885147551E+01  0.000000000E+00  0.00000E+00  9.000E+00
      21    -1     0     0   501   511  0.000000000E+00  0.000000000E+00 -7.441325907E+02  7.441325907E+02  0.000000000E+00  0.00000E+00  9.000E+00
      25     1     1     2     0     0  2.144216866E+02  7.973757114E+00 -3.782040907E+02  4.524417916E+02  1.250000000E+02  0.00000E+00  9.000E+00
      25     1     1     2     0     0 -2.082294492E+02 -1.087183319E+01 -1.782587317E+02  3.014612341E+02  1.250000000E+02  0.00000E+00  9.000E+00
      21     1     1     2   502   511 -6.192237466E+00  2.898076072E+00 -8.881829282E+01  8.908104057E+01  1.348699152E-06  0.00000E+00  9.000E+00
#rwgt            1           1   3.0198170970548281E-002           4      228371           0
</event>
<event>
      5   9999  3.19816E-02  1.62988E+01 -1.00000E+00  1.74052E-01
      21    -1     0     0   512   501  0.000000000E+00  0.000000000E+00  4.301765018E+01  4.301765018E+01  0.000000000E+00  0.00000E+00  9.000E+00
      21    -1     0     0   501   502  0.000000000E+00  0.000000000E+00 -2.241410112E+03  2.241410112E+03  0.000000000E+00  0.00000E+00  9.000E+00
      25     1     1     2     0     0 -1.616815004E+02  9.271676865E+01 -9.350720135E+02  9.616246551E+02  1.250000000E+02  0.00000E+00  9.000E+00
      25     1     1     2     0     0  1.632312993E+02 -7.649185448E+01 -1.280481487E+03  1.299135597E+03  1.250000000E+02  0.00000E+00  9.000E+00
      21     1     1     2   512   502 -1.549798905E+00 -1.622491417E+01  1.716103955E+01  2.366750927E+01  1.283923342E-06  0.00000E+00  9.000E+00
#rwgt            1           1   6.3583481377762277E-002           4      228700           0
</event>
<event>
      5   9999  3.19816E-02  1.98716E+01 -1.00000E+00  1.66600E-01
      21    -1     0     0   511   501  0.000000000E+00  0.000000000E+00  5.827084060E+01  5.827084060E+01  0.000000000E+00  0.00000E+00  9.000E+00
      21    -1     0     0   501   502  0.000000000E+00  0.000000000E+00 -2.338126365E+03  2.338126365E+03  0.000000000E+00  0.00000E+00  9.000E+00
      25     1     1     2     0     0 -6.659955439E+01 -1.231293647E+02 -1.127174676E+03  1.142691599E+03  1.250000000E+02  0.00000E+00  9.000E+00
      25     1     1     2     0     0  8.647117614E+01  1.231305631E+02 -1.192907195E+03  1.208838689E+03  1.250000000E+02  0.00000E+00  9.000E+00
      21     1     1     2   511   502 -1.987162175E+01 -1.198354825E-03  4.022634635E+01  4.486691758E+01  3.873843386E-06  0.00000E+00  9.000E+00
#rwgt            1           1   5.4584344130339434E-002           4      228878           0
</event>
<event>
      5   9999  3.19816E-02  3.24123E+01 -1.00000E+00  1.50743E-01
      21    -1     0     0   502   512  0.000000000E+00  0.000000000E+00  6.024384660E+02  6.024384660E+02  0.000000000E+00  0.00000E+00  9.000E+00
      21    -1     0     0   501   502  0.000000000E+00  0.000000000E+00 -3.670337874E+02  3.670337874E+02  0.000000000E+00  0.00000E+00  9.000E+00
      25     1     1     2     0     0 -2.892490901E+01  7.865218292E+01 -3.355247436E+02  3.677290712E+02  1.250000000E+02  0.00000E+00  9.000E+00
      25     1     1     2     0     0  5.124758945E+01 -5.515211166E+01  3.618230230E+02  3.901396812E+02  1.250000000E+02  0.00000E+00  9.000E+00
      21     1     1     2   501   512 -2.232268044E+01 -2.350007126E+01  2.091063993E+02  2.116035010E+02  2.697398305E-06  0.00000E+00  9.000E+00
#rwgt            1           1   2.4073547512450409E-002           4      229041           0
</event>
<event>
      5   9999  3.19816E-02  4.73820E+01 -1.00000E+00  1.40421E-01
      21    -1     0     0   502   501  0.000000000E+00  0.000000000E+00  2.628631837E+03  2.628631837E+03  0.000000000E+00  0.00000E+00  9.000E+00
      21    -1     0     0   501   511  0.000000000E+00  0.000000000E+00 -1.465449690E+02  1.465449690E+02  0.000000000E+00  0.00000E+00  9.000E+00
      25     1     1     2     0     0  3.457662173E+02  6.471064779E+01  6.136903827E+02  7.183193098E+02  1.250000000E+02  0.00000E+00  9.000E+00
      25     1     1     2     0     0 -3.012749079E+02 -4.841424116E+01  1.941739809E+03  1.969540300E+03  1.250000000E+02  0.00000E+00  9.000E+00
      21     1     1     2   502   511 -4.449130942E+01 -1.629640663E+01 -7.334332395E+01  8.731719562E+01  3.015782986E-06  0.00000E+00  9.000E+00
#rwgt            1           1   5.5992912271476541E-002           4      229181           0
</event>
<event>
      5   9999  3.19816E-02  3.59197E+01 -1.00000E+00  1.47799E-01
      21    -1     0     0   502   501  0.000000000E+00  0.000000000E+00  8.342339703E+02  8.342339703E+02  0.000000000E+00  0.00000E+00  9.000E+00
      21    -1     0     0   501   512  0.000000000E+00  0.000000000E+00 -7.143910418E+02  7.143910418E+02  0.000000000E+00  0.00000E+00  9.000E+00
      25     1     1     2     0     0  3.079462505E+01 -5.259213769E+02 -4.761217621E+02  7.210121607E+02  1.250000000E+02  0.00000E+00  9.000E+00
      25     1     1     2     0     0 -4.105562028E+01  4.914984766E+02  6.050634085E+02  7.905586916E+02  1.250000000E+02  0.00000E+00  9.000E+00
      21     1     1     2   502   512  1.026099522E+01  3.442290027E+01 -9.098718020E+00  3.705415976E+01  5.960464478E-07  0.00000E+00  9.000E+00
#rwgt            1           1   3.1116550296328354E-002           4      229322           0
</event>
<event>
      5   9999  3.19816E-02  2.52945E+01 -1.00000E+00  1.58371E-01
       2    -1     0     0   502     0  0.000000000E+00  0.000000000E+00  2.738065893E+03  2.738065893E+03  0.000000000E+00  0.00000E+00  9.000E+00
      21    -1     0     0   501   502  0.000000000E+00  0.000000000E+00 -1.178708968E+02  1.178708968E+02  0.000000000E+00  0.00000E+00  9.000E+00
      25     1     1     2     0     0 -1.575931007E+02 -4.406887175E+02  9.620262579E+02  1.077108004E+03  1.250000000E+02  0.00000E+00  9.000E+00
      25     1     1     2     0     0  1.540860671E+02  4.657389112E+02  1.006243217E+03  1.126412740E+03  1.250000000E+02  0.00000E+00  9.000E+00
       2     1     1     2   501     0  3.507033660E+00 -2.505019361E+01  6.519255211E+02  6.524160456E+02  1.321449896E-05  0.00000E+00  9.000E+00
#rwgt            1           1   3.0349741000572125E-002           4      229533           0
</event>
<event>
      5   9999  3.19816E-02  5.98969E+01 -1.00000E+00  1.34743E-01
      21    -1     0     0   502   501  0.000000000E+00  0.000000000E+00  6.542035693E+02  6.542035693E+02  0.000000000E+00  0.00000E+00  9.000E+00
      21    -1     0     0   511   502  0.000000000E+00  0.000000000E+00 -1.947223605E+02  1.947223605E+02  0.000000000E+00  0.00000E+00  9.000E+00
      25     1     1     2     0     0  8.848040745E+01  2.310133287E+02  4.820561407E+02  5.560567087E+02  1.250000000E+02  0.00000E+00  9.000E+00
      25     1     1     2     0     0 -9.131532758E+01 -1.711835992E+02 -2.907242588E+01  2.326209785E+02  1.250000000E+02  0.00000E+00  9.000E+00
      21     1     1     2   511   501  2.834920133E+00 -5.982972950E+01  6.497494066E+00  6.024824258E+01  7.052516679E-07  0.00000E+00  9.000E+00
#rwgt            1           1   1.7997140903467317E-002           4      229755           0
</event>
<event>
      5   9999  3.19816E-02  4.28652E+02 -1.00000E+00  1.00789E-01
      21    -1     0     0   502   501  0.000000000E+00  0.000000000E+00  2.700346905E+03  2.700346905E+03  0.000000000E+00  0.00000E+00  9.000E+00
       2    -1     0     0   501     0  0.000000000E+00  0.000000000E+00 -4.887136186E+02  4.887136186E+02  0.000000000E+00  0.00000E+00  9.000E+00
      25     1     1     2     0     0  6.455391367E+02  8.426117440E+02  5.467548308E+02  1.200533703E+03  1.250000000E+02  0.00000E+00  9.000E+00
      25     1     1     2     0     0 -3.279268353E+02 -5.547489633E+02  9.432014042E+02  1.149145905E+03  1.250000000E+02  0.00000E+00  9.000E+00
       2     1     1     2   502     0 -3.176123015E+02 -2.878627807E+02  7.216770518E+02  8.393809157E+02  1.321449896E-05  0.00000E+00  9.000E+00
#rwgt            2          13   4.3734047943320915E-005           4      229989           0
</event>
<event>
      5   9999  3.19816E-02  5.88958E+01 -1.00000E+00  1.35136E-01
      21    -1     0     0   502   511  0.000000000E+00  0.000000000E+00  6.642107159E+01  6.642107159E+01  0.000000000E+00  0.00000E+00  9.000E+00
      21    -1     0     0   501   502  0.000000000E+00  0.000000000E+00 -2.700716118E+03  2.700716118E+03  0.000000000E+00  0.00000E+00  9.000E+00
      25     1     1     2     0     0 -2.128445533E+02  2.880925226E+01 -2.041389432E+03  2.056460209E+03  1.250000000E+02  0.00000E+00  9.000E+00
      25     1     1     2     0     0  1.951667882E+02  2.737094623E+01 -6.068286061E+02  6.501578278E+02  1.250000000E+02  0.00000E+00  9.000E+00
      21     1     1     2   501   511  1.767776503E+01 -5.618019849E+01  1.392299243E+01  6.051915232E+01  2.800784141E-06  0.00000E+00  9.000E+00
#rwgt            1           1   4.5634211003972011E-002           4      230008           0
</event>
<event>
      5   9999  3.19816E-02  7.34930E+01 -1.00000E+00  1.30159E-01
      21    -1     0     0   512   501  0.000000000E+00  0.000000000E+00  7.137245503E+02  7.137245503E+02  0.000000000E+00  0.00000E+00  9.000E+00
      21    -1     0     0   501   502  0.000000000E+00  0.000000000E+00 -2.527402899E+03  2.527402899E+03  0.000000000E+00  0.00000E+00  9.000E+00
      25     1     1     2     0     0  9.216874676E+02 -7.049029647E+02 -1.469090417E+02  1.176266655E+03  1.250000000E+02  0.00000E+00  9.000E+00
      25     1     1     2     0     0 -8.541431555E+02  7.338682906E+02 -1.622865579E+03  1.979252608E+03  1.250000000E+02  0.00000E+00  9.000E+00
      21     1     1     2   512   502 -6.754431207E+01 -2.896532588E+01 -4.390372770E+01  8.560818596E+01  1.168007728E-06  0.00000E+00  9.000E+00
#rwgt            1           1   4.7247889438280025E-002           4      230071           0
</event>
<event>
      5   9999  3.19816E-02  1.88034E+01 -1.00000E+00  1.68610E-01
      21    -1     0     0   511   501  0.000000000E+00  0.000000000E+00  7.442519493E+02  7.442519493E+02  0.000000000E+00  0.00000E+00  9.000E+00
      21    -1     0     0   501   502  0.000000000E+00  0.000000000E+00 -2.323219520E+02  2.323219520E+02  0.000000000E+00  0.00000E+00  9.000E+00
      25     1     1     2     0     0  2.046672013E+01  2.393651173E+02  5.705007101E+02  6.315145336E+02  1.250000000E+02  0.00000E+00  9.000E+00
      25     1     1     2     0     0 -2.882908766E+01 -2.225235064E+02 -1.180481762E+02  2.826803833E+02  1.250000000E+02  0.00000E+00  9.000E+00
      21     1     1     2   511   502  8.362367526E+00 -1.684161086E+01  5.947746341E+01  6.237898445E+01  1.348699152E-06  0.00000E+00  9.000E+00
#rwgt            1           1   3.0013088009296262E-002           4      230248           0
</event>
<event>
      5   9999  3.19816E-02  5.09220E+01 -1.00000E+00  1.38624E-01
      21    -1     0     0   502   501  0.000000000E+00  0.000000000E+00  3.001630332E+02  3.001630332E+02  0.000000000E+00  0.00000E+00  9.000E+00
      21    -1     0     0   512   502  0.000000000E+00  0.000000000E+00 -4.124697509E+02  4.124697509E+02  0.000000000E+00  0.00000E+00  9.000E+00
      25     1     1     2     0     0 -1.517100533E+02 -1.816513106E+02 -2.469875124E+02  3.641990804E+02  1.250000000E+02  0.00000E+00  9.000E+00
      25     1     1     2     0     0  1.531253900E+02  1.307489858E+02  1.653602523E+02  2.889839016E+02  1.250000000E+02  0.00000E+00  9.000E+00
      21     1     1     2   512   501 -1.415336721E+00  5.090232474E+01 -3.067945762E+01  5.944980204E+01  8.920806376E-07  0.00000E+00  9.000E+00
#rwgt            1           1   2.8230358856430403E-002           4      230366           0
</event>
<event>
      5   9999  3.19816E-02  7.34819E+01 -1.00000E+00  1.30162E-01
      21    -1     0     0   502   501  0.000000000E+00  0.000000000E+00  1.941960789E+02  1.941960789E+02  0.000000000E+00  0.00000E+00  9.000E+00
      21    -1     0     0   511   502  0.000000000E+00  0.000000000E+00 -1.001886285E+03  1.001886285E+03  0.000000000E+00  0.00000E+00  9.000E+00
      25     1     1     2     0     0 -3.144075774E+02  1.139166235E+02 -5.050409728E+02  6.184824217E+02  1.250000000E+02  0.00000E+00  9.000E+00
      25     1     1     2     0     0  3.074043275E+02 -4.076920449E+01 -8.089661226E+01  3.439895500E+02  1.250000000E+02  0.00000E+00  9.000E+00
      21     1     1     2   511   501  7.003249861E+00 -7.314741898E+01 -2.217526210E+02  2.336103922E+02  2.697398305E-06  0.00000E+00  9.000E+00
#rwgt            1           1   2.7592833750637497E-002           4      230476           0
</event>
<event>
      5   9999  3.19816E-02  6.73829E+01 -1.00000E+00  1.32064E-01
      21    -1     0     0   502   501  0.000000000E+00  0.000000000E+00  4.866352008E+02  4.866352008E+02  0.000000000E+00  0.00000E+00  9.000E+00
      21    -1     0     0   501   512  0.000000000E+00  0.000000000E+00 -2.171333176E+02  2.171333176E+02  0.000000000E+00  0.00000E+00  9.000E+00
      25     1     1     2     0     0  1.700785637E+02  4.844091878E+00  3.715007593E+02  4.273031678E+02  1.250000000E+02  0.00000E+00  9.000E+00
      25     1     1     2     0     0 -1.318173285E+02  5.062245019E+01 -8.568275210E+01  2.071351601E+02  1.250000000E+02  0.00000E+00  9.000E+00
      21     1     1     2   502   512 -3.826123519E+01 -5.546654207E+01 -1.631612406E+01  6.933019047E+01  1.283923342E-06  0.00000E+00  9.000E+00
#rwgt            1           1   2.6939645306578761E-002           4      230551           0
</event>
<event>
      5   9999  3.19816E-02  1.22965E+02 -1.00000E+00  1.19920E-01
      -2    -1     0     0     0   501  0.000000000E+00  0.000000000E+00  1.699431353E+03  1.699431353E+03  0.000000000E+00  0.00000E+00  9.000E+00
      21    -1     0     0   501   502  0.000000000E+00  0.000000000E+00 -2.731932500E+02  2.731932500E+02  0.000000000E+00  0.00000E+00  9.000E+00
      25     1     1     2     0     0  2.744571230E+02 -1.308422466E+02 -7.627051626E+01  3.374738472E+02  1.250000000E+02  0.00000E+00  9.000E+00
      25     1     1     2     0     0 -2.199193812E+02  2.410512845E+02  4.229795012E+02  5.486409704E+02  1.250000000E+02  0.00000E+00  9.000E+00
      -2     1     1     2     0   502 -5.453774185E+01 -1.102090379E+02  1.079529118E+03  1.086509786E+03  0.000000000E+00  0.00000E+00  9.000E+00
#rwgt            1           1   2.2997999419821304E-002           4      230617           0
</event>
<event>
      5   9999  3.19816E-02  4.30805E+02 -1.00000E+00  1.00725E-01
      21    -1     0     0   502   501  0.000000000E+00  0.000000000E+00  3.747593077E+02  3.747593077E+02  0.000000000E+00  0.00000E+00  9.000E+00
      21    -1     0     0   501   511  0.000000000E+00  0.000000000E+00 -8.908231877E+02  8.908231877E+02  0.000000000E+00  0.00000E+00  9.000E+00
      25     1     1     2     0     0  1.725546064E+02 -1.052501627E+02  1.229796617E+02  2.675849139E+02  1.250000000E+02  0.00000E+00  9.000E+00
      25     1     1     2     0     0 -4.156906537E+01 -3.051592292E+02 -3.251119202E+02  4.649439784E+02  1.250000000E+02  0.00000E+00  9.000E+00
      21     1     1     2   502   511 -1.309855411E+02  4.104093919E+02 -3.139316215E+02  5.330536032E+02  3.814697266E-06  0.00000E+00  9.000E+00
#rwgt            1           1   2.6819369312869153E-002           4      230692           0
</event>
<event>
      5   9999  3.19816E-02  5.55347E+02 -1.00000E+00  9.75738E-02
      21    -1     0     0   502   501  0.000000000E+00  0.000000000E+00  1.406406472E+03  1.406406472E+03  0.000000000E+00  0.00000E+00  9.000E+00
      21    -1     0     0   512   502  0.000000000E+00  0.000000000E+00 -9.922461142E+02  9.922461142E+02  0.000000000E+00  0.00000E+00  9.000E+00
      25     1     1     2     0     0 -6.081457692E+02 -1.924342750E+02  1.484176944E+02  6.667271097E+02  1.250000000E+02  0.00000E+00  9.000E+00
      25     1     1     2     0     0  1.913672180E+02  5.594569454E+02  7.720248962E+02  9.804391496E+02  1.250000000E+02  0.00000E+00  9.000E+00
      21     1     1     2   512   501  4.167785511E+02 -3.670226703E+02 -5.062822324E+02  7.514863273E+02  1.206313194E-05  0.00000E+00  9.000E+00
#rwgt            2          11   2.2596374348663566E-003           4      230934           0
</event>
<event>
      5   9999  3.19816E-02  1.19747E+02 -1.00000E+00  1.20407E-01
      21    -1     0     0   502   511  0.000000000E+00  0.000000000E+00  1.092507380E+02  1.092507380E+02  0.000000000E+00  0.00000E+00  9.000E+00
      21    -1     0     0   501   502  0.000000000E+00  0.000000000E+00 -6.253085193E+02  6.253085193E+02  0.000000000E+00  0.00000E+00  9.000E+00
      25     1     1     2     0     0  7.830001604E+01 -1.235327906E+02 -2.297535056E+02  2.996713470E+02  1.250000000E+02  0.00000E+00  9.000E+00
      25     1     1     2     0     0 -6.855557573E+01  4.182634796E+00 -2.808805556E+02  3.150178533E+02  1.250000000E+02  0.00000E+00  9.000E+00
      21     1     1     2   501   511 -9.744440318E+00  1.193501559E+02 -5.423720160E+00  1.198700570E+02  3.369112673E-06  0.00000E+00  9.000E+00
#rwgt            1           1   2.2664741082969422E-002           4      230969           0
</event>
<event>
      5   9999  3.19816E-02  1.45263E+02 -1.00000E+00  1.16949E-01
      21    -1     0     0   512   501  0.000000000E+00  0.000000000E+00  8.068336208E+02  8.068336208E+02  0.000000000E+00  0.00000E+00  9.000E+00
      21    -1     0     0   501   502  0.000000000E+00  0.000000000E+00 -2.405848419E+02  2.405848419E+02  0.000000000E+00  0.00000E+00  9.000E+00
      25     1     1     2     0     0 -1.201808088E+02 -1.774934613E+02 -1.399006284E+01  2.485318439E+02  1.250000000E+02  0.00000E+00  9.000E+00
      25     1     1     2     0     0 -7.929999723E-01  2.579089875E+02  1.104486023E+02  3.071507259E+02  1.250000000E+02  0.00000E+00  9.000E+00
      21     1     1     2   512   502  1.209738088E+02 -8.041552620E+01  4.697902394E+02  4.917358929E+02  5.394796609E-06  0.00000E+00  9.000E+00
#rwgt            1           1   2.9195485162079617E-002           4      231007           0
</event>
<event>
      5   9999  3.19816E-02  1.27932E+01 -1.00000E+00  1.84152E-01
       2    -1     0     0   502     0  0.000000000E+00  0.000000000E+00  6.669607750E+02  6.669607750E+02  0.000000000E+00  0.00000E+00  9.000E+00
      21    -1     0     0   501   502  0.000000000E+00  0.000000000E+00 -7.134586575E+01  7.134586575E+01  0.000000000E+00  0.00000E+00  9.000E+00
      25     1     1     2     0     0  9.268425051E+01  2.666760961E+01  3.001901524E+02  3.391764427E+02  1.250000000E+02  0.00000E+00  9.000E+00
      25     1     1     2     0     0 -9.813325530E+01 -1.509292406E+01  7.162640924E+01  1.749664958E+02  1.250000000E+02  0.00000E+00  9.000E+00
       2     1     1     2   501     0  5.449004793E+00 -1.157468554E+01  2.237983476E+02  2.241637023E+02  2.697398305E-06  0.00000E+00  9.000E+00
#rwgt            1           1   2.7252481999160347E-002           4      231060           0
</event>
<event>
      5   9999  3.19816E-02  6.10925E+01 -1.00000E+00  1.34286E-01
      21    -1     0     0   502   501  0.000000000E+00  0.000000000E+00  1.080638076E+03  1.080638076E+03  0.000000000E+00  0.00000E+00  9.000E+00
      21    -1     0     0   501   511  0.000000000E+00  0.000000000E+00 -1.341331256E+03  1.341331256E+03  0.000000000E+00  0.00000E+00  9.000E+00
      25     1     1     2     0     0 -3.595600648E+02 -3.454314681E+02  9.551806086E+02  1.084712558E+03  1.250000000E+02  0.00000E+00  9.000E+00
      25     1     1     2     0     0  2.989674756E+02  3.532305475E+02 -9.455393665E+02  1.060105214E+03  1.250000000E+02  0.00000E+00  9.000E+00
      21     1     1     2   502   511  6.059258915E+01 -7.799079411E+00 -2.703344214E+02  2.771515594E+02  3.814697266E-06  0.00000E+00  9.000E+00
#rwgt            1           1   2.1781073451211955E-002           4      231221           0
</event>
<event>
      5   9999  3.19816E-02  1.73525E+02 -1.00000E+00  1.13940E-01
      21    -1     0     0   502   501  0.000000000E+00  0.000000000E+00  1.254018610E+03  1.254018610E+03  0.000000000E+00  0.00000E+00  9.000E+00
      21    -1     0     0   512   502  0.000000000E+00  0.000000000E+00 -5.987884343E+02  5.987884343E+02  0.000000000E+00  0.00000E+00  9.000E+00
      25     1     1     2     0     0 -2.368473498E+02  5.580323911E+02  4.294206249E+02  7.533418147E+02  1.250000000E+02  0.00000E+00  9.000E+00
      25     1     1     2     0     0  4.086763382E+02 -5.822353105E+02  4.228379980E+02  8.369177252E+02  1.250000000E+02  0.00000E+00  9.000E+00
      21     1     1     2   512   501 -1.718289884E+02  2.420291936E+01 -1.970284478E+02  2.625475039E+02  2.697398305E-06  0.00000E+00  9.000E+00
#rwgt            1           1   2.8968811544797642E-002           4      231333           0
</event>
<event>
      5   9999  3.19816E-02  8.74561E+00 -1.00000E+00  2.02736E-01
      21    -1     0     0   502   501  0.000000000E+00  0.000000000E+00  5.019231140E+02  5.019231140E+02  0.000000000E+00  0.00000E+00  9.000E+00
      21    -1     0     0   511   502  0.000000000E+00  0.000000000E+00 -8.838396318E+01  8.838396318E+01  0.000000000E+00  0.00000E+00  9.000E+00
      25     1     1     2     0     0  4.013935213E+00 -5.241080470E+01  2.741351446E+02  3.058399608E+02  1.250000000E+02  0.00000E+00  9.000E+00
      25     1     1     2     0     0 -7.442147724E+00  4.436512242E+01  1.907107163E+02  2.324203669E+02  1.250000000E+02  0.00000E+00  9.000E+00
      21     1     1     2   511   501  3.428212510E+00  8.045682277E+00 -5.130671000E+01  5.204674951E+01  0.000000000E+00  0.00000E+00  9.000E+00
#rwgt            1           1   8.1141862951286045E-003           4      231406           0
</event>
<event>
      5   9999  3.19816E-02  1.93391E+01 -1.00000E+00  1.67582E-01
      21    -1     0     0   512   501  0.000000000E+00  0.000000000E+00  2.099369590E+02  2.099369590E+02  0.000000000E+00  0.00000E+00  9.000E+00
      21    -1     0     0   501   502  0.000000000E+00  0.000000000E+00 -1.819129405E+03  1.819129405E+03  0.000000000E+00  0.00000E+00  9.000E+00
      25     1     1     2     0     0 -5.360339167E+02  3.925141517E+01 -6.304385942E+02  8.378250740E+02  1.250000000E+02  0.00000E+00  9.000E+00
      25     1     1     2     0     0  5.528041152E+02 -4.888263052E+01 -1.007258287E+03  1.156795642E+03  1.250000000E+02  0.00000E+00  9.000E+00
      21     1     1     2   512   502 -1.677019843E+01  9.631215357E+00  2.850443485E+01  3.444564807E+01  1.066240300E-06  0.00000E+00  9.000E+00
#rwgt            1           1   2.4802436591529493E-002           4      231540           0
</event>
<event>
      5   9999  3.19816E-02  3.79814E+01 -1.00000E+00  1.46249E-01
      21    -1     0     0   502   501  0.000000000E+00  0.000000000E+00  7.085112105E+02  7.085112105E+02  0.000000000E+00  0.00000E+00  9.000E+00
       2    -1     0     0   501     0  0.000000000E+00  0.000000000E+00 -1.093214421E+03  1.093214421E+03  0.000000000E+00  0.00000E+00  9.000E+00
      25     1     1     2     0     0 -3.920062119E+01  3.823431765E+02  3.535920238E+02  5.370058776E+02  1.250000000E+02  0.00000E+00  9.000E+00
      25     1     1     2     0     0  1.370520955E+01 -4.104958521E+02  8.741735922E+01  4.381340800E+02  1.250000000E+02  0.00000E+00  9.000E+00
       2     1     1     2   502     0  2.549541164E+01  2.815267559E+01 -8.257125936E+02  8.265856740E+02  0.000000000E+00  0.00000E+00  9.000E+00
#rwgt            1           1   2.8256658150030148E-002           4      231740           0
</event>
<event>
      5   9999  3.19816E-02  9.17333E+01 -1.00000E+00  1.25537E-01
       2    -1     0     0   502     0  0.000000000E+00  0.000000000E+00  2.020665242E+02  2.020665242E+02  0.000000000E+00  0.00000E+00  9.000E+00
      21    -1     0     0   501   502  0.000000000E+00  0.000000000E+00 -1.121145996E+03  1.121145996E+03  0.000000000E+00  0.00000E+00  9.000E+00
      25     1     1     2     0     0 -2.800746213E+02  7.522218769E+01 -7.242499076E+02  7.901032209E+02  1.250000000E+02  0.00000E+00  9.000E+00
      25     1     1     2     0     0  2.400795908E+02  7.333194556E+00 -2.928592625E+02  3.988527714E+02  1.250000000E+02  0.00000E+00  9.000E+00
       2     1     1     2   501     0  3.999503054E+01 -8.255538224E+01  9.802969809E+01  1.342565280E+02  1.907348633E-06  0.00000E+00  9.000E+00
#rwgt            1           1   2.8927104880559027E-002           4      231856           0
</event>
<event>
      5   9999  3.48799E-02  1.13281E+02 -1.00000E+00  1.21440E-01
      21    -1     0     0   511   501  0.000000000E+00  0.000000000E+00  5.510605474E+01  5.510605474E+01  0.000000000E+00  0.00000E+00  9.000E+00
      21    -1     0     0   501   502  0.000000000E+00  0.000000000E+00 -2.502134705E+03  2.502134705E+03  0.000000000E+00  0.00000E+00  9.000E+00
      25     1     1     2     0     0 -1.129696455E+02  1.708235244E+02 -3.537802057E+02  4.274672517E+02  1.250000000E+02  0.00000E+00  9.000E+00
      25     1     1     2     0     0  1.894803306E+02 -8.728497289E+01 -1.782630641E+03  1.799143814E+03  1.250000000E+02  0.00000E+00  9.000E+00
      21     1     1     2   511   502 -7.651068512E+01 -8.353855155E+01 -3.106178038E+02  3.306296941E+02  5.394796609E-06  0.00000E+00  9.000E+00
#rwgt            1           1  0.10612970557966733                4      231981           0
</event>
<event>
      5   9999  3.19816E-02  2.74334E+01 -1.00000E+00  1.55787E-01
      21    -1     0     0   502   512  0.000000000E+00  0.000000000E+00  1.218243808E+02  1.218243808E+02  0.000000000E+00  0.00000E+00  9.000E+00
      21    -1     0     0   501   502  0.000000000E+00  0.000000000E+00 -3.530034157E+02  3.530034157E+02  0.000000000E+00  0.00000E+00  9.000E+00
      25     1     1     2     0     0 -1.225867582E+02 -8.222403129E+01 -7.174240843E+01  2.063014246E+02  1.250000000E+02  0.00000E+00  9.000E+00
      25     1     1     2     0     0  1.014578606E+02  6.472651969E+01 -1.661994306E+02  2.402716599E+02  1.250000000E+02  0.00000E+00  9.000E+00
      21     1     1     2   501   512  2.112889768E+01  1.749751159E+01  6.762804125E+00  2.825471197E+01  2.230201594E-07  0.00000E+00  9.000E+00
#rwgt            1           1   2.3900364820637870E-002           4      232026           0
</event>
<event>
      5   9999  3.19816E-02  1.01068E+02 -1.00000E+00  1.23621E-01
      21    -1     0     0   511   501  0.000000000E+00  0.000000000E+00  4.219973590E+01  4.219973590E+01  0.000000000E+00  0.00000E+00  9.000E+00
      21    -1     0     0   501   502  0.000000000E+00  0.000000000E+00 -1.576620944E+03  1.576620944E+03  0.000000000E+00  0.00000E+00  9.000E+00
      25     1     1     2     0     0 -1.677628666E+01  6.778513094E+01 -7.129994791E+02  7.272341610E+02  1.250000000E+02  0.00000E+00  9.000E+00
      25     1     1     2     0     0  5.972222166E+01 -1.592746563E+02 -7.119890935E+02  7.426228041E+02  1.250000000E+02  0.00000E+00  9.000E+00
      21     1     1     2   511   502 -4.294593500E+01  9.148952537E+01 -1.094326352E+02  1.489637145E+02  1.907348633E-06  0.00000E+00  9.000E+00
#rwgt            1           1   2.8962169630217274E-002           4      232138           0
</event>
<event>
      5   9999  3.19816E-02  2.33289E+02 -1.00000E+00  1.09267E-01
      21    -1     0     0   512   501  0.000000000E+00  0.000000000E+00  1.145723490E+03  1.145723490E+03  0.000000000E+00  0.00000E+00  9.000E+00
      21    -1     0     0   501   502  0.000000000E+00  0.000000000E+00 -2.662771692E+02  2.662771692E+02  0.000000000E+00  0.00000E+00  9.000E+00
      25     1     1     2     0     0  1.025727976E+02 -1.070353583E+01  2.031077431E+02  2.598336002E+02  1.250000000E+02  0.00000E+00  9.000E+00
      25     1     1     2     0     0 -1.659060287E+01  2.275691878E+02 -1.453399853E+02  2.980129103E+02  1.250000000E+02  0.00000E+00  9.000E+00
      21     1     1     2   512   502 -8.598219476E+01 -2.168656520E+02  8.216785633E+02  8.541541490E+02  1.078959322E-05  0.00000E+00  9.000E+00
#rwgt            1           1   2.8687803892997660E-002           4      232179           0
</event>
<event>
      5   9999  3.19816E-02  3.22446E+01 -1.00000E+00  1.50895E-01
      21    -1     0     0   511   501  0.000000000E+00  0.000000000E+00  6.930011839E+02  6.930011839E+02  0.000000000E+00  0.00000E+00  9.000E+00
      21    -1     0     0   501   502  0.000000000E+00  0.000000000E+00 -1.463241677E+02  1.463241677E+02  0.000000000E+00  0.00000E+00  9.000E+00
      25     1     1     2     0     0  2.218086775E+02 -1.371528285E+02  1.903755462E+02  3.462337886E+02  1.250000000E+02  0.00000E+00  9.000E+00
      25     1     1     2     0     0 -2.492692915E+02  1.202522513E+02  2.926573967E+02  4.217453444E+02  1.250000000E+02  0.00000E+00  9.000E+00
      21     1     1     2   511   502  2.746061401E+01  1.690057719E+01  6.364407338E+01  7.134621859E+01  1.168007728E-06  0.00000E+00  9.000E+00
#rwgt            1           1   2.7832257849997925E-002           4      232209           0
</event>
<event>
      5   9999  3.19816E-02  1.16493E+01 -1.00000E+00  1.88393E-01
      21    -1     0     0   502   501  0.000000000E+00  0.000000000E+00  6.061885801E+01  6.061885801E+01  0.000000000E+00  0.00000E+00  9.000E+00
      21    -1     0     0   512   502  0.000000000E+00  0.000000000E+00 -3.572715291E+03  3.572715291E+03  0.000000000E+00  0.00000E+00  9.000E+00
      25     1     1     2     0     0  4.720183410E+01  2.416572703E+01 -1.828428686E+02  2.277465918E+02  1.250000000E+02  0.00000E+00  9.000E+00
      25     1     1     2     0     0 -5.878751359E+01 -2.538123989E+01 -9.108207078E+01  1.673951096E+02  1.250000000E+02  0.00000E+00  9.000E+00
      21     1     1     2   512   501  1.158567949E+01  1.215512857E+00 -3.238171493E+03  3.238192447E+03  4.315837288E-05  0.00000E+00  9.000E+00
#rwgt            1           1   2.4461316542064824E-002           4      232317           0
</event>
<event>
      5   9999  3.19816E-02  3.41503E+02 -1.00000E+00  1.03795E-01
      21    -1     0     0   511   501  0.000000000E+00  0.000000000E+00  1.388724483E+03  1.388724483E+03  0.000000000E+00  0.00000E+00  9.000E+00
      21    -1     0     0   501   502  0.000000000E+00  0.000000000E+00 -3.400255226E+02  3.400255226E+02  0.000000000E+00  0.00000E+00  9.000E+00
      25     1     1     2     0     0 -1.571424782E+02  6.683751038E+01 -1.995366322E+02  2.908623022E+02  1.250000000E+02  0.00000E+00  9.000E+00
      25     1     1     2     0     0 -1.250863337E+02 -2.591156498E+02  8.867225393E+02  9.405792750E+02  1.250000000E+02  0.00000E+00  9.000E+00
      21     1     1     2   511   502  2.822288119E+02  1.922781394E+02  3.615130535E+02  4.973084284E+02  6.607249480E-06  0.00000E+00  9.000E+00
#rwgt            2          11   3.0438694285171600E-003           4      232615           0
</event>
<event>
      5   9999  3.19816E-02  1.31623E+01 -1.00000E+00  1.82903E-01
       2    -1     0     0   502     0  0.000000000E+00  0.000000000E+00  1.352532883E+03  1.352532883E+03  0.000000000E+00  0.00000E+00  9.000E+00
      21    -1     0     0   501   502  0.000000000E+00  0.000000000E+00 -6.030478881E+02  6.030478881E+02  0.000000000E+00  0.00000E+00  9.000E+00
      25     1     1     2     0     0 -8.753519000E+01  4.977014500E+02 -4.873674868E+01  5.228474093E+02  1.250000000E+02  0.00000E+00  9.000E+00
      25     1     1     2     0     0  7.451512325E+01 -4.996315311E+02 -1.037757979E+02  5.306397900E+02  1.250000000E+02  0.00000E+00  9.000E+00
       2     1     1     2   501     0  1.302006674E+01  1.930081140E+00  9.019975411E+02  9.020935714E+02  1.078959322E-05  0.00000E+00  9.000E+00
#rwgt            1           1   3.0934530648859263E-002           4      232635           0
</event>
<event>
      5   9999  3.52419E-02  2.73875E+01 -1.00000E+00  1.55840E-01
      21    -1     0     0   502   501  0.000000000E+00  0.000000000E+00  1.537546360E+03  1.537546360E+03  0.000000000E+00  0.00000E+00  9.000E+00
      21    -1     0     0   501   511  0.000000000E+00  0.000000000E+00 -9.759564791E+02  9.759564791E+02  0.000000000E+00  0.00000E+00  9.000E+00
      25     1     1     2     0     0 -3.085813263E+02 -3.572150967E+02 -8.441431839E+02  9.752065295E+02  1.250000000E+02  0.00000E+00  9.000E+00
      25     1     1     2     0     0  3.219620027E+02  3.811113772E+02  1.417920204E+03  1.508319634E+03  1.250000000E+02  0.00000E+00  9.000E+00
      21     1     1     2   502   511 -1.338067635E+01 -2.389628048E+01 -1.218713925E+01  2.997667565E+01  4.460403188E-07  0.00000E+00  9.000E+00
#rwgt            1           1   8.0946831963272889E-002           4      233032           0
</event>
<event>
      5   9999  3.19816E-02  2.49746E+01 -1.00000E+00  1.58784E-01
      21    -1     0     0   512   501  0.000000000E+00  0.000000000E+00  4.839807124E+02  4.839807124E+02  0.000000000E+00  0.00000E+00  9.000E+00
      21    -1     0     0   501   502  0.000000000E+00  0.000000000E+00 -1.942244863E+02  1.942244863E+02  0.000000000E+00  0.00000E+00  9.000E+00
      25     1     1     2     0     0  1.860638525E+02 -8.891836696E+00 -5.921066204E+01  2.320123369E+02  1.250000000E+02  0.00000E+00  9.000E+00
      25     1     1     2     0     0 -1.629991814E+02  1.847058925E+01  1.751120924E+02  2.705533971E+02  1.250000000E+02  0.00000E+00  9.000E+00
      21     1     1     2   512   502 -2.306467108E+01 -9.578752554E+00  1.738547957E+02  1.756394647E+02  1.907348633E-06  0.00000E+00  9.000E+00
#rwgt            1           1   2.7517686284756235E-002           4      233235           0
</event>
<event>
      5   9999  3.19816E-02  1.90118E+02 -1.00000E+00  1.12455E-01
      21    -1     0     0   511   501  0.000000000E+00  0.000000000E+00  7.054070848E+02  7.054070848E+02  0.000000000E+00  0.00000E+00  9.000E+00
      21    -1     0     0   501   502  0.000000000E+00  0.000000000E+00 -3.978582972E+02  3.978582972E+02  0.000000000E+00  0.00000E+00  9.000E+00
      25     1     1     2     0     0 -2.190489037E+02  4.641349143E+00 -5.915610605E+01  2.590915074E+02  1.250000000E+02  0.00000E+00  9.000E+00
      25     1     1     2     0     0  3.888643871E+02 -9.012495923E+01 -1.412684919E+01  4.185242976E+02  1.250000000E+02  0.00000E+00  9.000E+00
      21     1     1     2   511   502 -1.698154833E+02  8.548361008E+01  3.808317429E+02  4.256495770E+02  5.394796609E-06  0.00000E+00  9.000E+00
#rwgt            2          11   2.8144640216881808E-003           4      233453           0
</event>
<event>
      5   9999  3.19816E-02  7.06587E+01 -1.00000E+00  1.31015E-01
      21    -1     0     0   502   501  0.000000000E+00  0.000000000E+00  1.394911584E+03  1.394911584E+03  0.000000000E+00  0.00000E+00  9.000E+00
      21    -1     0     0   512   502  0.000000000E+00  0.000000000E+00 -7.210985490E+02  7.210985490E+02  0.000000000E+00  0.00000E+00  9.000E+00
      25     1     1     2     0     0 -5.591118856E+02 -3.347201165E+02  1.033382641E+03  1.228066912E+03  1.250000000E+02  0.00000E+00  9.000E+00
      25     1     1     2     0     0  6.279528625E+02  3.506441491E+02 -3.666972005E+02  8.169259169E+02  1.250000000E+02  0.00000E+00  9.000E+00
      21     1     1     2   512   501 -6.884097693E+01 -1.592403263E+01  7.127594576E+00  7.101730440E+01  1.092571186E-06  0.00000E+00  9.000E+00
#rwgt            1           1   3.8889525606998578E-002           4      233503           0
</event>
<event>
      5   9999  3.19816E-02  8.75854E+01 -1.00000E+00  1.26474E-01
      21    -1     0     0   511   501  0.000000000E+00  0.000000000E+00  3.740800456E+02  3.740800456E+02  0.000000000E+00  0.00000E+00  9.000E+00
      21    -1     0     0   501   502  0.000000000E+00  0.000000000E+00 -6.034557763E+02  6.034557763E+02  0.000000000E+00  0.00000E+00  9.000E+00
      25     1     1     2     0     0 -4.057910706E+02 -1.408627878E+02 -1.803714739E+02  4.823562859E+02  1.250000000E+02  0.00000E+00  9.000E+00
      25     1     1     2     0     0  3.801428851E+02  5.711690532E+01 -5.193365521E+01  4.075451613E+02  1.250000000E+02  0.00000E+00  9.000E+00
      21     1     1     2   511   502  2.564818544E+01  8.374588250E+01  2.929398376E+00  8.763437469E+01  1.537060375E-06  0.00000E+00  9.000E+00
#rwgt            2          11   4.9761303004499944E-003           4      233642           0
</event>
<event>
      5   9999  3.19816E-02  2.99008E+01 -1.00000E+00  1.53140E-01
      21    -1     0     0   502   501  0.000000000E+00  0.000000000E+00  1.404244097E+02  1.404244097E+02  0.000000000E+00  0.00000E+00  9.000E+00
      21    -1     0     0   512   502  0.000000000E+00  0.000000000E+00 -6.505301035E+02  6.505301035E+02  0.000000000E+00  0.00000E+00  9.000E+00
      25     1     1     2     0     0  1.697660570E+02  1.638892646E+02 -1.224495396E+02  2.937670760E+02  1.250000000E+02  0.00000E+00  9.000E+00
      25     1     1     2     0     0 -1.476725186E+02 -1.437415389E+02 -2.182307049E+02  3.251437271E+02  1.250000000E+02  0.00000E+00  9.000E+00
      21     1     1     2   512   501 -2.209353848E+01 -2.014772576E+01 -1.694254493E+02  1.720437101E+02  2.697398305E-06  0.00000E+00  9.000E+00
#rwgt            1           1   3.0838323285347909E-002           4      233662           0
</event>
<event>
      5   9999  3.19816E-02  2.86844E+01 -1.00000E+00  1.54405E-01
      21    -1     0     0   502   501  0.000000000E+00  0.000000000E+00  2.264523629E+03  2.264523629E+03  0.000000000E+00  0.00000E+00  9.000E+00
      21    -1     0     0   501   511  0.000000000E+00  0.000000000E+00 -3.955296790E+02  3.955296790E+02  0.000000000E+00  0.00000E+00  9.000E+00
      25     1     1     2     0     0  1.195778134E+02  7.683311260E+01  6.177838593E+02  6.461300778E+02  1.250000000E+02  0.00000E+00  9.000E+00
      25     1     1     2     0     0 -1.201986135E+02 -1.055107706E+02  1.625706192E+03  1.638330202E+03  1.250000000E+02  0.00000E+00  9.000E+00
      21     1     1     2   502   511  6.208001126E-01  2.867765796E+01 -3.744961008E+02  3.755930284E+02  5.394796609E-06  0.00000E+00  9.000E+00
#rwgt            1           1   6.7937104779917420E-002           4      233775           0
</event>
<event>
      5   9999  3.19816E-02  5.73957E+01 -1.00000E+00  1.35741E-01
      21    -1     0     0   512   501  0.000000000E+00  0.000000000E+00  1.741167198E+02  1.741167198E+02  0.000000000E+00  0.00000E+00  9.000E+00
      21    -1     0     0   501   502  0.000000000E+00  0.000000000E+00 -3.390226784E+02  3.390226784E+02  0.000000000E+00  0.00000E+00  9.000E+00
      25     1     1     2     0     0 -4.265008386E+01 -9.334841926E+01  6.020172287E+01  1.725752139E+02  1.250000000E+02  0.00000E+00  9.000E+00
      25     1     1     2     0     0  1.000082225E+02  9.127252374E+01 -2.134621941E+02  2.819989831E+02  1.250000000E+02  0.00000E+00  9.000E+00
      21     1     1     2   512   502 -5.735813865E+01  2.075895524E+00 -1.164548749E+01  5.856520119E+01  1.563415176E-06  0.00000E+00  9.000E+00
#rwgt            1           1   3.0210693594587036E-002           4      233828           0
</event>
<event>
      5   9999  3.19816E-02  1.20042E+02 -1.00000E+00  1.20362E-01
      21    -1     0     0   502   501  0.000000000E+00  0.000000000E+00  7.672447659E+02  7.672447659E+02  0.000000000E+00  0.00000E+00  9.000E+00
      21    -1     0     0   501   511  0.000000000E+00  0.000000000E+00 -5.589076755E+02  5.589076755E+02  0.000000000E+00  0.00000E+00  9.000E+00
      25     1     1     2     0     0 -6.064309137E+02  9.123209875E+00  9.019761696E+01  6.257813485E+02  1.250000000E+02  0.00000E+00  9.000E+00
      25     1     1     2     0     0  5.432705531E+02 -1.112057677E+02  1.167833851E+02  5.803214417E+02  1.250000000E+02  0.00000E+00  9.000E+00
      21     1     1     2   502   511  6.316036062E+01  1.020825578E+02  1.356088262E+00  1.200496512E+02  2.102806758E-06  0.00000E+00  9.000E+00
#rwgt            1           1   3.1456828295049470E-002           4      233935           0
</event>
<event>
      5   9999  3.19816E-02  1.85787E+02 -1.00000E+00  1.12826E-01
      21    -1     0     0   502   501  0.000000000E+00  0.000000000E+00  1.290220082E+02  1.290220082E+02  0.000000000E+00  0.00000E+00  9.000E+00
       1    -1     0     0   501     0  0.000000000E+00  0.000000000E+00 -7.750798624E+02  7.750798624E+02  0.000000000E+00  0.00000E+00  9.000E+00
      25     1     1     2     0     0  1.756606081E+02 -4.409640743E+01 -1.669864195E+02  2.762437450E+02  1.250000000E+02  0.00000E+00  9.000E+00
      25     1     1     2     0     0 -1.215436717E+02 -1.336339236E+02 -2.728563996E+02  3.502948822E+02  1.250000000E+02  0.00000E+00  9.000E+00
       1     1     1     2   502     0 -5.411693638E+01  1.777303310E+02 -2.062150352E+02  2.775632434E+02  3.814697266E-06  0.00000E+00  9.000E+00
#rwgt            2          12   2.1340633467125305E-004           4      234102           0
</event>
<event>
      5   9999  3.19816E-02  3.15584E+02 -1.00000E+00  1.04882E-01
      21    -1     0     0   502   501  0.000000000E+00  0.000000000E+00  1.936149670E+02  1.936149670E+02  0.000000000E+00  0.00000E+00  9.000E+00
       2    -1     0     0   501     0  0.000000000E+00  0.000000000E+00 -8.388645812E+02  8.388645812E+02  0.000000000E+00  0.00000E+00  9.000E+00
      25     1     1     2     0     0  2.491596133E+02  1.309322470E+02 -2.494329382E+02  3.963149718E+02  1.250000000E+02  0.00000E+00  9.000E+00
      25     1     1     2     0     0 -5.404392474E+01  1.171066741E+02 -1.767940669E+02  2.520235326E+02  1.250000000E+02  0.00000E+00  9.000E+00
       2     1     1     2   502     0 -1.951156885E+02 -2.480389211E+02 -2.190226091E+02  3.841410439E+02  4.672030912E-06  0.00000E+00  9.000E+00
#rwgt            1           1   2.3821316256660785E-002           4      234121           0
</event>
<event>
      5   9999  3.19816E-02  5.84337E+01 -1.00000E+00  1.35320E-01
      21    -1     0     0   502   511  0.000000000E+00  0.000000000E+00  1.114079501E+03  1.114079501E+03  0.000000000E+00  0.00000E+00  9.000E+00
      21    -1     0     0   501   502  0.000000000E+00  0.000000000E+00 -3.385037198E+02  3.385037198E+02  0.000000000E+00  0.00000E+00  9.000E+00
      25     1     1     2     0     0  5.399860474E+02  1.532602299E+02  2.321043045E+02  6.201379182E+02  1.250000000E+02  0.00000E+00  9.000E+00
      25     1     1     2     0     0 -5.052671840E+02 -1.062591418E+02  3.647185683E+02  6.443838658E+02  1.250000000E+02  0.00000E+00  9.000E+00
      21     1     1     2   501   511 -3.471886339E+01 -4.700108810E+01  1.787529081E+02  1.880614366E+02  0.000000000E+00  0.00000E+00  9.000E+00
#rwgt            1           1   2.8680801500768502E-002           4      234173           0
</event>
<event>
      5   9999  3.19816E-02  1.16761E+02 -1.00000E+00  1.20875E-01
      21    -1     0     0   512   501  0.000000000E+00  0.000000000E+00  6.832243306E+02  6.832243306E+02  0.000000000E+00  0.00000E+00  9.000E+00
      21    -1     0     0   501   502  0.000000000E+00  0.000000000E+00 -9.067660539E+02  9.067660539E+02  0.000000000E+00  0.00000E+00  9.000E+00
      25     1     1     2     0     0 -2.350381151E+02  3.068319819E+02 -6.978186988E+02  8.074433212E+02  1.250000000E+02  0.00000E+00  9.000E+00
      25     1     1     2     0     0  3.025813216E+02 -2.115893343E+02  1.174735401E+02  4.071247170E+02  1.250000000E+02  0.00000E+00  9.000E+00
      21     1     1     2   512   502 -6.754320650E+01 -9.524264760E+01  3.568034353E+02  3.754223464E+02  3.814697266E-06  0.00000E+00  9.000E+00
#rwgt            2          11   3.4852941137521573E-003           4      234311           0
</event>
<event>
      5   9999  3.19816E-02  2.14964E+02 -1.00000E+00  1.10519E-01
      21    -1     0     0   502   501  0.000000000E+00  0.000000000E+00  2.143781567E+03  2.143781567E+03  0.000000000E+00  0.00000E+00  9.000E+00
      21    -1     0     0   511   502  0.000000000E+00  0.000000000E+00 -2.570601737E+02  2.570601737E+02  0.000000000E+00  0.00000E+00  9.000E+00
      25     1     1     2     0     0 -7.836851709E+01  2.734259654E+02  5.347128480E+02  6.184223580E+02  1.250000000E+02  0.00000E+00  9.000E+00
      25     1     1     2     0     0 -1.355610404E+02 -2.523639474E+02  1.492985870E+03  1.525351162E+03  1.250000000E+02  0.00000E+00  9.000E+00
      21     1     1     2   511   501  2.139295574E+02 -2.106201804E+01 -1.409773250E+02  2.570682211E+02  5.046370146E-06  0.00000E+00  9.000E+00
#rwgt            1           1   2.4595204586095081E-002           4      234331           0
</event>
<event>
      5   9999  3.19816E-02  3.27989E+01 -1.00000E+00  1.50397E-01
      21    -1     0     0   502   501  0.000000000E+00  0.000000000E+00  1.184566194E+03  1.184566194E+03  0.000000000E+00  0.00000E+00  9.000E+00
      21    -1     0     0   501   512  0.000000000E+00  0.000000000E+00 -3.149069460E+02  3.149069460E+02  0.000000000E+00  0.00000E+00  9.000E+00
      25     1     1     2     0     0 -4.487043095E+02  2.476030352E+02  1.560337250E+02  5.501039390E+02  1.250000000E+02  0.00000E+00  9.000E+00
      25     1     1     2     0     0  4.691025251E+02 -2.219188434E+02  7.363456862E+02  9.094696926E+02  1.250000000E+02  0.00000E+00  9.000E+00
      21     1     1     2   502   512 -2.039821561E+01 -2.568419171E+01 -2.272016365E+01  3.989950802E+01  0.000000000E+00  0.00000E+00  9.000E+00
#rwgt            1           1   8.1723928275239839E-003           4      234374           0
</event>
<event>
      5   9999  3.19816E-02  1.35828E+02 -1.00000E+00  1.18128E-01
      21    -1     0     0   502   501  0.000000000E+00  0.000000000E+00  4.169526010E+02  4.169526010E+02  0.000000000E+00  0.00000E+00  9.000E+00
       5    -1     0     0   501     0  0.000000000E+00  0.000000000E+00 -2.820292210E+02  2.820292210E+02  0.000000000E+00  0.00000E+00  9.000E+00
      25     1     1     2     0     0 -1.267558970E+02 -2.242536411E+02 -2.548235156E+01  2.874562631E+02  1.250000000E+02  0.00000E+00  9.000E+00
      25     1     1     2     0     0  1.202107434E+02  8.858320570E+01  1.904814815E+02  2.724074191E+02  1.250000000E+02  0.00000E+00  9.000E+00
       5     1     1     2   502     0  6.545153608E+00  1.356704354E+02 -3.007574997E+01  1.391181398E+02  3.631483605E-06  0.00000E+00  9.000E+00
#rwgt            1           1   2.6828465177651452E-002           4      234485           0
</event>
<event>
      5   9999  3.19816E-02  6.55317E+01 -1.00000E+00  1.32688E-01
      21    -1     0     0   502   501  0.000000000E+00  0.000000000E+00  9.756083936E+02  9.756083936E+02  0.000000000E+00  0.00000E+00  9.000E+00
      21    -1     0     0   511   502  0.000000000E+00  0.000000000E+00 -1.188100521E+02  1.188100521E+02  0.000000000E+00  0.00000E+00  9.000E+00
      25     1     1     2     0     0 -1.949433339E+02 -9.786116789E+01  5.629008631E+02  6.164917625E+02  1.250000000E+02  0.00000E+00  9.000E+00
      25     1     1     2     0     0  2.502030179E+02  1.330856566E+02  2.249618742E+02  3.828135147E+02  1.250000000E+02  0.00000E+00  9.000E+00
      21     1     1     2   511   501 -5.525968400E+01 -3.522448869E+01  6.893560430E+01  9.511316849E+01  0.000000000E+00  0.00000E+00  9.000E+00
#rwgt            1           1   2.9931690238833217E-002           4      234536           0
</event>
<event>
      5   9999  3.19816E-02  2.70498E+02 -1.00000E+00  1.07074E-01
      21    -1     0     0   502   501  0.000000000E+00  0.000000000E+00  2.083359306E+02  2.083359306E+02  0.000000000E+00  0.00000E+00  9.000E+00
      21    -1     0     0   501   512  0.000000000E+00  0.000000000E+00 -1.885321360E+03  1.885321360E+03  0.000000000E+00  0.00000E+00  9.000E+00
      25     1     1     2     0     0 -3.369866606E+02 -1.641571800E+02 -8.012198356E+02  8.933564877E+02  1.250000000E+02  0.00000E+00  9.000E+00
      25     1     1     2     0     0  2.993218454E+02  4.320195728E+02 -4.914151321E+02  7.303069974E+02  1.250000000E+02  0.00000E+00  9.000E+00
      21     1     1     2   502   512  3.766481519E+01 -2.678623927E+02 -3.843504616E+02  4.699938054E+02  7.629394531E-06  0.00000E+00  9.000E+00
#rwgt            1           1   2.5805601514204784E-002           4      234636           0
</event>
<event>
      5   9999  3.19816E-02  5.69732E+01 -1.00000E+00  1.35916E-01
      21    -1     0     0   511   501  0.000000000E+00  0.000000000E+00  1.956711915E+02  1.956711915E+02  0.000000000E+00  0.00000E+00  9.000E+00
      21    -1     0     0   501   502  0.000000000E+00  0.000000000E+00 -7.426004124E+02  7.426004124E+02  0.000000000E+00  0.00000E+00  9.000E+00
      25     1     1     2     0     0 -3.320712677E+01  2.233149116E+02 -4.869884652E+02  5.511397538E+02  1.250000000E+02  0.00000E+00  9.000E+00
      25     1     1     2     0     0  4.084767738E+01 -1.668563180E+02 -1.640750413E+02  2.684309646E+02  1.250000000E+02  0.00000E+00  9.000E+00
      21     1     1     2   511   502 -7.640550610E+00 -5.645859361E+01  1.041342855E+02  1.187008855E+02  1.348699152E-06  0.00000E+00  9.000E+00
#rwgt            1           1   3.7953920670151547E-002           4      234688           0
</event>
<event>
      5   9999  3.19816E-02  1.19065E+02 -1.00000E+00  1.20513E-01
      21    -1     0     0   502   512  0.000000000E+00  0.000000000E+00  1.739147446E+03  1.739147446E+03  0.000000000E+00  0.00000E+00  9.000E+00
      21    -1     0     0   501   502  0.000000000E+00  0.000000000E+00 -4.630400907E+01  4.630400907E+01  0.000000000E+00  0.00000E+00  9.000E+00
      25     1     1     2     0     0 -1.034967646E+02  1.051504646E+01  4.246997213E+02  4.547713709E+02  1.250000000E+02  0.00000E+00  9.000E+00
      25     1     1     2     0     0  1.983522798E+02  6.144899406E+01  5.273811747E+02  5.804097770E+02  1.250000000E+02  0.00000E+00  9.000E+00
      21     1     1     2   501   512 -9.485551517E+01 -7.196404052E+01  7.407625412E+02  7.502703075E+02  0.000000000E+00  0.00000E+00  9.000E+00
#rwgt            1           1   3.0492336308124559E-002           4      234786           0
</event>
<event>
      5   9999  3.19816E-02  4.26400E+01 -1.00000E+00  1.43139E-01
      21    -1     0     0   502   501  0.000000000E+00  0.000000000E+00  1.168115918E+02  1.168115918E+02  0.000000000E+00  0.00000E+00  9.000E+00
      21    -1     0     0   511   502  0.000000000E+00  0.000000000E+00 -1.383810309E+03  1.383810309E+03  0.000000000E+00  0.00000E+00  9.000E+00
      25     1     1     2     0     0  1.600066989E+02  4.230592334E+01 -8.494004829E+02  8.743558287E+02  1.250000000E+02  0.00000E+00  9.000E+00
      25     1     1     2     0     0 -1.197354885E+02 -2.829162776E+01  2.888305281E+01  1.777532957E+02  1.250000000E+02  0.00000E+00  9.000E+00
      21     1     1     2   511   501 -4.027121042E+01 -1.401429558E+01 -4.464812871E+02  4.485127764E+02  0.000000000E+00  0.00000E+00  9.000E+00
#rwgt            1           1   2.6815017471923979E-002           4      234832           0
</event>
<event>
      5   9999  3.19816E-02  3.86043E+02 -1.00000E+00  1.02152E-01
      21    -1     0     0   502   501  0.000000000E+00  0.000000000E+00  2.641587953E+02  2.641587953E+02  0.000000000E+00  0.00000E+00  9.000E+00
       2    -1     0     0   501     0  0.000000000E+00  0.000000000E+00 -1.374427439E+03  1.374427439E+03  0.000000000E+00  0.00000E+00  9.000E+00
      25     1     1     2     0     0  2.231031714E+02 -3.448014214E+02 -2.291084008E+02  4.865991210E+02  1.250000000E+02  0.00000E+00  9.000E+00
      25     1     1     2     0     0 -2.599758238E+02 -3.947690686E+01 -1.556133228E+02  3.301308246E+02  1.250000000E+02  0.00000E+00  9.000E+00
       2     1     1     2   502     0  3.687265246E+01  3.842783282E+02 -7.255469205E+02  8.218562891E+02  0.000000000E+00  0.00000E+00  9.000E+00
#rwgt            2          13   1.1795113860709418E-003           4      234974           0
</event>
<event>
      5   9999  3.19816E-02  2.41603E+01 -1.00000E+00  1.59870E-01
      21    -1     0     0   502   501  0.000000000E+00  0.000000000E+00  1.373393970E+03  1.373393970E+03  0.000000000E+00  0.00000E+00  9.000E+00
      21    -1     0     0   501   511  0.000000000E+00  0.000000000E+00 -6.369713750E+01  6.369713750E+01  0.000000000E+00  0.00000E+00  9.000E+00
      25     1     1     2     0     0 -1.370781100E+02  1.738745815E+02  8.470943261E+02  8.844300852E+02  1.250000000E+02  0.00000E+00  9.000E+00
      25     1     1     2     0     0  1.553557653E+02 -1.896748750E+02  4.431174239E+02  5.216224913E+02  1.250000000E+02  0.00000E+00  9.000E+00
      21     1     1     2   502   511 -1.827765531E+01  1.580029350E+01  1.948508203E+01  3.103853057E+01  4.129530925E-07  0.00000E+00  9.000E+00
#rwgt            1           1   3.5461477173853111E-002           4      234993           0
</event>
<event>
      5   9999  3.19816E-02  8.39417E+01 -1.00000E+00  1.27347E-01
      21    -1     0     0   502   512  0.000000000E+00  0.000000000E+00  1.038486465E+02  1.038486465E+02  0.000000000E+00  0.00000E+00  9.000E+00
      21    -1     0     0   501   502  0.000000000E+00  0.000000000E+00 -2.007998232E+03  2.007998232E+03  0.000000000E+00  0.00000E+00  9.000E+00
      25     1     1     2     0     0 -2.714532509E+01  3.801977462E+02 -6.465167220E+02  7.608521977E+02  1.250000000E+02  0.00000E+00  9.000E+00
      25     1     1     2     0     0  1.063029871E+02 -3.522644781E+02 -1.153741279E+03  1.217429475E+03  1.250000000E+02  0.00000E+00  9.000E+00
      21     1     1     2   501   512 -7.915766206E+01 -2.793326807E+01 -1.038915850E+02  1.335652064E+02  3.015782986E-06  0.00000E+00  9.000E+00
#rwgt            1           1   3.2198647299378602E-002           4      235067           0
</event>
<event>
      5   9999  3.19816E-02  1.38655E+02 -1.00000E+00  1.17763E-01
      21    -1     0     0   511   501  0.000000000E+00  0.000000000E+00  1.097349557E+02  1.097349557E+02  0.000000000E+00  0.00000E+00  9.000E+00
      21    -1     0     0   501   502  0.000000000E+00  0.000000000E+00 -1.771286459E+03  1.771286459E+03  0.000000000E+00  0.00000E+00  9.000E+00
      25     1     1     2     0     0 -2.378727810E+02 -1.564977875E+02 -2.722039314E+02  4.132735144E+02  1.250000000E+02  0.00000E+00  9.000E+00
      25     1     1     2     0     0  1.071765836E+02  2.027991802E+02 -1.225841321E+03  1.253365977E+03  1.250000000E+02  0.00000E+00  9.000E+00
      21     1     1     2   511   502  1.306961974E+02 -4.630139266E+01 -1.635062505E+02  2.143819231E+02  1.907348633E-06  0.00000E+00  9.000E+00
#rwgt            1           1   2.9192630469420625E-002           4      235213           0
</event>
<event>
      5   9999  3.19816E-02  2.21110E+01 -1.00000E+00  1.62852E-01
       2    -1     0     0   502     0  0.000000000E+00  0.000000000E+00  3.325589776E+02  3.325589776E+02  0.000000000E+00  0.00000E+00  9.000E+00
      21    -1     0     0   501   502  0.000000000E+00  0.000000000E+00 -7.792666239E+02  7.792666239E+02  0.000000000E+00  0.00000E+00  9.000E+00
      25     1     1     2     0     0 -1.233490144E+02  2.602001808E+02  2.384807732E+01  3.148219246E+02  1.250000000E+02  0.00000E+00  9.000E+00
      25     1     1     2     0     0  1.284782961E+02 -2.817079853E+02 -5.887041936E+02  6.768040257E+02  1.250000000E+02  0.00000E+00  9.000E+00
       2     1     1     2   501     0 -5.129281720E+00  2.150780451E+01  1.181484700E+02  1.201996512E+02  1.348699152E-06  0.00000E+00  9.000E+00
#rwgt            2          18   9.4647565578119999E-005           4      235362           0
</event>
<event>
      5   9999  3.19816E-02  6.13382E+01 -1.00000E+00  1.34193E-01
      21    -1     0     0   502   501  0.000000000E+00  0.000000000E+00  2.412651882E+01  2.412651882E+01  0.000000000E+00  0.00000E+00  9.000E+00
       2    -1     0     0   501     0  0.000000000E+00  0.000000000E+00 -3.092770846E+03  3.092770846E+03  0.000000000E+00  0.00000E+00  9.000E+00
      25     1     1     2     0     0 -1.007687150E+02  1.377152608E+02 -8.359414514E+02  8.622893581E+02  1.250000000E+02  0.00000E+00  9.000E+00
      25     1     1     2     0     0  9.217688053E+01 -1.984487328E+02 -1.764235520E+03  1.782142095E+03  1.250000000E+02  0.00000E+00  9.000E+00
       2     1     1     2   502     0  8.591834488E+00  6.073347205E+01 -4.684673553E+02  4.724659111E+02  9.344061824E-06  0.00000E+00  9.000E+00
#rwgt            1           1   4.2940948349723985E-002           4      235381           0
</event>
<event>
      5   9999  3.19816E-02  2.80240E+02 -1.00000E+00  1.06562E-01
      21    -1     0     0   511   501  0.000000000E+00  0.000000000E+00  1.915624749E+03  1.915624749E+03  0.000000000E+00  0.00000E+00  9.000E+00
      21    -1     0     0   501   502  0.000000000E+00  0.000000000E+00 -4.119718416E+02  4.119718416E+02  0.000000000E+00  0.00000E+00  9.000E+00
      25     1     1     2     0     0  3.311086461E+01  6.274806168E+02  1.049130922E+02  6.491995154E+02  1.250000000E+02  0.00000E+00  9.000E+00
      25     1     1     2     0     0 -2.950725682E+02 -5.279277964E+02  1.142187526E+03  1.298457902E+03  1.250000000E+02  0.00000E+00  9.000E+00
      21     1     1     2   511   502  2.619617035E+02 -9.955282043E+01  2.565522891E+02  3.799391731E+02  7.629394531E-06  0.00000E+00  9.000E+00
#rwgt            1           1   2.3754042838362840E-002           4      235460           0
</event>
<event>
      5   9999  3.19816E-02  1.13564E+02 -1.00000E+00  1.21393E-01
      21    -1     0     0   502   501  0.000000000E+00  0.000000000E+00  6.467809789E+02  6.467809789E+02  0.000000000E+00  0.00000E+00  9.000E+00
      21    -1     0     0   512   502  0.000000000E+00  0.000000000E+00 -5.163824422E+02  5.163824422E+02  0.000000000E+00  0.00000E+00  9.000E+00
      25     1     1     2     0     0  2.622988737E+02  1.073562911E+02 -2.804914875E+02  4.178834131E+02  1.250000000E+02  0.00000E+00  9.000E+00
      25     1     1     2     0     0 -3.326763191E+02 -1.964844626E+02  4.667875590E+02  6.187045358E+02  1.250000000E+02  0.00000E+00  9.000E+00
      21     1     1     2   512   501  7.037744537E+01  8.912817158E+01 -5.589753478E+01  1.265754723E+02  2.132480600E-06  0.00000E+00  9.000E+00
#rwgt            1           1   3.0338342930113334E-002           4      235515           0
</event>
<event>
      5   9999  3.19816E-02  8.02057E+01 -1.00000E+00  1.28296E-01
      21    -1     0     0   502   501  0.000000000E+00  0.000000000E+00  1.416321922E+02  1.416321922E+02  0.000000000E+00  0.00000E+00  9.000E+00
      21    -1     0     0   501   511  0.000000000E+00  0.000000000E+00 -1.094184275E+03  1.094184275E+03  0.000000000E+00  0.00000E+00  9.000E+00
      25     1     1     2     0     0 -8.954807863E+01  8.783866060E+01 -9.112770221E+02  9.283239196E+02  1.250000000E+02  0.00000E+00  9.000E+00
      25     1     1     2     0     0  7.519244238E+01 -8.928147316E+00  7.653376241E+01  1.649728220E+02  1.250000000E+02  0.00000E+00  9.000E+00
      21     1     1     2   502   511  1.435563625E+01 -7.891051328E+01 -1.178088230E+02  1.425197256E+02  1.348699152E-06  0.00000E+00  9.000E+00
#rwgt            1           1   2.6114914469543875E-002           4      235640           0
</event>
<event>
      5   9999  3.19816E-02  2.49047E+01 -1.00000E+00  1.58875E-01
      21    -1     0     0   502   501  0.000000000E+00  0.000000000E+00  5.347684575E+02  5.347684575E+02  0.000000000E+00  0.00000E+00  9.000E+00
       1    -1     0     0   501     0  0.000000000E+00  0.000000000E+00 -3.883691457E+02  3.883691457E+02  0.000000000E+00  0.00000E+00  9.000E+00
      25     1     1     2     0     0 -2.170388713E+02  9.749601480E+01  2.100774958E+02  3.411288595E+02  1.250000000E+02  0.00000E+00  9.000E+00
      25     1     1     2     0     0  2.057117265E+02 -7.531628037E+01  1.970659884E+02  3.200778973E+02  1.250000000E+02  0.00000E+00  9.000E+00
       1     1     1     2   502     0  1.132714477E+01 -2.217973443E+01 -2.607441724E+02  2.619308463E+02  5.394796609E-06  0.00000E+00  9.000E+00
#rwgt            1           1   2.9496027249096522E-002           4      235722           0
</event>
<event>
      5   9999  3.19816E-02  9.10810E+01 -1.00000E+00  1.25681E-01
      21    -1     0     0   511   501  0.000000000E+00  0.000000000E+00  3.776107645E+02  3.776107645E+02  0.000000000E+00  0.00000E+00  9.000E+00
      21    -1     0     0   501   502  0.000000000E+00  0.000000000E+00 -2.591885566E+02  2.591885566E+02  0.000000000E+00  0.00000E+00  9.000E+00
      25     1     1     2     0     0 -1.109894117E+02 -1.199664876E+02 -7.593259134E+01  2.193202364E+02  1.250000000E+02  0.00000E+00  9.000E+00
      25     1     1     2     0     0  1.984020656E+02  1.455552449E+02  1.249294475E+02  3.029555674E+02  1.250000000E+02  0.00000E+00  9.000E+00
      21     1     1     2   511   502 -8.741265393E+01 -2.558875729E+01  6.942535172E+01  1.145235174E+02  2.132480600E-06  0.00000E+00  9.000E+00
#rwgt            1           1   3.1292828271321321E-002           4      235910           0
</event>
<event>
      5   9999  3.19816E-02  6.22894E+01 -1.00000E+00  1.33840E-01
      21    -1     0     0   502   501  0.000000000E+00  0.000000000E+00  2.610427818E+03  2.610427818E+03  0.000000000E+00  0.00000E+00  9.000E+00
      21    -1     0     0   501   512  0.000000000E+00  0.000000000E+00 -4.150946410E+01  4.150946410E+01  0.000000000E+00  0.00000E+00  9.000E+00
      25     1     1     2     0     0 -2.412094244E+02  3.570756752E+01  1.788351067E+03  1.809221256E+03  1.250000000E+02  0.00000E+00  9.000E+00
      25     1     1     2     0     0  2.213510337E+02  2.333146651E+01  6.338260316E+02  6.833015995E+02  1.250000000E+02  0.00000E+00  9.000E+00
      21     1     1     2   502   512  1.985839063E+01 -5.903903403E+01  1.467412558E+02  1.594144264E+02  3.303624740E-06  0.00000E+00  9.000E+00
#rwgt            1           1   7.1410016717052188E-002           4      235979           0
</event>
<event>
      5   9999  3.19816E-02  1.21201E+02 -1.00000E+00  1.20185E-01
      21    -1     0     0   511   501  0.000000000E+00  0.000000000E+00  1.319140333E+02  1.319140333E+02  0.000000000E+00  0.00000E+00  9.000E+00
      21    -1     0     0   501   502  0.000000000E+00  0.000000000E+00 -7.586834582E+02  7.586834582E+02  0.000000000E+00  0.00000E+00  9.000E+00
      25     1     1     2     0     0 -1.496895316E+02 -9.150016057E+01 -2.287641080E+02  3.142248437E+02  1.250000000E+02  0.00000E+00  9.000E+00
      25     1     1     2     0     0  6.938954557E+01  7.174508831E-01 -4.282253071E+02  4.514613355E+02  1.250000000E+02  0.00000E+00  9.000E+00
      21     1     1     2   511   502  8.029998608E+01  9.078270968E+01  3.021999017E+01  1.249113123E+02  2.105655877E-06  0.00000E+00  9.000E+00
#rwgt            1           1   2.9111853681737392E-002           4      236097           0
</event>
<event>
      5   9999  3.19816E-02  1.36319E+02 -1.00000E+00  1.18064E-01
      21    -1     0     0   502   512  0.000000000E+00  0.000000000E+00  2.741500512E+03  2.741500512E+03  0.000000000E+00  0.00000E+00  9.000E+00
      21    -1     0     0   501   502  0.000000000E+00  0.000000000E+00 -2.791787560E+02  2.791787560E+02  0.000000000E+00  0.00000E+00  9.000E+00
      25     1     1     2     0     0  3.382754521E+02  6.673726383E+02  9.481340909E+02  1.214248646E+03  1.250000000E+02  0.00000E+00  9.000E+00
      25     1     1     2     0     0 -2.527115636E+02 -7.734934138E+02  1.125007733E+03  1.394066926E+03  1.250000000E+02  0.00000E+00  9.000E+00
      21     1     1     2   501   512 -8.556388846E+01  1.061207755E+02  3.891799324E+02  4.123636960E+02  5.394796609E-06  0.00000E+00  9.000E+00
#rwgt            1           1   1.9591386590713356E-002           4      236132           0
</event>
<event>
      5   9999  3.19816E-02  6.22793E+01 -1.00000E+00  1.33844E-01
      21    -1     0     0   502   511  0.000000000E+00  0.000000000E+00  7.122499377E+02  7.122499377E+02  0.000000000E+00  0.00000E+00  9.000E+00
      21    -1     0     0   501   502  0.000000000E+00  0.000000000E+00 -1.246751772E+02  1.246751772E+02  0.000000000E+00  0.00000E+00  9.000E+00
      25     1     1     2     0     0  5.616125536E+01  1.273282125E+02 -7.994195948E+00  1.872310537E+02  1.250000000E+02  0.00000E+00  9.000E+00
      25     1     1     2     0     0  6.098852662E+00 -1.257801920E+02  5.315368853E+02  5.603698004E+02  1.250000000E+02  0.00000E+00  9.000E+00
      21     1     1     2   501   511 -6.226010802E+01 -1.548020500E+00  6.403207117E+01  8.932426074E+01  0.000000000E+00  0.00000E+00  9.000E+00
#rwgt            1           1   2.7356814696975738E-002           4      236205           0
</event>
<event>
      5   9999  3.19816E-02  9.79749E+01 -1.00000E+00  1.24229E-01
      21    -1     0     0   502   501  0.000000000E+00  0.000000000E+00  1.188970636E+02  1.188970636E+02  0.000000000E+00  0.00000E+00  9.000E+00
      21    -1     0     0   501   512  0.000000000E+00  0.000000000E+00 -1.128721285E+03  1.128721285E+03  0.000000000E+00  0.00000E+00  9.000E+00
      25     1     1     2     0     0  8.827476522E+01 -4.129357337E+01  4.714920328E+01  1.653651739E+02  1.250000000E+02  0.00000E+00  9.000E+00
      25     1     1     2     0     0  8.966682050E+00  2.932803327E+01 -4.768406922E+02  4.939054369E+02  1.250000000E+02  0.00000E+00  9.000E+00
      21     1     1     2   502   512 -9.724144727E+01  1.196554010E+01 -5.801327328E+02  5.883477380E+02  0.000000000E+00  0.00000E+00  9.000E+00
#rwgt            1           1   2.7879035505546410E-002           4      236268           0
</event>
<event>
      5   9999  3.19816E-02  7.19798E+01 -1.00000E+00  1.30610E-01
      21    -1     0     0   502   511  0.000000000E+00  0.000000000E+00  1.239955387E+02  1.239955387E+02  0.000000000E+00  0.00000E+00  9.000E+00
      21    -1     0     0   501   502  0.000000000E+00  0.000000000E+00 -4.817663036E+02  4.817663036E+02  0.000000000E+00  0.00000E+00  9.000E+00
      25     1     1     2     0     0  3.091436788E+01  9.745579224E+01 -3.258576869E+02  3.636778268E+02  1.250000000E+02  0.00000E+00  9.000E+00
      25     1     1     2     0     0  4.096821719E+01 -9.371635119E+01  4.171177427E+00  1.615659247E+02  1.250000000E+02  0.00000E+00  9.000E+00
      21     1     1     2   501   511 -7.188258507E+01 -3.739441056E+00 -3.608425550E+01  8.051809083E+01  2.132480600E-06  0.00000E+00  9.000E+00
#rwgt            1           1   2.6529619441751577E-002           4      236306           0
</event>
<event>
      5   9999  3.19816E-02  3.69645E+01 -1.00000E+00  1.46998E-01
      21    -1     0     0   502   512  0.000000000E+00  0.000000000E+00  4.923112320E+01  4.923112320E+01  0.000000000E+00  0.00000E+00  9.000E+00
      21    -1     0     0   501   502  0.000000000E+00  0.000000000E+00 -1.727344032E+03  1.727344032E+03  0.000000000E+00  0.00000E+00  9.000E+00
      25     1     1     2     0     0  1.817948542E+02  1.534550328E+02 -6.547825607E+02  7.077874101E+02  1.250000000E+02  0.00000E+00  9.000E+00
      25     1     1     2     0     0 -1.458116186E+02 -1.449943888E+02 -9.906151201E+02  1.019425190E+03  1.250000000E+02  0.00000E+00  9.000E+00
      21     1     1     2   501   512 -3.598323561E+01 -8.460643982E+00 -3.271522783E+01  4.936255537E+01  8.259061849E-07  0.00000E+00  9.000E+00
#rwgt            1           1   2.5808412439596098E-002           4      236372           0
</event>
<event>
      5   9999  3.19816E-02  8.99722E+01 -1.00000E+00  1.25928E-01
      21    -1     0     0   502   501  0.000000000E+00  0.000000000E+00  8.804967250E+02  8.804967250E+02  0.000000000E+00  0.00000E+00  9.000E+00
       1    -1     0     0   501     0  0.000000000E+00  0.000000000E+00 -2.262251603E+03  2.262251603E+03  0.000000000E+00  0.00000E+00  9.000E+00
      25     1     1     2     0     0 -2.065721732E+02 -1.062916399E+03 -1.323359274E+03  1.714458545E+03  1.250000000E+02  0.00000E+00  9.000E+00
      25     1     1     2     0     0  2.885551376E+02  1.025851722E+03  2.544810766E+02  1.102733622E+03  1.250000000E+02  0.00000E+00  9.000E+00
       1     1     1     2   502     0 -8.198296449E+01  3.706467677E+01 -3.128766806E+02  3.255561610E+02  3.814697266E-06  0.00000E+00  9.000E+00
#rwgt            1           1   6.8407659531113066E-002           4      236504           0
</event>
<event>
      5   9999  3.19816E-02  3.24451E+01 -1.00000E+00  1.50713E-01
      21    -1     0     0   502   511  0.000000000E+00  0.000000000E+00  2.480033228E+02  2.480033228E+02  0.000000000E+00  0.00000E+00  9.000E+00
      21    -1     0     0   501   502  0.000000000E+00  0.000000000E+00 -5.923473387E+02  5.923473387E+02  0.000000000E+00  0.00000E+00  9.000E+00
      25     1     1     2     0     0 -2.675831893E+02 -1.519861083E+02 -9.868117334E+01  3.465018244E+02  1.250000000E+02  0.00000E+00  9.000E+00
      25     1     1     2     0     0  2.791662560E+02  1.216790944E+02 -2.901364558E+02  4.387980897E+02  1.250000000E+02  0.00000E+00  9.000E+00
      21     1     1     2   501   511 -1.158306674E+01  3.030701393E+01  4.447361323E+01  5.505074751E+01  8.259061849E-07  0.00000E+00  9.000E+00
#rwgt            1           1   2.4993766581464003E-002           4      236652           0
</event>
<event>
      5   9999  3.19816E-02  8.78610E+01 -1.00000E+00  1.26410E-01
      21    -1     0     0   502   512  0.000000000E+00  0.000000000E+00  2.182590640E+03  2.182590640E+03  0.000000000E+00  0.00000E+00  9.000E+00
      21    -1     0     0   501   502  0.000000000E+00  0.000000000E+00 -2.867467369E+02  2.867467369E+02  0.000000000E+00  0.00000E+00  9.000E+00
      25     1     1     2     0     0  4.551061738E+02  4.410793811E+02  1.312576476E+03  1.462926743E+03  1.250000000E+02  0.00000E+00  9.000E+00
      25     1     1     2     0     0 -3.686044243E+02 -4.564744969E+02  2.301393016E+02  6.425163702E+02  1.250000000E+02  0.00000E+00  9.000E+00
      21     1     1     2   501   512 -8.650174950E+01  1.539511583E+01  3.531281248E+02  3.638942632E+02  0.000000000E+00  0.00000E+00  9.000E+00
#rwgt            1           1   3.1379109935507486E-002           4      236784           0
</event>
<event>
      5   9999  3.19816E-02  6.86999E+01 -1.00000E+00  1.31634E-01
      21    -1     0     0   502   501  0.000000000E+00  0.000000000E+00  1.512087143E+03  1.512087143E+03  0.000000000E+00  0.00000E+00  9.000E+00
      21    -1     0     0   501   511  0.000000000E+00  0.000000000E+00 -1.917423549E+02  1.917423549E+02  0.000000000E+00  0.00000E+00  9.000E+00
      25     1     1     2     0     0 -2.405382803E+02 -2.775143485E+02  6.054982748E+02  7.191147605E+02  1.250000000E+02  0.00000E+00  9.000E+00
      25     1     1     2     0     0  2.662686980E+02  2.138148912E+02  7.979410288E+02  8.768983480E+02  1.250000000E+02  0.00000E+00  9.000E+00
      21     1     1     2   502   511 -2.573041773E+01  6.369945737E+01 -8.309451563E+01  1.078163893E+02  2.861022949E-06  0.00000E+00  9.000E+00
#rwgt            1           1   3.4548288419173970E-002           4      236893           0
</event>
<event>
      5   9999  3.19816E-02  1.93140E+02 -1.00000E+00  1.12203E-01
      21    -1     0     0   502   501  0.000000000E+00  0.000000000E+00  9.097792868E+02  9.097792868E+02  0.000000000E+00  0.00000E+00  9.000E+00
      21    -1     0     0   512   502  0.000000000E+00  0.000000000E+00 -1.220624708E+02  1.220624708E+02  0.000000000E+00  0.00000E+00  9.000E+00
      25     1     1     2     0     0 -3.640820669E+01  1.663029596E+02  2.926134118E+02  3.608737184E+02  1.250000000E+02  0.00000E+00  9.000E+00
      25     1     1     2     0     0  2.093075549E+02 -8.022708303E+01  3.205454852E+02  4.106341991E+02  1.250000000E+02  0.00000E+00  9.000E+00
      21     1     1     2   512   501 -1.728993483E+02 -8.607587662E+01  1.745579190E+02  2.603338400E+02  4.264961200E-06  0.00000E+00  9.000E+00
#rwgt            1           1   2.7819137750968583E-002           4      237032           0
</event>
<event>
      5   9999  3.19816E-02  2.24547E+01 -1.00000E+00  1.62325E-01
      21    -1     0     0   511   501  0.000000000E+00  0.000000000E+00  1.048134677E+03  1.048134677E+03  0.000000000E+00  0.00000E+00  9.000E+00
      21    -1     0     0   501   502  0.000000000E+00  0.000000000E+00 -2.875323944E+02  2.875323944E+02  0.000000000E+00  0.00000E+00  9.000E+00
      25     1     1     2     0     0 -5.321644590E+01 -4.584695937E+02  6.052268858E+02  7.713306306E+02  1.250000000E+02  0.00000E+00  9.000E+00
      25     1     1     2     0     0  3.395557194E+01  4.469269454E+02  6.335038208E+01  4.696114844E+02  1.250000000E+02  0.00000E+00  9.000E+00
      21     1     1     2   511   502  1.926087396E+01  1.154264831E+01  9.202501440E+01  9.472495590E+01  0.000000000E+00  0.00000E+00  9.000E+00
#rwgt            1           1   2.5149318803098942E-002           4      237115           0
</event>
<event>
      5   9999  3.19816E-02  9.98997E+01 -1.00000E+00  1.23848E-01
      21    -1     0     0   502   501  0.000000000E+00  0.000000000E+00  6.829941423E+01  6.829941423E+01  0.000000000E+00  0.00000E+00  9.000E+00
      21    -1     0     0   512   502  0.000000000E+00  0.000000000E+00 -1.369723332E+03  1.369723332E+03  0.000000000E+00  0.00000E+00  9.000E+00
      25     1     1     2     0     0 -2.375688579E+02  5.658837772E+01 -3.745327878E+02  4.642639507E+02  1.250000000E+02  0.00000E+00  9.000E+00
      25     1     1     2     0     0  1.489565019E+02 -1.046024036E+01 -6.824868046E+02  7.097257883E+02  1.250000000E+02  0.00000E+00  9.000E+00
      21     1     1     2   512   501  8.861235604E+01 -4.612813736E+01 -2.444043256E+02  2.640330076E+02  3.814697266E-06  0.00000E+00  9.000E+00
#rwgt            1           1   2.9444730368704000E-002           4      237287           0
</event>
<event>
      5   9999  3.19816E-02  7.40810E+01 -1.00000E+00  1.29986E-01
      21    -1     0     0   511   501  0.000000000E+00  0.000000000E+00  4.907571004E+02  4.907571004E+02  0.000000000E+00  0.00000E+00  9.000E+00
      21    -1     0     0   501   502  0.000000000E+00  0.000000000E+00 -7.469418558E+02  7.469418558E+02  0.000000000E+00  0.00000E+00  9.000E+00
      25     1     1     2     0     0 -1.672255198E+02 -4.956314512E+01 -5.562880461E+02  5.962401111E+02  1.250000000E+02  0.00000E+00  9.000E+00
      25     1     1     2     0     0  1.227209593E+02  1.087859041E+02 -1.037738949E+02  2.308437308E+02  1.250000000E+02  0.00000E+00  9.000E+00
      21     1     1     2   511   502  4.450456045E+01 -5.922275901E+01  4.038771855E+02  4.106151143E+02  5.394796609E-06  0.00000E+00  9.000E+00
#rwgt            1           1   2.7695436294037278E-002           4      237349           0
</event>
<event>
      5   9999  3.19816E-02  2.17661E+02 -1.00000E+00  1.10326E-01
      21    -1     0     0   502   501  0.000000000E+00  0.000000000E+00  6.453392618E+02  6.453392618E+02  0.000000000E+00  0.00000E+00  9.000E+00
      21    -1     0     0   512   502  0.000000000E+00  0.000000000E+00 -3.384378659E+02  3.384378659E+02  0.000000000E+00  0.00000E+00  9.000E+00
      25     1     1     2     0     0  2.323049519E+02 -1.359293720E+02  6.637844846E+01  3.040945302E+02  1.250000000E+02  0.00000E+00  9.000E+00
      25     1     1     2     0     0 -1.235490191E+02  3.244726971E+02  2.737923851E+02  4.594933747E+02  1.250000000E+02  0.00000E+00  9.000E+00
      21     1     1     2   512   501 -1.087559328E+02 -1.885433250E+02 -3.326943765E+01  2.201892228E+02  3.198720900E-06  0.00000E+00  9.000E+00
#rwgt            2          11   3.4446002822842636E-003           4      237768           0
</event>
<event>
      5   9999  3.19816E-02  1.27099E+02 -1.00000E+00  1.19318E-01
      21    -1     0     0   502   511  0.000000000E+00  0.000000000E+00  1.422419075E+03  1.422419075E+03  0.000000000E+00  0.00000E+00  9.000E+00
      21    -1     0     0   501   502  0.000000000E+00  0.000000000E+00 -1.616136910E+02  1.616136910E+02  0.000000000E+00  0.00000E+00  9.000E+00
      25     1     1     2     0     0 -2.410591738E+02  2.102443942E+02  3.187017564E+02  4.685168515E+02  1.250000000E+02  0.00000E+00  9.000E+00
      25     1     1     2     0     0  3.409752771E+02 -1.316898381E+02  3.898673543E+02  5.488423335E+02  1.250000000E+02  0.00000E+00  9.000E+00
      21     1     1     2   501   511 -9.991610325E+01 -7.855455610E+01  5.522362735E+02  5.666735813E+02  1.078959322E-05  0.00000E+00  9.000E+00
#rwgt            1           1   3.2265231943353977E-002           4      237803           0
</event>
<event>
      5   9999  3.19816E-02  1.15379E+01 -1.00000E+00  1.88839E-01
      21    -1     0     0   502   512  0.000000000E+00  0.000000000E+00  1.243794256E+03  1.243794256E+03  0.000000000E+00  0.00000E+00  9.000E+00
      21    -1     0     0   501   502  0.000000000E+00  0.000000000E+00 -1.290180009E+02  1.290180009E+02  0.000000000E+00  0.00000E+00  9.000E+00
      25     1     1     2     0     0  1.179917893E+02  1.130391128E+02 -2.810884130E+01  2.076415429E+02  1.250000000E+02  0.00000E+00  9.000E+00
      25     1     1     2     0     0 -1.223977952E+02 -1.237026438E+02  1.104436326E+03  1.125028072E+03  1.250000000E+02  0.00000E+00  9.000E+00
      21     1     1     2   501   512  4.406005896E+00  1.066353096E+01  3.844877089E+01  4.014264270E+01  4.768371582E-07  0.00000E+00  9.000E+00
#rwgt            1           1   3.3368060547394891E-002           4      237849           0
</event>
<event>
      5   9999  3.19816E-02  7.70441E+01 -1.00000E+00  1.29146E-01
      21    -1     0     0   502   501  0.000000000E+00  0.000000000E+00  1.388913780E+03  1.388913780E+03  0.000000000E+00  0.00000E+00  9.000E+00
       2    -1     0     0   501     0  0.000000000E+00  0.000000000E+00 -2.616889489E+03  2.616889489E+03  0.000000000E+00  0.00000E+00  9.000E+00
      25     1     1     2     0     0  9.114821980E+02  5.330575432E+02  6.614416039E+02  1.252230066E+03  1.250000000E+02  0.00000E+00  9.000E+00
      25     1     1     2     0     0 -9.875769327E+02 -5.210001250E+02 -3.008461716E+02  1.163134879E+03  1.250000000E+02  0.00000E+00  9.000E+00
       2     1     1     2   502     0  7.609473464E+01 -1.205741813E+01 -1.588571142E+03  1.590438324E+03  2.157918644E-05  0.00000E+00  9.000E+00
#rwgt            1           1   6.8167968012309996E-002           4      238097           0
</event>
<event>
      5   9999  3.19816E-02  3.24056E+00 -1.00000E+00  2.87060E-01
      21    -1     0     0   502   501  0.000000000E+00  0.000000000E+00  4.828493094E+02  4.828493094E+02  0.000000000E+00  0.00000E+00  9.000E+00
      21    -1     0     0   501   511  0.000000000E+00  0.000000000E+00 -2.306386605E+02  2.306386605E+02  0.000000000E+00  0.00000E+00  9.000E+00
      25     1     1     2     0     0  1.590022133E+02  1.984215956E+02  3.117455048E+02  4.212636860E+02  1.250000000E+02  0.00000E+00  9.000E+00
      25     1     1     2     0     0 -1.575672766E+02 -1.955160530E+02 -5.376106586E+01  2.856032665E+02  1.250000000E+02  0.00000E+00  9.000E+00
      21     1     1     2   502   511 -1.434936644E+00 -2.905542580E+00 -5.773789993E+00  6.621017425E+00  0.000000000E+00  0.00000E+00  9.000E+00
#rwgt            1           1   2.7703748609629153E-002           4      238240           0
</event>
<event>
      5   9999  3.19816E-02  2.39181E+01 -1.00000E+00  1.60204E-01
      21    -1     0     0   502   501  0.000000000E+00  0.000000000E+00  4.823800730E+01  4.823800730E+01  0.000000000E+00  0.00000E+00  9.000E+00
      21    -1     0     0   501   512  0.000000000E+00  0.000000000E+00 -2.029549962E+03  2.029549962E+03  0.000000000E+00  0.00000E+00  9.000E+00
      25     1     1     2     0     0  5.808956100E+01  1.574600045E+02 -2.766719185E+02  3.469011396E+02  1.250000000E+02  0.00000E+00  9.000E+00
      25     1     1     2     0     0 -4.076959914E+01 -1.739553262E+02 -9.053529042E+02  9.312419110E+02  1.250000000E+02  0.00000E+00  9.000E+00
      21     1     1     2   502   512 -1.731996186E+01  1.649532163E+01 -7.992871321E+02  7.996449189E+02  1.078959322E-05  0.00000E+00  9.000E+00
#rwgt            1           1   2.9107025981102097E-002           4      238775           0
</event>
<event>
      5   9999  3.19816E-02  8.24606E+01 -1.00000E+00  1.27716E-01
      21    -1     0     0   502   501  0.000000000E+00  0.000000000E+00  6.702824631E+02  6.702824631E+02  0.000000000E+00  0.00000E+00  9.000E+00
      21    -1     0     0   511   502  0.000000000E+00  0.000000000E+00 -3.670045089E+02  3.670045089E+02  0.000000000E+00  0.00000E+00  9.000E+00
      25     1     1     2     0     0 -1.914419078E+02  1.669416283E+02  4.083080125E+02  4.968500220E+02  1.250000000E+02  0.00000E+00  9.000E+00
      25     1     1     2     0     0  1.122398896E+02 -1.439896896E+02  1.533573211E+02  2.692104966E+02  1.250000000E+02  0.00000E+00  9.000E+00
      21     1     1     2   511   501  7.920201815E+01 -2.295193874E+01 -2.583873794E+02  2.712264534E+02  0.000000000E+00  0.00000E+00  9.000E+00
#rwgt            1           1   2.4503244965301051E-002           4      238883           0
</event>
<event>
      5   9999  3.19816E-02  4.65072E+01 -1.00000E+00  1.40894E-01
      21    -1     0     0   502   512  0.000000000E+00  0.000000000E+00  4.437640341E+02  4.437640341E+02  0.000000000E+00  0.00000E+00  9.000E+00
      21    -1     0     0   501   502  0.000000000E+00  0.000000000E+00 -2.138007104E+03  2.138007104E+03  0.000000000E+00  0.00000E+00  9.000E+00
      25     1     1     2     0     0  3.921328112E+02  1.282784157E+02 -1.599370118E+03  1.656452012E+03  1.250000000E+02  0.00000E+00  9.000E+00
      25     1     1     2     0     0 -4.099439292E+02 -8.531703889E+01 -4.145142006E+02  6.023122485E+02  1.250000000E+02  0.00000E+00  9.000E+00
      21     1     1     2   501   512  1.781111794E+01 -4.296137677E+01  3.196412482E+02  3.230068782E+02  5.394796609E-06  0.00000E+00  9.000E+00
#rwgt            1           1   3.1669073141707978E-002           4      238969           0
</event>
<event>
      5   9999  3.19816E-02  1.67631E+02 -1.00000E+00  1.14512E-01
      21    -1     0     0   502   501  0.000000000E+00  0.000000000E+00  1.761060641E+03  1.761060641E+03  0.000000000E+00  0.00000E+00  9.000E+00
      21    -1     0     0   511   502  0.000000000E+00  0.000000000E+00 -5.145733690E+02  5.145733690E+02  0.000000000E+00  0.00000E+00  9.000E+00
      25     1     1     2     0     0  6.221789056E+02 -8.151965717E+01  4.861342384E+01  6.416699386E+02  1.250000000E+02  0.00000E+00  9.000E+00
      25     1     1     2     0     0 -7.897907782E+02  8.404653532E+01  1.223850836E+03  1.464332327E+03  1.250000000E+02  0.00000E+00  9.000E+00
      21     1     1     2   511   501  1.676118726E+02 -2.526878147E+00 -2.597698808E+01  1.696317448E+02  3.662655710E-06  0.00000E+00  9.000E+00
#rwgt            1           1   3.5098748301039602E-002           4      239110           0
</event>
<event>
      5   9999  3.19816E-02  6.65626E+01 -1.00000E+00  1.32338E-01
      21    -1     0     0   502   501  0.000000000E+00  0.000000000E+00  4.098004175E+02  4.098004175E+02  0.000000000E+00  0.00000E+00  9.000E+00
      21    -1     0     0   512   502  0.000000000E+00  0.000000000E+00 -1.514099119E+03  1.514099119E+03  0.000000000E+00  0.00000E+00  9.000E+00
      25     1     1     2     0     0  2.834509418E+02 -3.358630564E+02  2.145297508E+02  5.047736552E+02  1.250000000E+02  0.00000E+00  9.000E+00
      25     1     1     2     0     0 -2.594279070E+02  2.737866715E+02 -7.719640516E+02  8.682254762E+02  1.250000000E+02  0.00000E+00  9.000E+00
      21     1     1     2   512   501 -2.402303476E+01  6.207638493E+01 -5.468644006E+02  5.509004052E+02  7.629394531E-06  0.00000E+00  9.000E+00
#rwgt            1           1   2.4415407337493096E-002           4      239188           0
</event>
<event>
      5   9999  3.19816E-02  1.19253E+02 -1.00000E+00  1.20483E-01
      21    -1     0     0   502   501  0.000000000E+00  0.000000000E+00  4.233703008E+02  4.233703008E+02  0.000000000E+00  0.00000E+00  9.000E+00
      21    -1     0     0   501   511  0.000000000E+00  0.000000000E+00 -8.100830018E+02  8.100830018E+02  0.000000000E+00  0.00000E+00  9.000E+00
      25     1     1     2     0     0  2.758594576E+02  1.666349756E+02  1.891529820E+02  3.940425181E+02  1.250000000E+02  0.00000E+00  9.000E+00
      25     1     1     2     0     0 -2.402494346E+02 -5.282271858E+01 -2.643726170E+01  2.771893923E+02  1.250000000E+02  0.00000E+00  9.000E+00
      21     1     1     2   502   511 -3.561002308E+01 -1.138122570E+02 -5.494284214E+02  5.622213922E+02  0.000000000E+00  0.00000E+00  9.000E+00
#rwgt            1           1   3.1032585970579583E-002           4      239295           0
</event>
<event>
      5   9999  3.19816E-02  2.01306E+02 -1.00000E+00  1.11545E-01
       4    -1     0     0   502     0  0.000000000E+00  0.000000000E+00  1.469434128E+02  1.469434128E+02  0.000000000E+00  0.00000E+00  9.000E+00
      21    -1     0     0   501   502  0.000000000E+00  0.000000000E+00 -1.478833084E+03  1.478833084E+03  0.000000000E+00  0.00000E+00  9.000E+00
      25     1     1     2     0     0 -1.063659564E+02  8.149740085E+00 -1.197454060E+03  1.208677526E+03  1.250000000E+02  0.00000E+00  9.000E+00
      25     1     1     2     0     0 -8.452667755E+01 -7.205583799E+01  1.278206072E+01  1.677056471E+02  1.250000000E+02  0.00000E+00  9.000E+00
       4     1     1     2   501     0  1.908926339E+02  6.390609791E+01 -1.472176711E+02  2.493933234E+02  4.672030912E-06  0.00000E+00  9.000E+00
#rwgt            1           1   3.0079441223481974E-002           4      239334           0
</event>
<event>
      5   9999  3.19816E-02  6.40289E+02 -1.00000E+00  9.58936E-02
      21    -1     0     0   502   501  0.000000000E+00  0.000000000E+00  5.514076355E+02  5.514076355E+02  0.000000000E+00  0.00000E+00  9.000E+00
      21    -1     0     0   501   511  0.000000000E+00  0.000000000E+00 -1.909872786E+03  1.909872786E+03  0.000000000E+00  0.00000E+00  9.000E+00
      25     1     1     2     0     0 -1.318389968E+01 -1.237209425E+02  2.372654128E+02  2.956358620E+02  1.250000000E+02  0.00000E+00  9.000E+00
      25     1     1     2     0     0 -3.708280182E+02 -3.886311535E+02 -1.306818762E+02  5.667895071E+02  1.250000000E+02  0.00000E+00  9.000E+00
      21     1     1     2   502   511  3.840119179E+02  5.123520961E+02 -1.465048687E+03  1.598855053E+03  0.000000000E+00  0.00000E+00  9.000E+00
#rwgt            1           1   2.8665711381469072E-002           4      239418           0
</event>
<event>
      5   9999  3.19816E-02  3.43499E+01 -1.00000E+00  1.49065E-01
      21    -1     0     0   512   501  0.000000000E+00  0.000000000E+00  2.026696390E+03  2.026696390E+03  0.000000000E+00  0.00000E+00  9.000E+00
      21    -1     0     0   501   502  0.000000000E+00  0.000000000E+00 -4.726243545E+01  4.726243545E+01  0.000000000E+00  0.00000E+00  9.000E+00
      25     1     1     2     0     0  1.729589460E+02 -1.307976270E+02  6.838042456E+02  7.281730993E+02  1.250000000E+02  0.00000E+00  9.000E+00
      25     1     1     2     0     0 -1.892542160E+02  1.610362981E+02  7.642605446E+02  8.133074619E+02  1.250000000E+02  0.00000E+00  9.000E+00
      21     1     1     2   512   502  1.629527002E+01 -3.023867113E+01  5.313691644E+02  5.324782643E+02  7.629394531E-06  0.00000E+00  9.000E+00
#rwgt            1           1   3.8866637368687479E-002           4      239448           0
</event>
<event>
      5   9999  3.19816E-02  2.49090E+02 -1.00000E+00  1.08284E-01
      21    -1     0     0   502   501  0.000000000E+00  0.000000000E+00  2.007492090E+02  2.007492090E+02  0.000000000E+00  0.00000E+00  9.000E+00
      21    -1     0     0   501   511  0.000000000E+00  0.000000000E+00 -1.015061341E+03  1.015061341E+03  0.000000000E+00  0.00000E+00  9.000E+00
      25     1     1     2     0     0 -2.130154604E+02  1.797607973E+02  1.107938405E+01  3.056751272E+02  1.250000000E+02  0.00000E+00  9.000E+00
      25     1     1     2     0     0  3.635980064E+01 -4.150938829E+00 -3.498008559E+02  3.732625138E+02  1.250000000E+02  0.00000E+00  9.000E+00
      21     1     1     2   502   511  1.766556598E+02 -1.756098585E+02 -4.755906604E+02  5.368729093E+02  0.000000000E+00  0.00000E+00  9.000E+00
#rwgt            1           1   2.3231201545393387E-002           4      239576           0
</event>
<event>
      5   9999  3.19816E-02  5.15672E+01 -1.00000E+00  1.38315E-01
       2    -1     0     0   502     0  0.000000000E+00  0.000000000E+00  1.320572987E+03  1.320572987E+03  0.000000000E+00  0.00000E+00  9.000E+00
      21    -1     0     0   501   502  0.000000000E+00  0.000000000E+00 -7.622072936E+01  7.622072936E+01  0.000000000E+00  0.00000E+00  9.000E+00
      25     1     1     2     0     0  9.037495319E+01 -2.161928492E+02  4.269454553E+02  5.028065254E+02  1.250000000E+02  0.00000E+00  9.000E+00
      25     1     1     2     0     0 -5.421891854E+01  1.794243926E+02  3.060250403E+02  3.800120117E+02  1.250000000E+02  0.00000E+00  9.000E+00
       2     1     1     2   501     0 -3.615603465E+01  3.676845667E+01  5.113817623E+02  5.139751794E+02  5.394796609E-06  0.00000E+00  9.000E+00
#rwgt            1           1   2.2046910735124221E-002           4      239630           0
</event>
<event>
      5   9999  3.19816E-02  9.87206E+00 -1.00000E+00  1.96406E-01
      21    -1     0     0   502   511  0.000000000E+00  0.000000000E+00  1.651076664E+02  1.651076664E+02  0.000000000E+00  0.00000E+00  9.000E+00
      21    -1     0     0   501   502  0.000000000E+00  0.000000000E+00 -3.507087941E+02  3.507087941E+02  0.000000000E+00  0.00000E+00  9.000E+00
      25     1     1     2     0     0 -3.523559183E+01 -1.046834742E+00  2.557791946E+01  1.323702110E+02  1.250000000E+02  0.00000E+00  9.000E+00
      25     1     1     2     0     0  4.052607051E+01 -7.287936216E+00 -2.823912452E+02  3.115530321E+02  1.250000000E+02  0.00000E+00  9.000E+00
      21     1     1     2   501   511 -5.290478684E+00  8.334770957E+00  7.121219806E+01  7.189321751E+01  1.348699152E-06  0.00000E+00  9.000E+00
#rwgt            1           1   2.3586590556439684E-002           4      239699           0
</event>
<event>
      5   9999  3.19816E-02  6.29038E+01 -1.00000E+00  1.33616E-01
      21    -1     0     0   502   501  0.000000000E+00  0.000000000E+00  3.999391141E+02  3.999391141E+02  0.000000000E+00  0.00000E+00  9.000E+00
      21    -1     0     0   501   512  0.000000000E+00  0.000000000E+00 -7.062439101E+02  7.062439101E+02  0.000000000E+00  0.00000E+00  9.000E+00
      25     1     1     2     0     0 -2.714902599E+02 -1.143210446E+02  2.581087251E+02  4.111220943E+02  1.250000000E+02  0.00000E+00  9.000E+00
      25     1     1     2     0     0  2.115883121E+02  9.512087441E+01 -2.151961733E+02  3.402234377E+02  1.250000000E+02  0.00000E+00  9.000E+00
      21     1     1     2   502   512  5.990194786E+01  1.920017016E+01 -3.492173477E+02  3.548374922E+02  6.607249480E-06  0.00000E+00  9.000E+00
#rwgt            1           1   2.8816291715022087E-002           4      239930           0
</event>
<event>
      5   9999  3.19816E-02  5.85058E+01 -1.00000E+00  1.35291E-01
      21    -1     0     0   502   501  0.000000000E+00  0.000000000E+00  9.674254127E+01  9.674254127E+01  0.000000000E+00  0.00000E+00  9.000E+00
      21    -1     0     0   511   502  0.000000000E+00  0.000000000E+00 -4.470898765E+02  4.470898765E+02  0.000000000E+00  0.00000E+00  9.000E+00
      25     1     1     2     0     0 -8.446629669E+01  2.901976785E+01 -7.184534550E+01  1.695979241E+02  1.250000000E+02  0.00000E+00  9.000E+00
      25     1     1     2     0     0  1.276560100E+02 -6.848591658E+01 -2.183090985E+02  2.902933691E+02  1.250000000E+02  0.00000E+00  9.000E+00
      21     1     1     2   511   501 -4.318971330E+01  3.946614873E+01 -6.019289121E+01  8.394112451E+01  9.536743164E-07  0.00000E+00  9.000E+00
#rwgt            1           1   2.9673973253979875E-002           4      240010           0
</event>
<event>
      5   9999  3.19816E-02  4.50252E+02 -1.00000E+00  1.00162E-01
       5    -1     0     0   502     0  0.000000000E+00  0.000000000E+00  1.848644570E+03  1.848644570E+03  0.000000000E+00  0.00000E+00  9.000E+00
      21    -1     0     0   501   502  0.000000000E+00  0.000000000E+00 -3.565918504E+02  3.565918504E+02  0.000000000E+00  0.00000E+00  9.000E+00
      25     1     1     2     0     0  5.540765366E+01  2.738297993E+02  3.120962354E+02  4.371290739E+02  1.250000000E+02  0.00000E+00  9.000E+00
      25     1     1     2     0     0  2.261946931E+02 -6.251519113E+02  2.259746669E+02  7.132099981E+02  1.250000000E+02  0.00000E+00  9.000E+00
       5     1     1     2   501     0 -2.816023468E+02  3.513221119E+02  9.539818177E+02  1.054897349E+03  0.000000000E+00  0.00000E+00  9.000E+00
#rwgt            1           1   2.8885049112205834E-002           4      240080           0
</event>
<event>
      5   9999  3.19816E-02  4.52526E+01 -1.00000E+00  1.41593E-01
      21    -1     0     0   502   501  0.000000000E+00  0.000000000E+00  1.083508811E+03  1.083508811E+03  0.000000000E+00  0.00000E+00  9.000E+00
      21    -1     0     0   501   511  0.000000000E+00  0.000000000E+00 -2.166587191E+02  2.166587191E+02  0.000000000E+00  0.00000E+00  9.000E+00
      25     1     1     2     0     0 -9.047171604E+01 -1.992764325E+02  2.210149175E+02  3.352145905E+02  1.250000000E+02  0.00000E+00  9.000E+00
      25     1     1     2     0     0  1.096132578E+02  2.402812755E+02  7.749144207E+02  8.281711883E+02  1.250000000E+02  0.00000E+00  9.000E+00
      21     1     1     2   502   511 -1.914154178E+01 -4.100484295E+01 -1.290792461E+02  1.367817515E+02  1.907348633E-06  0.00000E+00  9.000E+00
#rwgt            1           1   3.1381251194653473E-002           4      240137           0
</event>
<event>
      5   9999  3.19816E-02  2.76754E+02 -1.00000E+00  1.06743E-01
      21    -1     0     0   502   501  0.000000000E+00  0.000000000E+00  2.019320862E+03  2.019320862E+03  0.000000000E+00  0.00000E+00  9.000E+00
      21    -1     0     0   512   502  0.000000000E+00  0.000000000E+00 -3.400274763E+02  3.400274763E+02  0.000000000E+00  0.00000E+00  9.000E+00
      25     1     1     2     0     0  3.682283464E+02  4.516596824E+01  3.759277395E+02  5.427510895E+02  1.250000000E+02  0.00000E+00  9.000E+00
      25     1     1     2     0     0 -1.477819181E+02  1.221547959E+02  1.473870346E+03  1.491536150E+03  1.250000000E+02  0.00000E+00  9.000E+00
      21     1     1     2   512   501 -2.204464283E+02 -1.673207641E+02 -1.705046993E+02  3.250610994E+02  7.864199878E-06  0.00000E+00  9.000E+00
#rwgt            1           1   3.7146058231511063E-002           4      240234           0
</event>
<event>
      5   9999  3.19816E-02  8.36670E+01 -1.00000E+00  1.27414E-01
       2    -1     0     0   502     0  0.000000000E+00  0.000000000E+00  7.089843015E+02  7.089843015E+02  0.000000000E+00  0.00000E+00  9.000E+00
      21    -1     0     0   501   502  0.000000000E+00  0.000000000E+00 -5.821601986E+01  5.821601986E+01  0.000000000E+00  0.00000E+00  9.000E+00
      25     1     1     2     0     0  4.079521290E+01  2.166197600E+01  2.599548972E+02  2.921216171E+02  1.250000000E+02  0.00000E+00  9.000E+00
      25     1     1     2     0     0 -1.169928896E+02 -5.621738382E+01  2.161740355E+02  2.814319529E+02  1.250000000E+02  0.00000E+00  9.000E+00
       2     1     1     2   501     0  7.619767667E+01  3.455540782E+01  1.746393488E+02  1.936467513E+02  0.000000000E+00  0.00000E+00  9.000E+00
#rwgt            1           1   6.9686560436015454E-002           4      240276           0
</event>
<event>
      5   9999  3.19816E-02  1.84580E+02 -1.00000E+00  1.12931E-01
      21    -1     0     0   511   501  0.000000000E+00  0.000000000E+00  7.381456558E+02  7.381456558E+02  0.000000000E+00  0.00000E+00  9.000E+00
      21    -1     0     0   501   502  0.000000000E+00  0.000000000E+00 -1.852889409E+02  1.852889409E+02  0.000000000E+00  0.00000E+00  9.000E+00
      25     1     1     2     0     0 -1.058230113E+02  1.498276364E+02  1.798413534E+02  2.856829409E+02  1.250000000E+02  0.00000E+00  9.000E+00
      25     1     1     2     0     0  2.866640683E+02 -1.128645480E+02  2.306409750E+02  4.046417596E+02  1.250000000E+02  0.00000E+00  9.000E+00
      21     1     1     2   511   502 -1.808410570E+02 -3.696308837E+01  1.423743865E+02  2.331098963E+02  0.000000000E+00  0.00000E+00  9.000E+00
#rwgt            1           1   2.6899853689556687E-002           4      240329           0
</event>
<event>
      5   9999  3.19816E-02  1.57667E+02 -1.00000E+00  1.15542E-01
      21    -1     0     0   502   501  0.000000000E+00  0.000000000E+00  4.660134697E+02  4.660134697E+02  0.000000000E+00  0.00000E+00  9.000E+00
      21    -1     0     0   501   512  0.000000000E+00  0.000000000E+00 -1.917545881E+02  1.917545881E+02  0.000000000E+00  0.00000E+00  9.000E+00
      25     1     1     2     0     0 -1.753885503E+02  1.464331637E+02  2.322891738E+02  3.489800500E+02  1.250000000E+02  0.00000E+00  9.000E+00
      25     1     1     2     0     0  4.472534909E+01 -5.819446086E+01  4.272015426E+01  1.511190382E+02  1.250000000E+02  0.00000E+00  9.000E+00
      21     1     1     2   502   512  1.306632012E+02 -8.823870284E+01 -7.504464159E-01  1.576689697E+02  1.179923588E-06  0.00000E+00  9.000E+00
#rwgt            1           1   2.5268662077248580E-002           4      240394           0
</event>
<event>
      5   9999  3.19816E-02  1.23034E+02 -1.00000E+00  1.19910E-01
      21    -1     0     0   502   511  0.000000000E+00  0.000000000E+00  8.166085616E+02  8.166085616E+02  0.000000000E+00  0.00000E+00  9.000E+00
      21    -1     0     0   501   502  0.000000000E+00  0.000000000E+00 -2.047314395E+02  2.047314395E+02  0.000000000E+00  0.00000E+00  9.000E+00
      25     1     1     2     0     0  1.303152032E+02 -1.359056166E+02  9.939932815E+00  2.262215531E+02  1.250000000E+02  0.00000E+00  9.000E+00
      25     1     1     2     0     0 -2.533490154E+02  1.360097502E+02  1.932505555E+02  3.683139326E+02  1.250000000E+02  0.00000E+00  9.000E+00
      21     1     1     2   501   511  1.230338122E+02 -1.041335413E-01  4.086866337E+02  4.268045154E+02  9.344061824E-06  0.00000E+00  9.000E+00
#rwgt            1           1   2.7553777987713825E-002           4      240440           0
</event>
<event>
      5   9999  3.19816E-02  4.03411E+01 -1.00000E+00  1.44612E-01
      21    -1     0     0   512   501  0.000000000E+00  0.000000000E+00  6.583794059E+01  6.583794059E+01  0.000000000E+00  0.00000E+00  9.000E+00
      21    -1     0     0   501   502  0.000000000E+00  0.000000000E+00 -1.233129233E+03  1.233129233E+03  0.000000000E+00  0.00000E+00  9.000E+00
      25     1     1     2     0     0 -2.349472364E+01 -2.134032557E+02 -7.115284928E+02  7.536516090E+02  1.250000000E+02  0.00000E+00  9.000E+00
      25     1     1     2     0     0 -2.553388067E+00  1.825990515E+02 -4.538496484E+02  5.049291403E+02  1.250000000E+02  0.00000E+00  9.000E+00
      21     1     1     2   512   502  2.604811170E+01  3.080420428E+01 -1.913151226E+00  4.038642436E+01  1.452079739E-06  0.00000E+00  9.000E+00
#rwgt            1           1   3.5245962573417208E-002           4      240493           0
</event>
<event>
      5   9999  3.19816E-02  8.69415E+01 -1.00000E+00  1.26624E-01
       2    -1     0     0   502     0  0.000000000E+00  0.000000000E+00  1.740899160E+03  1.740899160E+03  0.000000000E+00  0.00000E+00  9.000E+00
      21    -1     0     0   501   502  0.000000000E+00  0.000000000E+00 -4.696714358E+02  4.696714358E+02  0.000000000E+00  0.00000E+00  9.000E+00
      25     1     1     2     0     0 -1.259291035E+02  8.665358365E+02  6.795250383E+02  1.115402068E+03  1.250000000E+02  0.00000E+00  9.000E+00
      25     1     1     2     0     0  1.156557601E+02 -7.802034484E+02  6.117320702E+02  1.005949701E+03  1.250000000E+02  0.00000E+00  9.000E+00
       2     1     1     2   501     0  1.027334337E+01 -8.633238811E+01 -2.002938433E+01  8.921882681E+01  4.768371582E-07  0.00000E+00  9.000E+00
#rwgt            1           1   2.8576342453309169E-002           4      240591           0
</event>
<event>
      5   9999  3.19816E-02  4.64424E+01 -1.00000E+00  1.40929E-01
      21    -1     0     0   502   501  0.000000000E+00  0.000000000E+00  4.813952276E+02  4.813952276E+02  0.000000000E+00  0.00000E+00  9.000E+00
      21    -1     0     0   501   511  0.000000000E+00  0.000000000E+00 -2.619696446E+02  2.619696446E+02  0.000000000E+00  0.00000E+00  9.000E+00
      25     1     1     2     0     0 -9.469754514E-01  9.714990209E+01  6.850795613E+01  1.725031602E+02  1.250000000E+02  0.00000E+00  9.000E+00
      25     1     1     2     0     0  4.729398493E+01 -9.417453709E+01  3.394081761E+02  3.767339571E+02  1.250000000E+02  0.00000E+00  9.000E+00
      21     1     1     2   502   511 -4.634700948E+01 -2.975364991E+00 -1.884905492E+02  1.941277549E+02  0.000000000E+00  0.00000E+00  9.000E+00
#rwgt            1           1   2.9711337510905846E-002           4      240690           0
</event>
<event>
      5   9999  3.19816E-02  4.81864E+02 -1.00000E+00  9.93100E-02
      21    -1     0     0   502   501  0.000000000E+00  0.000000000E+00  2.965628307E+03  2.965628307E+03  0.000000000E+00  0.00000E+00  9.000E+00
      21    -1     0     0   501   512  0.000000000E+00  0.000000000E+00 -1.072272629E+03  1.072272629E+03  0.000000000E+00  0.00000E+00  9.000E+00
      25     1     1     2     0     0  1.182581462E+03 -2.004659476E+02  1.760461844E+03  2.133901688E+03  1.250000000E+02  0.00000E+00  9.000E+00
      25     1     1     2     0     0 -1.129628943E+03  6.794111411E+02  3.587136362E+02  1.371846027E+03  1.250000000E+02  0.00000E+00  9.000E+00
      21     1     1     2   502   512 -5.295251887E+01 -4.789451935E+02 -2.258198015E+02  5.321532208E+02  1.009274029E-05  0.00000E+00  9.000E+00
#rwgt            1           1   2.8463994003313325E-002           4      240793           0
</event>
<event>
      5   9999  3.19816E-02  1.28982E+01 -1.00000E+00  1.83791E-01
      21    -1     0     0   502   511  0.000000000E+00  0.000000000E+00  4.660651863E+02  4.660651863E+02  0.000000000E+00  0.00000E+00  9.000E+00
      21    -1     0     0   501   502  0.000000000E+00  0.000000000E+00 -1.363075770E+02  1.363075770E+02  0.000000000E+00  0.00000E+00  9.000E+00
      25     1     1     2     0     0 -2.193729148E+01 -5.663053482E+01 -2.513029652E+01  1.412260388E+02  1.250000000E+02  0.00000E+00  9.000E+00
      25     1     1     2     0     0  1.046416473E+01  6.252383856E+01  3.966590770E+01  1.456609535E+02  1.250000000E+02  0.00000E+00  9.000E+00
      21     1     1     2   501   511  1.147312674E+01 -5.893303734E+00  3.152219981E+02  3.154857711E+02  7.629394531E-06  0.00000E+00  9.000E+00
#rwgt            1           1   2.6587880935514372E-002           4      240865           0
</event>
<event>
      5   9999  3.19816E-02  3.17343E+02 -1.00000E+00  1.04805E-01
      21    -1     0     0   502   501  0.000000000E+00  0.000000000E+00  2.674344918E+02  2.674344918E+02  0.000000000E+00  0.00000E+00  9.000E+00
      21    -1     0     0   512   502  0.000000000E+00  0.000000000E+00 -7.308912542E+02  7.308912542E+02  0.000000000E+00  0.00000E+00  9.000E+00
      25     1     1     2     0     0 -2.065982780E+01  9.212408819E+01 -1.329519819E+02  2.054626623E+02  1.250000000E+02  0.00000E+00  9.000E+00
      25     1     1     2     0     0  3.375127081E+02 -7.449324162E+01 -5.308997693E+01  3.713591480E+02  1.250000000E+02  0.00000E+00  9.000E+00
      21     1     1     2   512   501 -3.168528803E+02 -1.763084657E+01 -2.774148036E+02  4.215039356E+02  3.814697266E-06  0.00000E+00  9.000E+00
#rwgt            1           1   2.9247230385729454E-002           4      241057           0
</event>
<event>
      5   9999  3.19816E-02  1.10554E+01 -1.00000E+00  1.90851E-01
      21    -1     0     0   511   501  0.000000000E+00  0.000000000E+00  2.577985807E+02  2.577985807E+02  0.000000000E+00  0.00000E+00  9.000E+00
      21    -1     0     0   501   502  0.000000000E+00  0.000000000E+00 -2.979293865E+02  2.979293865E+02  0.000000000E+00  0.00000E+00  9.000E+00
      25     1     1     2     0     0  1.392406642E+02 -1.166209163E+01 -8.145010610E+01  2.044091160E+02  1.250000000E+02  0.00000E+00  9.000E+00
      25     1     1     2     0     0 -1.488727599E+02  6.235746329E+00 -9.367337448E+01  2.158742325E+02  1.250000000E+02  0.00000E+00  9.000E+00
      21     1     1     2   511   502  9.632095701E+00  5.426345298E+00  1.349926748E+02  1.354446187E+02  2.697398305E-06  0.00000E+00  9.000E+00
#rwgt            1           1   2.5860606205600604E-002           4      241087           0
</event>
<event>
      5   9999  3.19816E-02  6.18752E+01 -1.00000E+00  1.33993E-01
      21    -1     0     0   512   501  0.000000000E+00  0.000000000E+00  3.238956044E+02  3.238956044E+02  0.000000000E+00  0.00000E+00  9.000E+00
      21    -1     0     0   501   502  0.000000000E+00  0.000000000E+00 -4.234679319E+02  4.234679319E+02  0.000000000E+00  0.00000E+00  9.000E+00
      25     1     1     2     0     0 -1.991034047E+02  1.210973312E+02 -1.847335453E+02  3.225805514E+02  1.250000000E+02  0.00000E+00  9.000E+00
      25     1     1     2     0     0  1.836377549E+02 -1.810085165E+02 -3.593348304E+01  2.887959890E+02  1.250000000E+02  0.00000E+00  9.000E+00
      21     1     1     2   512   502  1.546564984E+01  5.991118525E+01  1.210947009E+02  1.359869958E+02  0.000000000E+00  0.00000E+00  9.000E+00
#rwgt            1           1   3.0611436304986951E-002           4      241216           0
</event>
<event>
      5   9999  3.19816E-02  1.39441E+01 -1.00000E+00  1.80423E-01
      21    -1     0     0   511   501  0.000000000E+00  0.000000000E+00  8.112112491E+02  8.112112491E+02  0.000000000E+00  0.00000E+00  9.000E+00
      21    -1     0     0   501   502  0.000000000E+00  0.000000000E+00 -9.376389379E+01  9.376389379E+01  0.000000000E+00  0.00000E+00  9.000E+00
      25     1     1     2     0     0 -1.126705592E+02  1.965076008E+02  2.488560337E+02  3.589766254E+02  1.250000000E+02  0.00000E+00  9.000E+00
      25     1     1     2     0     0  1.154757139E+02 -1.828485824E+02  3.699796723E+02  4.464058720E+02  1.250000000E+02  0.00000E+00  9.000E+00
      21     1     1     2   511   502 -2.805154688E+00 -1.365901835E+01  9.861164926E+01  9.959264553E+01  1.348699152E-06  0.00000E+00  9.000E+00
#rwgt            1           1   2.6271038128986398E-002           4      241348           0
</event>
<event>
      5   9999  3.19816E-02  6.44116E+01 -1.00000E+00  1.33077E-01
      21    -1     0     0   502   512  0.000000000E+00  0.000000000E+00  1.646087909E+03  1.646087909E+03  0.000000000E+00  0.00000E+00  9.000E+00
      21    -1     0     0   501   502  0.000000000E+00  0.000000000E+00 -7.272432326E+01  7.272432326E+01  0.000000000E+00  0.00000E+00  9.000E+00
      25     1     1     2     0     0 -2.313773829E+02 -9.404725484E+01  4.901436603E+02  5.641331290E+02  1.250000000E+02  0.00000E+00  9.000E+00
      25     1     1     2     0     0  2.110896120E+02  1.551803422E+02  5.929141735E+02  6.601605714E+02  1.250000000E+02  0.00000E+00  9.000E+00
      21     1     1     2   501   512  2.028777094E+01 -6.113308736E+01  4.903057518E+02  4.945185318E+02  5.394796609E-06  0.00000E+00  9.000E+00
#rwgt            1           1   2.8427189254201120E-002           4      241496           0
</event>
<event>
      5   9999  3.19816E-02  4.95878E+02 -1.00000E+00  9.89543E-02
      21    -1     0     0   502   501  0.000000000E+00  0.000000000E+00  8.274373150E+02  8.274373150E+02  0.000000000E+00  0.00000E+00  9.000E+00
       2    -1     0     0   501     0  0.000000000E+00  0.000000000E+00 -1.230804481E+03  1.230804481E+03  0.000000000E+00  0.00000E+00  9.000E+00
      25     1     1     2     0     0  4.234818133E+02 -1.968283190E+02 -6.527623826E+01  4.878157651E+02  1.250000000E+02  0.00000E+00  9.000E+00
      25     1     1     2     0     0  6.646244888E+01  2.733084879E+02  5.055291443E+02  5.918610499E+02  1.250000000E+02  0.00000E+00  9.000E+00
       2     1     1     2   502     0 -4.899442622E+02 -7.648016888E+01 -8.436200724E+02  9.785649814E+02  1.078959322E-05  0.00000E+00  9.000E+00
#rwgt            2          13   1.6165613227835528E-003           4      241901           0
</event>
<event>
      5   9999  3.19816E-02  1.09484E+02 -1.00000E+00  1.22084E-01
      -2    -1     0     0     0   501  0.000000000E+00  0.000000000E+00  8.483460051E+02  8.483460051E+02  0.000000000E+00  0.00000E+00  9.000E+00
      21    -1     0     0   501   502  0.000000000E+00  0.000000000E+00 -6.169927479E+02  6.169927479E+02  0.000000000E+00  0.00000E+00  9.000E+00
      25     1     1     2     0     0 -4.762460802E+02  1.031988023E+01  4.452623175E+02  6.639279782E+02  1.250000000E+02  0.00000E+00  9.000E+00
      25     1     1     2     0     0  3.731532461E+02 -4.717786376E+01 -4.141154269E+02  5.732239377E+02  1.250000000E+02  0.00000E+00  9.000E+00
      -2     1     1     2     0   502  1.030928341E+02  3.685798353E+01  2.002063667E+02  2.281868372E+02  2.697398305E-06  0.00000E+00  9.000E+00
#rwgt            2           4   3.7319816701814934E-005           4      241920           0
</event>
<event>
      5   9999  3.19816E-02  2.16802E+01 -1.00000E+00  1.63530E-01
      21    -1     0     0   502   501  0.000000000E+00  0.000000000E+00  9.885818381E+02  9.885818381E+02  0.000000000E+00  0.00000E+00  9.000E+00
      21    -1     0     0   511   502  0.000000000E+00  0.000000000E+00 -6.142178919E+02  6.142178919E+02  0.000000000E+00  0.00000E+00  9.000E+00
      25     1     1     2     0     0 -5.867416238E+02  2.477950469E+02  2.915098246E+02  7.115272983E+02  1.250000000E+02  0.00000E+00  9.000E+00
      25     1     1     2     0     0  5.832009502E+02 -2.691841289E+02  2.663457687E+02  7.065044318E+02  1.250000000E+02  0.00000E+00  9.000E+00
      21     1     1     2   511   501  3.540673550E+00  2.138908200E+01 -1.834916471E+02  1.847679998E+02  2.697398305E-06  0.00000E+00  9.000E+00
#rwgt            1           1   2.1852820960175538E-002           4      241939           0
</event>
<event>
      5   9999  3.19816E-02  2.03095E+02 -1.00000E+00  1.11406E-01
      21    -1     0     0   512   501  0.000000000E+00  0.000000000E+00  1.659775821E+03  1.659775821E+03  0.000000000E+00  0.00000E+00  9.000E+00
      21    -1     0     0   501   502  0.000000000E+00  0.000000000E+00 -1.150150001E+02  1.150150001E+02  0.000000000E+00  0.00000E+00  9.000E+00
      25     1     1     2     0     0  3.422146806E+02 -1.206668502E+02  4.272522105E+02  5.743177063E+02  1.250000000E+02  0.00000E+00  9.000E+00
      25     1     1     2     0     0 -1.404144584E+02  9.776637934E+01  3.753839626E+02  4.310598618E+02  1.250000000E+02  0.00000E+00  9.000E+00
      21     1     1     2   512   502 -2.018002221E+02  2.290047083E+01  7.421246482E+02  7.694132535E+02  1.078959322E-05  0.00000E+00  9.000E+00
#rwgt            2          11   2.0053119900918376E-003           4      242387           0
</event>
<event>
      5   9999  3.19816E-02  5.23472E+00 -1.00000E+00  2.35087E-01
      21    -1     0     0   502   511  0.000000000E+00  0.000000000E+00  2.291257085E+02  2.291257085E+02  0.000000000E+00  0.00000E+00  9.000E+00
      21    -1     0     0   501   502  0.000000000E+00  0.000000000E+00 -2.868529223E+02  2.868529223E+02  0.000000000E+00  0.00000E+00  9.000E+00
      25     1     1     2     0     0 -1.640150958E+01 -2.188091383E+02 -1.763170605E+01  2.531448707E+02  1.250000000E+02  0.00000E+00  9.000E+00
      25     1     1     2     0     0  2.124220949E+01  2.168166842E+02 -4.555909364E+01  2.552671875E+02  1.250000000E+02  0.00000E+00  9.000E+00
      21     1     1     2   501   511 -4.840699910E+00  1.992454108E+00  5.463585940E+00  7.566572560E+00  1.032382731E-07  0.00000E+00  9.000E+00
#rwgt            1           1   2.8233453315591239E-002           4      242422           0
</event>
<event>
      5   9999  3.19816E-02  3.37530E+01 -1.00000E+00  1.49567E-01
      21    -1     0     0   502   501  0.000000000E+00  0.000000000E+00  5.981337711E+02  5.981337711E+02  0.000000000E+00  0.00000E+00  9.000E+00
      21    -1     0     0   501   512  0.000000000E+00  0.000000000E+00 -3.496406762E+02  3.496406762E+02  0.000000000E+00  0.00000E+00  9.000E+00
      25     1     1     2     0     0  3.594570003E+02  1.153843030E+02  1.551653742E+02  4.268772257E+02  1.250000000E+02  0.00000E+00  9.000E+00
      25     1     1     2     0     0 -3.257170411E+02 -1.144464423E+02  1.936081417E+02  4.150887754E+02  1.250000000E+02  0.00000E+00  9.000E+00
      21     1     1     2   502   512 -3.373995929E+01 -9.378607816E-01 -1.002804210E+02  1.058084461E+02  1.907348633E-06  0.00000E+00  9.000E+00
#rwgt            1           1   2.8349444915082025E-002           4      242777           0
</event>
<event>
      5   9999  3.19816E-02  8.48995E+01 -1.00000E+00  1.27112E-01
      21    -1     0     0   502   511  0.000000000E+00  0.000000000E+00  7.717812126E+02  7.717812126E+02  0.000000000E+00  0.00000E+00  9.000E+00
      21    -1     0     0   501   502  0.000000000E+00  0.000000000E+00 -1.758973462E+02  1.758973462E+02  0.000000000E+00  0.00000E+00  9.000E+00
      25     1     1     2     0     0  1.811126407E+02  2.124809955E+02  2.182643604E+02  3.757849026E+02  1.250000000E+02  0.00000E+00  9.000E+00
      25     1     1     2     0     0 -1.417634023E+02 -2.877110876E+02  2.934206924E+02  4.523220478E+02  1.250000000E+02  0.00000E+00  9.000E+00
      21     1     1     2   501   511 -3.934923836E+01  7.523009218E+01  8.419881361E+01  1.195716084E+02  1.651812370E-06  0.00000E+00  9.000E+00
#rwgt            1           1   2.7583298225965731E-002           4      242883           0
</event>
<event>
      5   9999  3.19816E-02  3.94206E+02 -1.00000E+00  1.01876E-01
      21    -1     0     0   502   512  0.000000000E+00  0.000000000E+00  2.695608149E+02  2.695608149E+02  0.000000000E+00  0.00000E+00  9.000E+00
      21    -1     0     0   501   502  0.000000000E+00  0.000000000E+00 -1.957869899E+03  1.957869899E+03  0.000000000E+00  0.00000E+00  9.000E+00
      25     1     1     2     0     0  1.191277497E+02  9.888060750E+01  9.345810424E+00  1.992012537E+02  1.250000000E+02  0.00000E+00  9.000E+00
      25     1     1     2     0     0 -5.067317711E+02 -1.707268268E+02 -1.478533472E+03  1.577216207E+03  1.250000000E+02  0.00000E+00  9.000E+00
      21     1     1     2   501   512  3.876040214E+02  7.184621932E+01 -2.191214229E+02  4.510132532E+02  1.078959322E-05  0.00000E+00  9.000E+00
#rwgt            1           1   2.8036868344696764E-002           4      243108           0
</event>
<event>
      5   9999  3.19816E-02  9.62195E+00 -1.00000E+00  1.97712E-01
      21    -1     0     0   502   501  0.000000000E+00  0.000000000E+00  1.061848097E+03  1.061848097E+03  0.000000000E+00  0.00000E+00  9.000E+00
       1    -1     0     0   501     0  0.000000000E+00  0.000000000E+00 -2.259937719E+03  2.259937719E+03  0.000000000E+00  0.00000E+00  9.000E+00
      25     1     1     2     0     0 -1.225156023E+03 -4.131405962E+02 -1.025219270E+02  1.303007359E+03  1.250000000E+02  0.00000E+00  9.000E+00
      25     1     1     2     0     0  1.234523347E+03  4.153394918E+02 -4.658014686E+02  1.388938731E+03  1.250000000E+02  0.00000E+00  9.000E+00
       1     1     1     2   502     0 -9.367324866E+00 -2.198895609E+00 -6.297662265E+02  6.298397272E+02  7.629394531E-06  0.00000E+00  9.000E+00
#rwgt            2          12   4.0002317481652302E-004           4      243256           0
</event>
<event>
      5   9999  3.19816E-02  2.36773E+02 -1.00000E+00  1.09043E-01
      21    -1     0     0   511   501  0.000000000E+00  0.000000000E+00  5.400619723E+02  5.400619723E+02  0.000000000E+00  0.00000E+00  9.000E+00
      21    -1     0     0   501   502  0.000000000E+00  0.000000000E+00 -9.009958717E+02  9.009958717E+02  0.000000000E+00  0.00000E+00  9.000E+00
      25     1     1     2     0     0  5.596195629E+02  1.033384370E+02 -1.957426614E+02  6.146487430E+02  1.250000000E+02  0.00000E+00  9.000E+00
      25     1     1     2     0     0 -4.526777839E+02 -3.145842558E+02 -1.677764621E+02  5.896222276E+02  1.250000000E+02  0.00000E+00  9.000E+00
      21     1     1     2   511   502 -1.069417790E+02  2.112458188E+02  2.585224121E+00  2.367868734E+02  3.469123461E-06  0.00000E+00  9.000E+00
#rwgt            1           1   2.5785203775622729E-002           4      243305           0
</event>
<event>
      5   9999  3.19816E-02  3.15574E+01 -1.00000E+00  1.51529E-01
      21    -1     0     0   502   501  0.000000000E+00  0.000000000E+00  1.730092136E+02  1.730092136E+02  0.000000000E+00  0.00000E+00  9.000E+00
      21    -1     0     0   512   502  0.000000000E+00  0.000000000E+00 -3.834108488E+02  3.834108488E+02  0.000000000E+00  0.00000E+00  9.000E+00
      25     1     1     2     0     0 -1.830555251E+02  1.105432337E+02 -3.919825941E+01  2.507800537E+02  1.250000000E+02  0.00000E+00  9.000E+00
      25     1     1     2     0     0  1.591354317E+02 -8.995927728E+01 -1.459593630E+02  2.652280016E+02  1.250000000E+02  0.00000E+00  9.000E+00
      21     1     1     2   512   501  2.392009335E+01 -2.058395647E+01 -2.524401286E+01  4.041200706E+01  3.371747881E-07  0.00000E+00  9.000E+00
#rwgt            1           1   2.5954540898067011E-002           4      243366           0
</event>
<event>
      5   9999  3.19816E-02  1.46828E+02 -1.00000E+00  1.16763E-01
      21    -1     0     0   502   501  0.000000000E+00  0.000000000E+00  5.786336758E+02  5.786336758E+02  0.000000000E+00  0.00000E+00  9.000E+00
      21    -1     0     0   511   502  0.000000000E+00  0.000000000E+00 -7.047620653E+02  7.047620653E+02  0.000000000E+00  0.00000E+00  9.000E+00
      25     1     1     2     0     0 -1.952358059E+02  2.765176660E+02  3.392876919E+02  4.952980693E+02  1.250000000E+02  0.00000E+00  9.000E+00
      25     1     1     2     0     0  2.088184803E+02 -4.227165488E+02 -3.351750289E+02  5.918291462E+02  1.250000000E+02  0.00000E+00  9.000E+00
      21     1     1     2   511   501 -1.358267438E+01  1.461988827E+02 -1.302410525E+02  1.962685255E+02  2.697398305E-06  0.00000E+00  9.000E+00
#rwgt            2          11   4.5973082095007731E-003           4      243481           0
</event>
<event>
      5   9999  3.19816E-02  3.39538E+01 -1.00000E+00  1.49397E-01
      21    -1     0     0   502   512  0.000000000E+00  0.000000000E+00  9.659103088E+02  9.659103088E+02  0.000000000E+00  0.00000E+00  9.000E+00
      21    -1     0     0   501   502  0.000000000E+00  0.000000000E+00 -5.722215341E+02  5.722215341E+02  0.000000000E+00  0.00000E+00  9.000E+00
      25     1     1     2     0     0 -4.726173399E+02  5.059773443E+01  6.067050398E+02  7.807965714E+02  1.250000000E+02  0.00000E+00  9.000E+00
      25     1     1     2     0     0  4.959335831E+02 -2.591553106E+01 -3.473426882E+02  6.187840307E+02  1.250000000E+02  0.00000E+00  9.000E+00
      21     1     1     2   501   512 -2.331624326E+01 -2.468220336E+01  1.343264231E+02  1.385512408E+02  3.303624740E-06  0.00000E+00  9.000E+00
#rwgt            1           1   3.5108009087826068E-002           4      243501           0
</event>
<event>
      5   9999  3.19816E-02  6.07841E+01 -1.00000E+00  1.34403E-01
      21    -1     0     0   502   511  0.000000000E+00  0.000000000E+00  1.558068629E+03  1.558068629E+03  0.000000000E+00  0.00000E+00  9.000E+00
      21    -1     0     0   501   502  0.000000000E+00  0.000000000E+00 -1.324019682E+03  1.324019682E+03  0.000000000E+00  0.00000E+00  9.000E+00
      25     1     1     2     0     0  3.118306162E+02  9.037526193E+01 -5.752669993E+02  6.722820402E+02  1.250000000E+02  0.00000E+00  9.000E+00
      25     1     1     2     0     0 -3.572041185E+02 -4.992833701E+01 -6.475422918E+02  7.516805443E+02  1.250000000E+02  0.00000E+00  9.000E+00
      21     1     1     2   501   511  4.537350231E+01 -4.044692492E+01  1.456858238E+03  1.458125727E+03  2.157918644E-05  0.00000E+00  9.000E+00
#rwgt            1           1   2.7108954494124166E-002           4      243609           0
</event>
<event>
      5   9999  3.19816E-02  5.68868E+01 -1.00000E+00  1.35952E-01
      21    -1     0     0   512   501  0.000000000E+00  0.000000000E+00  2.785958181E+02  2.785958181E+02  0.000000000E+00  0.00000E+00  9.000E+00
      21    -1     0     0   501   502  0.000000000E+00  0.000000000E+00 -9.008110448E+02  9.008110448E+02  0.000000000E+00  0.00000E+00  9.000E+00
      25     1     1     2     0     0 -1.927674260E+02  3.751819156E+02 -2.567710611E+02  5.093889753E+02  1.250000000E+02  0.00000E+00  9.000E+00
      25     1     1     2     0     0  1.490172741E+02 -3.388221322E+02 -4.320045865E+02  5.824599111E+02  1.250000000E+02  0.00000E+00  9.000E+00
      21     1     1     2   512   502  4.375015189E+01 -3.635978340E+01  6.656042079E+01  8.755797654E+01  9.536743164E-07  0.00000E+00  9.000E+00
#rwgt            1           1   2.7007732986502071E-002           4      243699           0
</event>
<event>
      5   9999  3.19816E-02  2.46958E+02 -1.00000E+00  1.08412E-01
       2    -1     0     0   502     0  0.000000000E+00  0.000000000E+00  6.244177460E+02  6.244177460E+02  0.000000000E+00  0.00000E+00  9.000E+00
      21    -1     0     0   501   502  0.000000000E+00  0.000000000E+00 -1.941258685E+02  1.941258685E+02  0.000000000E+00  0.00000E+00  9.000E+00
      25     1     1     2     0     0  4.260248616E+01  5.067595715E+01  1.028116110E+02  1.748663828E+02  1.250000000E+02  0.00000E+00  9.000E+00
      25     1     1     2     0     0  1.488054249E+02 -2.067246838E+02  2.665883113E+02  3.893231012E+02  1.250000000E+02  0.00000E+00  9.000E+00
       2     1     1     2   501     0 -1.914079111E+02  1.560487266E+02  6.089195520E+01  2.543541305E+02  4.156969970E-06  0.00000E+00  9.000E+00
#rwgt            1           1   2.6444524918332782E-002           4      243767           0
</event>
<event>
      5   9999  3.19816E-02  1.09435E+01 -1.00000E+00  1.91337E-01
      21    -1     0     0   502   501  0.000000000E+00  0.000000000E+00  6.532451239E+02  6.532451239E+02  0.000000000E+00  0.00000E+00  9.000E+00
      21    -1     0     0   501   511  0.000000000E+00  0.000000000E+00 -6.574632801E+01  6.574632801E+01  0.000000000E+00  0.00000E+00  9.000E+00
      25     1     1     2     0     0  9.475527559E+01 -9.909310563E+01  4.265055340E+02  4.651128642E+02  1.250000000E+02  0.00000E+00  9.000E+00
      25     1     1     2     0     0 -8.587567787E+01  1.054893789E+02  1.562397428E+02  2.419473049E+02  1.250000000E+02  0.00000E+00  9.000E+00
      21     1     1     2   502   511 -8.879597716E+00 -6.396273311E+00  4.753519106E+00  1.193128291E+01  3.039252468E-07  0.00000E+00  9.000E+00
#rwgt            1           1   2.6879206587596082E-002           4      243811           0
</event>
<event>
      5   9999  3.19816E-02  2.33374E+02 -1.00000E+00  1.09261E-01
      21    -1     0     0   502   501  0.000000000E+00  0.000000000E+00  4.053629453E+02  4.053629453E+02  0.000000000E+00  0.00000E+00  9.000E+00
      21    -1     0     0   501   512  0.000000000E+00  0.000000000E+00 -2.477003597E+02  2.477003597E+02  0.000000000E+00  0.00000E+00  9.000E+00
      25     1     1     2     0     0  1.172515382E+02  7.269654271E+01 -4.184129772E+01  1.908098654E+02  1.250000000E+02  0.00000E+00  9.000E+00
      25     1     1     2     0     0  1.021770371E+02  6.766193028E+00  1.564985650E+02  2.249505037E+02  1.250000000E+02  0.00000E+00  9.000E+00
      21     1     1     2   502   512 -2.194285753E+02 -7.946273574E+01  4.300531838E+01  2.373029360E+02  4.523674479E-06  0.00000E+00  9.000E+00
#rwgt            1           1   2.6492500212116549E-002           4      243969           0
</event>
<event>
      5   9999  3.19816E-02  4.63127E+02 -1.00000E+00  9.98065E-02
      21    -1     0     0   502   501  0.000000000E+00  0.000000000E+00  1.158840136E+03  1.158840136E+03  0.000000000E+00  0.00000E+00  9.000E+00
      21    -1     0     0   511   502  0.000000000E+00  0.000000000E+00 -1.172074597E+03  1.172074597E+03  0.000000000E+00  0.00000E+00  9.000E+00
      25     1     1     2     0     0  2.876038672E+02 -1.627821770E+02  3.970218205E+01  3.555492721E+02  1.250000000E+02  0.00000E+00  9.000E+00
      25     1     1     2     0     0 -3.999104221E+02  6.120857158E+02  7.459329484E+02  1.051959235E+03  1.250000000E+02  0.00000E+00  9.000E+00
      21     1     1     2   511   501  1.123065549E+02 -4.493035388E+02 -7.988695913E+02  9.234062249E+02  1.078959322E-05  0.00000E+00  9.000E+00
#rwgt            1           1   3.0944081344291465E-002           4      244024           0
</event>
<event>
      5   9999  3.19816E-02  3.41593E+01 -1.00000E+00  1.49224E-01
      21    -1     0     0   502   501  0.000000000E+00  0.000000000E+00  8.466145208E+01  8.466145208E+01  0.000000000E+00  0.00000E+00  9.000E+00
      21    -1     0     0   512   502  0.000000000E+00  0.000000000E+00 -1.309436335E+03  1.309436335E+03  0.000000000E+00  0.00000E+00  9.000E+00
      25     1     1     2     0     0  1.555935317E+02  2.221587086E+02 -3.514848576E+02  4.612271068E+02  1.250000000E+02  0.00000E+00  9.000E+00
      25     1     1     2     0     0 -1.774487976E+02 -1.959059866E+02 -8.062167588E+02  8.575999612E+02  1.250000000E+02  0.00000E+00  9.000E+00
      21     1     1     2   512   501  2.185526589E+01 -2.625272206E+01 -6.707326648E+01  7.527071900E+01  0.000000000E+00  0.00000E+00  9.000E+00
#rwgt            1           1   3.2727352309000132E-002           4      244077           0
</event>
<event>
      5   9999  3.19816E-02  5.66987E+01 -1.00000E+00  1.36030E-01
      21    -1     0     0   502   501  0.000000000E+00  0.000000000E+00  2.318846818E+03  2.318846818E+03  0.000000000E+00  0.00000E+00  9.000E+00
      21    -1     0     0   501   511  0.000000000E+00  0.000000000E+00 -1.297429595E+02  1.297429595E+02  0.000000000E+00  0.00000E+00  9.000E+00
      25     1     1     2     0     0 -3.918812756E+02 -1.590338579E+02  1.723960407E+03  1.779473851E+03  1.250000000E+02  0.00000E+00  9.000E+00
      25     1     1     2     0     0  3.362167417E+02  1.698137346E+02  4.664056331E+02  6.124031486E+02  1.250000000E+02  0.00000E+00  9.000E+00
      21     1     1     2   502   511  5.566453388E+01 -1.077987667E+01 -1.262181355E+00  5.671277788E+01  1.057352631E-06  0.00000E+00  9.000E+00
#rwgt            1           1   2.4598950232006606E-002           4      244178           0
</event>
<event>
      5   9999  3.19816E-02  1.51330E+01 -1.00000E+00  1.77023E-01
      21    -1     0     0   502   512  0.000000000E+00  0.000000000E+00  5.869884180E+02  5.869884180E+02  0.000000000E+00  0.00000E+00  9.000E+00
      21    -1     0     0   501   502  0.000000000E+00  0.000000000E+00 -1.585972215E+02  1.585972215E+02  0.000000000E+00  0.00000E+00  9.000E+00
      25     1     1     2     0     0  1.086001385E+02 -1.777082004E+02  1.274028750E+02  2.742821305E+02  1.250000000E+02  0.00000E+00  9.000E+00
      25     1     1     2     0     0 -9.454168704E+01  1.833088934E+02  8.640264599E+01  2.561848907E+02  1.250000000E+02  0.00000E+00  9.000E+00
      21     1     1     2   501   512 -1.405845143E+01 -5.600693054E+00  2.145856755E+02  2.151186183E+02  2.697398305E-06  0.00000E+00  9.000E+00
#rwgt            1           1   2.6510522149891570E-002           4      244281           0
</event>
<event>
      5   9999  3.19816E-02  9.23256E+01 -1.00000E+00  1.25408E-01
      21    -1     0     0   502   501  0.000000000E+00  0.000000000E+00  1.044890303E+02  1.044890303E+02  0.000000000E+00  0.00000E+00  9.000E+00
       2    -1     0     0   501     0  0.000000000E+00  0.000000000E+00 -3.110535658E+03  3.110535658E+03  0.000000000E+00  0.00000E+00  9.000E+00
      25     1     1     2     0     0 -1.287108053E+02  9.777610242E+01 -2.430698362E+02  3.175446155E+02  1.250000000E+02  0.00000E+00  9.000E+00
      25     1     1     2     0     0  4.289406974E+01 -6.372472826E+01 -1.447589082E+01  1.474289443E+02  1.250000000E+02  0.00000E+00  9.000E+00
       2     1     1     2   502     0  8.581673552E+01 -3.405137416E+01 -2.748500901E+03  2.750051129E+03  3.051757812E-05  0.00000E+00  9.000E+00
#rwgt            1           1   3.1711942299702707E-002           4      244476           0
</event>
<event>
      5   9999  3.19816E-02  3.65368E+01 -1.00000E+00  1.47322E-01
      21    -1     0     0   502   501  0.000000000E+00  0.000000000E+00  4.778891314E+02  4.778891314E+02  0.000000000E+00  0.00000E+00  9.000E+00
      21    -1     0     0   501   511  0.000000000E+00  0.000000000E+00 -3.254901617E+02  3.254901617E+02  0.000000000E+00  0.00000E+00  9.000E+00
      25     1     1     2     0     0  2.469246876E+02 -1.958437280E+01 -1.516506755E+02  3.161934161E+02  1.250000000E+02  0.00000E+00  9.000E+00
      25     1     1     2     0     0 -2.463408172E+02  5.611648116E+01  3.360477659E+02  4.386182379E+02  1.250000000E+02  0.00000E+00  9.000E+00
      21     1     1     2   502   511 -5.838704312E-01 -3.653210836E+01 -3.199812060E+01  4.856763910E+01  8.259061849E-07  0.00000E+00  9.000E+00
#rwgt            1           1   2.8051774307385549E-002           4      244521           0
</event>
<event>
      5   9999  3.19816E-02  1.20750E+01 -1.00000E+00  1.86744E-01
      21    -1     0     0   502   501  0.000000000E+00  0.000000000E+00  6.423718472E+02  6.423718472E+02  0.000000000E+00  0.00000E+00  9.000E+00
      21    -1     0     0   501   512  0.000000000E+00  0.000000000E+00 -2.853421383E+02  2.853421383E+02  0.000000000E+00  0.00000E+00  9.000E+00
      25     1     1     2     0     0  4.246982353E+01 -2.636486842E+02 -8.723642968E+01  3.074890393E+02  1.250000000E+02  0.00000E+00  9.000E+00
      25     1     1     2     0     0 -3.351659014E+01  2.555465176E+02  4.929132552E+02  5.701016239E+02  1.250000000E+02  0.00000E+00  9.000E+00
      21     1     1     2   502   512 -8.953233398E+00  8.102166602E+00 -4.864711655E+01  5.012332232E+01  6.743495762E-07  0.00000E+00  9.000E+00
#rwgt            1           1   2.7808361297089659E-002           4      244624           0
</event>
<event>
      5   9999  3.19816E-02  7.92669E+02 -1.00000E+00  9.34808E-02
      21    -1     0     0   502   501  0.000000000E+00  0.000000000E+00  1.188320654E+03  1.188320654E+03  0.000000000E+00  0.00000E+00  9.000E+00
       2    -1     0     0   501     0  0.000000000E+00  0.000000000E+00 -9.612546764E+02  9.612546764E+02  0.000000000E+00  0.00000E+00  9.000E+00
      25     1     1     2     0     0 -8.512790713E+01  4.640290632E+02 -1.990635441E+02  5.270873046E+02  1.250000000E+02  0.00000E+00  9.000E+00
      25     1     1     2     0     0 -4.597488973E+01  3.177225734E+02  7.029839929E+02  7.828619408E+02  1.250000000E+02  0.00000E+00  9.000E+00
       2     1     1     2   502     0  1.311027969E+02 -7.817516366E+02 -2.768544711E+02  8.396260851E+02  8.529922400E-06  0.00000E+00  9.000E+00
#rwgt            2          13   5.2708553615088622E-004           4      244961           0
</event>
<event>
      5   9999  3.19816E-02  5.57735E+01 -1.00000E+00  1.36421E-01
      21    -1     0     0   502   501  0.000000000E+00  0.000000000E+00  1.174716121E+03  1.174716121E+03  0.000000000E+00  0.00000E+00  9.000E+00
      21    -1     0     0   511   502  0.000000000E+00  0.000000000E+00 -3.261440423E+02  3.261440423E+02  0.000000000E+00  0.00000E+00  9.000E+00
      25     1     1     2     0     0  4.273583512E+02 -1.043251698E+02  2.267530818E+01  4.578843423E+02  1.250000000E+02  0.00000E+00  9.000E+00
      25     1     1     2     0     0 -4.701381259E+02  6.853999491E+01  8.503611721E+02  9.820726610E+02  1.250000000E+02  0.00000E+00  9.000E+00
      21     1     1     2   511   501  4.277977474E+01  3.578517490E+01 -2.446440205E+01  6.090315949E+01  5.840038640E-07  0.00000E+00  9.000E+00
#rwgt            1           1   2.8351891502738948E-002           4      244980           0
</event>
<event>
      5   9999  3.19816E-02  7.79638E+01 -1.00000E+00  1.28894E-01
      21    -1     0     0   502   512  0.000000000E+00  0.000000000E+00  1.216229159E+02  1.216229159E+02  0.000000000E+00  0.00000E+00  9.000E+00
      21    -1     0     0   501   502  0.000000000E+00  0.000000000E+00 -1.138696153E+03  1.138696153E+03  0.000000000E+00  0.00000E+00  9.000E+00
      25     1     1     2     0     0 -3.601204891E+01 -1.842071825E+02 -8.460881147E+01  2.408584745E+02  1.250000000E+02  0.00000E+00  9.000E+00
      25     1     1     2     0     0 -4.115964641E+01  1.952925609E+02 -9.075597981E+02  9.376156398E+02  1.250000000E+02  0.00000E+00  9.000E+00
      21     1     1     2   501   512  7.717169532E+01 -1.108537837E+01 -2.490462803E+01  8.184495507E+01  1.784161275E-06  0.00000E+00  9.000E+00
#rwgt            1           1   2.7628730696909867E-002           4      245124           0
</event>
<event>
      5   9999  3.19816E-02  7.71497E+01 -1.00000E+00  1.29117E-01
       2    -1     0     0   502     0  0.000000000E+00  0.000000000E+00  2.406330847E+03  2.406330847E+03  0.000000000E+00  0.00000E+00  9.000E+00
      21    -1     0     0   501   502  0.000000000E+00  0.000000000E+00 -2.530694065E+02  2.530694065E+02  0.000000000E+00  0.00000E+00  9.000E+00
      25     1     1     2     0     0  4.588837762E+01 -2.949593433E+02 -7.832896374E+01  3.329672416E+02  1.250000000E+02  0.00000E+00  9.000E+00
      25     1     1     2     0     0 -5.496118263E+01  3.715737359E+02  7.982669084E+02  8.910346962E+02  1.250000000E+02  0.00000E+00  9.000E+00
       2     1     1     2   501     0  9.072805001E+00 -7.661439264E+01  1.433323496E+03  1.435398316E+03  0.000000000E+00  0.00000E+00  9.000E+00
#rwgt            1           1   3.2786689323146372E-002           4      245216           0
</event>
<event>
      5   9999  3.19816E-02  2.71222E+02 -1.00000E+00  1.07035E-01
      21    -1     0     0   502   501  0.000000000E+00  0.000000000E+00  9.341308464E+02  9.341308464E+02  0.000000000E+00  0.00000E+00  9.000E+00
      21    -1     0     0   501   511  0.000000000E+00  0.000000000E+00 -7.784020378E+02  7.784020378E+02  0.000000000E+00  0.00000E+00  9.000E+00
      25     1     1     2     0     0 -4.179482403E+01  6.798293851E+02  1.000745130E+02  6.996818622E+02  1.250000000E+02  0.00000E+00  9.000E+00
      25     1     1     2     0     0 -2.291326308E+02 -6.924641702E+02  4.623921110E+01  7.414657471E+02  1.250000000E+02  0.00000E+00  9.000E+00
      21     1     1     2   502   511  2.709274549E+02  1.263478509E+01  9.415084500E+00  2.713852749E+02  2.399040675E-06  0.00000E+00  9.000E+00
#rwgt            1           1   2.9815622278497145E-002           4      245327           0
</event>
<event>
      5   9999  3.19816E-02  2.56270E+01 -1.00000E+00  1.57949E-01
      21    -1     0     0   502   501  0.000000000E+00  0.000000000E+00  7.794913795E+02  7.794913795E+02  0.000000000E+00  0.00000E+00  9.000E+00
      21    -1     0     0   512   502  0.000000000E+00  0.000000000E+00 -2.482682553E+02  2.482682553E+02  0.000000000E+00  0.00000E+00  9.000E+00
      25     1     1     2     0     0  2.202082992E+02  2.398057177E+02  5.543173951E+02  6.548978942E+02  1.250000000E+02  0.00000E+00  9.000E+00
      25     1     1     2     0     0 -2.363900004E+02 -2.199337335E+02 -2.520813058E+01  3.471477053E+02  1.250000000E+02  0.00000E+00  9.000E+00
      21     1     1     2   512   501  1.618170123E+01 -1.987198415E+01  2.113859650E+00  2.571403530E+01  6.336060651E-07  0.00000E+00  9.000E+00
#rwgt            1           1   3.1997941840821567E-002           4      245375           0
</event>
<event>
      5   9999  3.19816E-02  6.50770E+01 -1.00000E+00  1.32845E-01
      21    -1     0     0   502   501  0.000000000E+00  0.000000000E+00  3.263691964E+02  3.263691964E+02  0.000000000E+00  0.00000E+00  9.000E+00
      21    -1     0     0   511   502  0.000000000E+00  0.000000000E+00 -4.988391290E+02  4.988391290E+02  0.000000000E+00  0.00000E+00  9.000E+00
      25     1     1     2     0     0  2.865875991E+02  1.085724454E+02 -3.195131913E+01  3.325151345E+02  1.250000000E+02  0.00000E+00  9.000E+00
      25     1     1     2     0     0 -3.325260025E+02 -1.546666868E+02 -6.477193505E+01  3.928304086E+02  1.250000000E+02  0.00000E+00  9.000E+00
      21     1     1     2   511   501  4.593840333E+01  4.609424149E+01 -7.574667840E+01  9.986278229E+01  9.536743164E-07  0.00000E+00  9.000E+00
#rwgt            1           1   2.8203940787865905E-002           4      245541           0
</event>
<event>
      5   9999  3.19816E-02  2.08983E+02 -1.00000E+00  1.10958E-01
      21    -1     0     0   502   501  0.000000000E+00  0.000000000E+00  5.767711648E+02  5.767711648E+02  0.000000000E+00  0.00000E+00  9.000E+00
       2    -1     0     0   501     0  0.000000000E+00  0.000000000E+00 -1.613279421E+03  1.613279421E+03  0.000000000E+00  0.00000E+00  9.000E+00
      25     1     1     2     0     0 -1.041798013E+02  5.433443239E+00  4.937830889E+02  5.199323919E+02  1.250000000E+02  0.00000E+00  9.000E+00
      25     1     1     2     0     0  1.791700088E+01 -1.957821697E+02 -1.568150345E+02  2.808338156E+02  1.250000000E+02  0.00000E+00  9.000E+00
       2     1     1     2   502     0  8.626280043E+01  1.903487265E+02 -1.373476310E+03  1.389284378E+03  0.000000000E+00  0.00000E+00  9.000E+00
#rwgt            1           1   2.9007609103218059E-002           4      245638           0
</event>
<event>
      5   9999  3.19816E-02  1.10477E+02 -1.00000E+00  1.21912E-01
      21    -1     0     0   511   501  0.000000000E+00  0.000000000E+00  7.471676492E+02  7.471676492E+02  0.000000000E+00  0.00000E+00  9.000E+00
      21    -1     0     0   501   502  0.000000000E+00  0.000000000E+00 -2.362056000E+02  2.362056000E+02  0.000000000E+00  0.00000E+00  9.000E+00
      25     1     1     2     0     0 -9.946975006E+01  1.397401528E+02  2.954004164E+02  3.637415944E+02  1.250000000E+02  0.00000E+00  9.000E+00
      25     1     1     2     0     0 -7.504672047E+00 -1.121409616E+02 -1.576224213E+02  2.304381545E+02  1.250000000E+02  0.00000E+00  9.000E+00
      21     1     1     2   511   502  1.069744221E+02 -2.759919118E+01  3.731840542E+02  3.891935003E+02  5.394796609E-06  0.00000E+00  9.000E+00
#rwgt            1           1   2.6752306637356220E-002           4      245699           0
</event>
<event>
      5   9999  3.19816E-02  1.00331E+02 -1.00000E+00  1.23763E-01
      21    -1     0     0   502   501  0.000000000E+00  0.000000000E+00  2.034298422E+02  2.034298422E+02  0.000000000E+00  0.00000E+00  9.000E+00
      -5    -1     0     0     0   502  0.000000000E+00  0.000000000E+00 -1.162691009E+03  1.162691009E+03  0.000000000E+00  0.00000E+00  9.000E+00
      25     1     1     2     0     0  9.079685306E+01 -5.458829978E+01  1.525579070E+02  2.238813659E+02  1.250000000E+02  0.00000E+00  9.000E+00
      25     1     1     2     0     0  8.054530335E+00  3.742017210E+01 -3.459472869E+02  3.698238365E+02  1.250000000E+02  0.00000E+00  9.000E+00
      -5     1     1     2     0   501 -9.885138339E+01  1.716812768E+01 -7.658717868E+02  7.724156488E+02  1.078959322E-05  0.00000E+00  9.000E+00
#rwgt            2           6   1.4254561435772148E-005           4      245834           0
</event>
<event>
      5   9999  3.19816E-02  5.36118E+01 -1.00000E+00  1.37369E-01
      21    -1     0     0   502   501  0.000000000E+00  0.000000000E+00  8.862394867E+02  8.862394867E+02  0.000000000E+00  0.00000E+00  9.000E+00
       2    -1     0     0   501     0  0.000000000E+00  0.000000000E+00 -1.567319562E+03  1.567319562E+03  0.000000000E+00  0.00000E+00  9.000E+00
      25     1     1     2     0     0  2.707296155E+02 -2.642813635E+02 -2.084528818E+02  4.496851874E+02  1.250000000E+02  0.00000E+00  9.000E+00
      25     1     1     2     0     0 -2.379339152E+02  2.218706265E+02  7.253308936E+02  8.047167378E+02  1.250000000E+02  0.00000E+00  9.000E+00
       2     1     1     2   502     0 -3.279570031E+01  4.241073699E+01 -1.197958087E+03  1.199157124E+03  1.525878906E-05  0.00000E+00  9.000E+00
#rwgt            1           1   3.2634416887335892E-002           4      245853           0
</event>
<event>
      5   9999  3.19816E-02  2.86185E+01 -1.00000E+00  1.54476E-01
      21    -1     0     0   502   511  0.000000000E+00  0.000000000E+00  4.664260767E+02  4.664260767E+02  0.000000000E+00  0.00000E+00  9.000E+00
      21    -1     0     0   501   502  0.000000000E+00  0.000000000E+00 -1.422789544E+02  1.422789544E+02  0.000000000E+00  0.00000E+00  9.000E+00
      25     1     1     2     0     0  5.952193956E+01 -4.133782972E+01 -7.964188549E+01  1.649833549E+02  1.250000000E+02  0.00000E+00  9.000E+00
      25     1     1     2     0     0 -8.427871754E+01  2.698086453E+01  3.117911275E+02  3.473752675E+02  1.250000000E+02  0.00000E+00  9.000E+00
      21     1     1     2   501   511  2.475677798E+01  1.435696519E+01  9.199788028E+01  9.634640876E+01  0.000000000E+00  0.00000E+00  9.000E+00
#rwgt            1           1   2.6081511481933758E-002           4      245980           0
</event>
<event>
      5   9999  3.19816E-02  9.57127E+01 -1.00000E+00  1.24690E-01
      21    -1     0     0   502   512  0.000000000E+00  0.000000000E+00  1.250921736E+03  1.250921736E+03  0.000000000E+00  0.00000E+00  9.000E+00
      21    -1     0     0   501   502  0.000000000E+00  0.000000000E+00 -3.987608043E+02  3.987608043E+02  0.000000000E+00  0.00000E+00  9.000E+00
      25     1     1     2     0     0 -3.044292054E+02  1.111679430E+02  2.204957620E+02  4.114350905E+02  1.250000000E+02  0.00000E+00  9.000E+00
      25     1     1     2     0     0  3.733733688E+02 -4.477804594E+01 -1.697720386E+02  4.311151714E+02  1.250000000E+02  0.00000E+00  9.000E+00
      21     1     1     2   501   512 -6.894416334E+01 -6.638989709E+01  8.014372086E+02  8.071322788E+02  1.868812365E-05  0.00000E+00  9.000E+00
#rwgt            2          11   2.1965559981322667E-003           4      246328           0
</event>
<event>
      5   9999  3.19816E-02  5.87949E+00 -1.00000E+00  2.26849E-01
      21    -1     0     0   511   501  0.000000000E+00  0.000000000E+00  4.945822272E+02  4.945822272E+02  0.000000000E+00  0.00000E+00  9.000E+00
      21    -1     0     0   501   502  0.000000000E+00  0.000000000E+00 -1.740156987E+02  1.740156987E+02  0.000000000E+00  0.00000E+00  9.000E+00
      25     1     1     2     0     0  2.300018711E+02  5.944446028E+01  1.636218969E+02  3.143749826E+02  1.250000000E+02  0.00000E+00  9.000E+00
      25     1     1     2     0     0 -2.249558434E+02 -5.642684463E+01  7.759322544E+01  2.746540167E+02  1.250000000E+02  0.00000E+00  9.000E+00
      21     1     1     2   511   502 -5.046027699E+00 -3.017615651E+00  7.935140620E+01  7.956892651E+01  9.536743164E-07  0.00000E+00  9.000E+00
#rwgt            1           1   2.5275760827951160E-002           4      246363           0
</event>
<event>
      5   9999  3.19816E-02  1.05516E+01 -1.00000E+00  1.93100E-01
      21    -1     0     0   502   501  0.000000000E+00  0.000000000E+00  3.126211859E+02  3.126211859E+02  0.000000000E+00  0.00000E+00  9.000E+00
      21    -1     0     0   501   512  0.000000000E+00  0.000000000E+00 -4.134289741E+02  4.134289741E+02  0.000000000E+00  0.00000E+00  9.000E+00
      25     1     1     2     0     0 -6.798209052E+01  3.014911752E+02  2.307020596E+00  3.333898854E+02  1.250000000E+02  0.00000E+00  9.000E+00
      25     1     1     2     0     0  7.759792268E+01 -3.058353656E+02 -5.550248096E+01  3.438927650E+02  1.250000000E+02  0.00000E+00  9.000E+00
      21     1     1     2   502   512 -9.615832157E+00  4.344190396E+00 -4.761232783E+01  4.876750947E+01  0.000000000E+00  0.00000E+00  9.000E+00
#rwgt            1           1   2.5785922341021398E-002           4      246624           0
</event>
<event>
      5   9999  3.19816E-02  1.88288E+02 -1.00000E+00  1.12611E-01
      21    -1     0     0   511   501  0.000000000E+00  0.000000000E+00  1.076199037E+03  1.076199037E+03  0.000000000E+00  0.00000E+00  9.000E+00
      21    -1     0     0   501   502  0.000000000E+00  0.000000000E+00 -1.949553607E+03  1.949553607E+03  0.000000000E+00  0.00000E+00  9.000E+00
      25     1     1     2     0     0  1.350888410E+02 -7.464589379E+02 -1.480858603E+03  1.668537426E+03  1.250000000E+02  0.00000E+00  9.000E+00
      25     1     1     2     0     0 -2.416416823E+02  5.912211183E+02 -6.950165047E+01  6.545140127E+02  1.250000000E+02  0.00000E+00  9.000E+00
      21     1     1     2   511   502  1.065528413E+02  1.552378195E+02  6.770056833E+02  7.027012052E+02  0.000000000E+00  0.00000E+00  9.000E+00
#rwgt            1           1   3.1553931515511995E-002           4      246788           0
</event>
<event>
      5   9999  3.19816E-02  4.79207E+01 -1.00000E+00  1.40136E-01
      21    -1     0     0   512   501  0.000000000E+00  0.000000000E+00  9.191904684E+02  9.191904684E+02  0.000000000E+00  0.00000E+00  9.000E+00
      21    -1     0     0   501   502  0.000000000E+00  0.000000000E+00 -1.113480953E+03  1.113480953E+03  0.000000000E+00  0.00000E+00  9.000E+00
      25     1     1     2     0     0 -2.118460970E+02 -2.645394249E+02 -4.143692847E+02  5.497151810E+02  1.250000000E+02  0.00000E+00  9.000E+00
      25     1     1     2     0     0  2.580299640E+02  2.517548952E+02 -5.730092191E+02  6.884217855E+02  1.250000000E+02  0.00000E+00  9.000E+00
      21     1     1     2   512   502 -4.618386707E+01  1.278452974E+01  7.930880191E+02  7.945344548E+02  1.078959322E-05  0.00000E+00  9.000E+00
#rwgt            1           1   3.1835209117563254E-002           4      246888           0
</event>
<event>
      5   9999  3.19816E-02  3.69577E+02 -1.00000E+00  1.02730E-01
       1    -1     0     0   502     0  0.000000000E+00  0.000000000E+00  4.787116085E+02  4.787116085E+02  0.000000000E+00  0.00000E+00  9.000E+00
      21    -1     0     0   501   502  0.000000000E+00  0.000000000E+00 -1.089505908E+03  1.089505908E+03  0.000000000E+00  0.00000E+00  9.000E+00
      25     1     1     2     0     0  2.520161190E+02 -1.156138763E+02 -8.761062545E+01  3.165111599E+02  1.250000000E+02  0.00000E+00  9.000E+00
      25     1     1     2     0     0 -6.150775722E+02  1.847040621E+02 -5.842001770E+02  8.771264773E+02  1.250000000E+02  0.00000E+00  9.000E+00
       1     1     1     2   501     0  3.630614531E+02 -6.909018577E+01  6.101650285E+01  3.745798795E+02  1.784161275E-06  0.00000E+00  9.000E+00
#rwgt            2          17   2.3023896033453134E-004           4      247071           0
</event>
<event>
      5   9999  3.19816E-02  1.44481E+01 -1.00000E+00  1.78931E-01
      21    -1     0     0   502   501  0.000000000E+00  0.000000000E+00  5.364996270E+02  5.364996270E+02  0.000000000E+00  0.00000E+00  9.000E+00
      21    -1     0     0   501   511  0.000000000E+00  0.000000000E+00 -9.071531957E+02  9.071531957E+02  0.000000000E+00  0.00000E+00  9.000E+00
      25     1     1     2     0     0  1.291755708E+01  5.135749085E+02  2.370985124E+02  5.794538416E+02  1.250000000E+02  0.00000E+00  9.000E+00
      25     1     1     2     0     0 -1.784302838E+01 -4.999922647E+02 -3.914945750E+02  6.474593737E+02  1.250000000E+02  0.00000E+00  9.000E+00
      21     1     1     2   502   511  4.925471298E+00 -1.358264385E+01 -2.162575061E+02  2.167396074E+02  0.000000000E+00  0.00000E+00  9.000E+00
#rwgt            1           1   3.0582811429177976E-002           4      247105           0
</event>
<event>
      5   9999  3.19816E-02  1.43187E+01 -1.00000E+00  1.79307E-01
      21    -1     0     0   512   501  0.000000000E+00  0.000000000E+00  5.867243057E+01  5.867243057E+01  0.000000000E+00  0.00000E+00  9.000E+00
      21    -1     0     0   501   502  0.000000000E+00  0.000000000E+00 -8.278334304E+02  8.278334304E+02  0.000000000E+00  0.00000E+00  9.000E+00
      25     1     1     2     0     0  1.531682786E+01 -5.768979589E+01 -1.472937927E+02  2.021958929E+02  1.250000000E+02  0.00000E+00  9.000E+00
      25     1     1     2     0     0 -1.547498946E+01  7.200765685E+01 -6.427880358E+02  6.589582968E+02  1.250000000E+02  0.00000E+00  9.000E+00
      21     1     1     2   512   502  1.581616086E-01 -1.431786096E+01  2.092082870E+01  2.535167117E+01  5.331201500E-07  0.00000E+00  9.000E+00
#rwgt            1           1   2.6471423445600217E-002           4      247339           0
</event>
<event>
      5   9999  3.19816E-02  9.42063E+01 -1.00000E+00  1.25005E-01
      21    -1     0     0   502   501  0.000000000E+00  0.000000000E+00  1.197468819E+03  1.197468819E+03  0.000000000E+00  0.00000E+00  9.000E+00
      21    -1     0     0   501   511  0.000000000E+00  0.000000000E+00 -2.162521990E+02  2.162521990E+02  0.000000000E+00  0.00000E+00  9.000E+00
      25     1     1     2     0     0  2.194366988E+02 -2.106805075E+02  2.401571148E+01  3.297582378E+02  1.250000000E+02  0.00000E+00  9.000E+00
      25     1     1     2     0     0 -2.104356522E+02  3.044558311E+02  8.776494188E+02  9.606612405E+02  1.250000000E+02  0.00000E+00  9.000E+00
      21     1     1     2   502   511 -9.001046575E+00 -9.377532357E+01  7.955148968E+01  1.233015396E+02  2.132480600E-06  0.00000E+00  9.000E+00
#rwgt            2          11   5.0617001083219084E-003           4      247454           0
</event>
<event>
      5   9999  3.19816E-02  2.03171E+02 -1.00000E+00  1.11400E-01
      21    -1     0     0   502   512  0.000000000E+00  0.000000000E+00  4.379091601E+02  4.379091601E+02  0.000000000E+00  0.00000E+00  9.000E+00
      21    -1     0     0   501   502  0.000000000E+00  0.000000000E+00 -9.558715399E+02  9.558715399E+02  0.000000000E+00  0.00000E+00  9.000E+00
      25     1     1     2     0     0 -1.794825945E+02 -5.902096113E+01  1.819239346E+02  2.905491242E+02  1.250000000E+02  0.00000E+00  9.000E+00
      25     1     1     2     0     0  4.653321032E+00  1.625249355E+02 -8.346182814E+02  8.594467312E+02  1.250000000E+02  0.00000E+00  9.000E+00
      21     1     1     2   501   512  1.748292734E+02 -1.035039744E+02  1.347319669E+02  2.437848446E+02  1.907348633E-06  0.00000E+00  9.000E+00
#rwgt            1           1   2.7167688647072252E-002           4      247489           0
</event>
<event>
      5   9999  3.19816E-02  1.90471E+01 -1.00000E+00  1.68138E-01
      21    -1     0     0   502   501  0.000000000E+00  0.000000000E+00  8.031479643E+01  8.031479643E+01  0.000000000E+00  0.00000E+00  9.000E+00
      21    -1     0     0   501   511  0.000000000E+00  0.000000000E+00 -7.761957868E+02  7.761957868E+02  0.000000000E+00  0.00000E+00  9.000E+00
      25     1     1     2     0     0  9.552689029E+01  1.575465154E+02 -4.750126411E+02  5.246029932E+02  1.250000000E+02  0.00000E+00  9.000E+00
      25     1     1     2     0     0 -8.061878617E+01 -1.694014581E+02 -1.863595337E+02  2.924912280E+02  1.250000000E+02  0.00000E+00  9.000E+00
      21     1     1     2   502   511 -1.490810411E+01  1.185494276E+01 -3.450881565E+01  3.941636200E+01  0.000000000E+00  0.00000E+00  9.000E+00
#rwgt            1           1   2.7546254482829838E-002           4      247577           0
</event>
<event>
      5   9999  3.19816E-02  6.69071E+02 -1.00000E+00  9.53863E-02
       2    -1     0     0   502     0  0.000000000E+00  0.000000000E+00  7.191684229E+02  7.191684229E+02  0.000000000E+00  0.00000E+00  9.000E+00
      21    -1     0     0   501   502  0.000000000E+00  0.000000000E+00 -7.968956481E+02  7.968956481E+02  0.000000000E+00  0.00000E+00  9.000E+00
      25     1     1     2     0     0  1.383891955E+02 -2.923866953E+02  2.145451030E+02  4.077942499E+02  1.250000000E+02  0.00000E+00  9.000E+00
      25     1     1     2     0     0 -1.168332515E+01 -3.645775380E+02 -1.952366263E+02  4.321985904E+02  1.250000000E+02  0.00000E+00  9.000E+00
       2     1     1     2   501     0 -1.267058704E+02  6.569642333E+02 -9.703570196E+01  6.760712306E+02  1.243439179E-05  0.00000E+00  9.000E+00
#rwgt            2          18   3.6440794670632208E-004           4      247794           0
</event>
<event>
      5   9999  3.19816E-02  2.04043E+02 -1.00000E+00  1.11333E-01
      21    -1     0     0   502   501  0.000000000E+00  0.000000000E+00  9.122235471E+02  9.122235471E+02  0.000000000E+00  0.00000E+00  9.000E+00
      21    -1     0     0   511   502  0.000000000E+00  0.000000000E+00 -4.525940840E+02  4.525940840E+02  0.000000000E+00  0.00000E+00  9.000E+00
      25     1     1     2     0     0 -6.730999865E+01 -1.781096825E+02  8.259744106E+02  8.568036075E+02  1.250000000E+02  0.00000E+00  9.000E+00
      25     1     1     2     0     0 -4.789224442E+01  9.699855932E+00 -7.946658557E+01  1.559733711E+02  1.250000000E+02  0.00000E+00  9.000E+00
      21     1     1     2   511   501  1.152022431E+02  1.684098266E+02 -2.868783619E+02  3.520406525E+02  6.607249480E-06  0.00000E+00  9.000E+00
#rwgt            1           1   3.1680722211041214E-002           4      247828           0
</event>
<event>
      5   9999  3.19816E-02  7.74682E+01 -1.00000E+00  1.29029E-01
      21    -1     0     0   502   501  0.000000000E+00  0.000000000E+00  1.241587104E+03  1.241587104E+03  0.000000000E+00  0.00000E+00  9.000E+00
      21    -1     0     0   512   502  0.000000000E+00  0.000000000E+00 -1.264816051E+03  1.264816051E+03  0.000000000E+00  0.00000E+00  9.000E+00
      25     1     1     2     0     0  1.007043981E+02  3.714825097E+02  1.043458014E+03  1.119182853E+03  1.250000000E+02  0.00000E+00  9.000E+00
      25     1     1     2     0     0 -6.839837244E+01 -4.418929878E+02 -1.812830729E+02  4.984338497E+02  1.250000000E+02  0.00000E+00  9.000E+00
      21     1     1     2   512   501 -3.230602568E+01  7.041047806E+01 -8.854038876E+02  8.887864529E+02  1.525878906E-05  0.00000E+00  9.000E+00
#rwgt            1           1   3.1273855292039375E-002           4      247933           0
</event>
<event>
      5   9999  3.19816E-02  3.26625E+01 -1.00000E+00  1.50518E-01
      21    -1     0     0   502   511  0.000000000E+00  0.000000000E+00  6.205419675E+02  6.205419675E+02  0.000000000E+00  0.00000E+00  9.000E+00
      21    -1     0     0   501   502  0.000000000E+00  0.000000000E+00 -1.452458565E+02  1.452458565E+02  0.000000000E+00  0.00000E+00  9.000E+00
      25     1     1     2     0     0  4.089425577E+01  1.753295175E+02 -2.009596969E+01  2.200945885E+02  1.250000000E+02  0.00000E+00  9.000E+00
      25     1     1     2     0     0 -2.055646962E+01 -1.497714302E+02  4.223405684E+02  4.656722081E+02  1.250000000E+02  0.00000E+00  9.000E+00
      21     1     1     2   501   511 -2.033778615E+01 -2.555808733E+01  7.305151238E+01  8.002102745E+01  1.348699152E-06  0.00000E+00  9.000E+00
#rwgt            1           1   2.8886626512934541E-002           4      248044           0
</event>
<event>
      5   9999  3.19816E-02  7.41573E+01 -1.00000E+00  1.29964E-01
      21    -1     0     0   502   501  0.000000000E+00  0.000000000E+00  1.530809383E+02  1.530809383E+02  0.000000000E+00  0.00000E+00  9.000E+00
      21    -1     0     0   501   512  0.000000000E+00  0.000000000E+00 -6.076405954E+02  6.076405954E+02  0.000000000E+00  0.00000E+00  9.000E+00
      25     1     1     2     0     0 -1.700403367E+02 -1.527870407E+02 -6.881540220E+01  2.694775603E+02  1.250000000E+02  0.00000E+00  9.000E+00
      25     1     1     2     0     0  9.624311253E+01  1.454877072E+02 -2.089371981E+02  2.995148784E+02  1.250000000E+02  0.00000E+00  9.000E+00
      21     1     1     2   502   512  7.379722413E+01  7.299333576E+00 -1.768070568E+02  1.917290950E+02  3.814697266E-06  0.00000E+00  9.000E+00
#rwgt            1           1   2.7581854367996338E-002           4      248126           0
</event>
<event>
      5   9999  3.19816E-02  4.58232E+01 -1.00000E+00  1.41272E-01
      21    -1     0     0   502   501  0.000000000E+00  0.000000000E+00  1.297864993E+02  1.297864993E+02  0.000000000E+00  0.00000E+00  9.000E+00
      21    -1     0     0   511   502  0.000000000E+00  0.000000000E+00 -7.190246472E+02  7.190246472E+02  0.000000000E+00  0.00000E+00  9.000E+00
      25     1     1     2     0     0 -4.091507296E+01 -2.286955564E+02 -4.690616954E+02  5.381631489E+02  1.250000000E+02  0.00000E+00  9.000E+00
      25     1     1     2     0     0  1.162163726E+01  1.934583342E+02 -6.638695063E+01  2.399862845E+02  1.250000000E+02  0.00000E+00  9.000E+00
      21     1     1     2   511   501  2.929343570E+01  3.523722217E+01 -5.378950184E+01  7.066171318E+01  0.000000000E+00  0.00000E+00  9.000E+00
#rwgt            1           1   2.6724611634667373E-002           4      248208           0
</event>
<event>
      5   9999  3.19816E-02  5.68027E+01 -1.00000E+00  1.35987E-01
      21    -1     0     0   502   501  0.000000000E+00  0.000000000E+00  3.365535745E+02  3.365535745E+02  0.000000000E+00  0.00000E+00  9.000E+00
      21    -1     0     0   512   502  0.000000000E+00  0.000000000E+00 -1.037550410E+03  1.037550410E+03  0.000000000E+00  0.00000E+00  9.000E+00
      25     1     1     2     0     0 -3.729244692E+02 -1.036119922E+00  8.132768631E+01  4.016378043E+02  1.250000000E+02  0.00000E+00  9.000E+00
      25     1     1     2     0     0  3.527027474E+02 -5.204517375E+01 -2.884287218E+02  4.753146913E+02  1.250000000E+02  0.00000E+00  9.000E+00
      21     1     1     2   512   501  2.022172180E+01  5.308129368E+01 -4.938957994E+02  4.971514884E+02  5.394796609E-06  0.00000E+00  9.000E+00
#rwgt            1           1   3.2891997813490628E-002           4      248319           0
</event>
<event>
      5   9999  3.19816E-02  1.93779E+02 -1.00000E+00  1.12150E-01
      21    -1     0     0   502   501  0.000000000E+00  0.000000000E+00  6.644139203E+02  6.644139203E+02  0.000000000E+00  0.00000E+00  9.000E+00
      21    -1     0     0   511   502  0.000000000E+00  0.000000000E+00 -2.651726884E+02  2.651726884E+02  0.000000000E+00  0.00000E+00  9.000E+00
      25     1     1     2     0     0 -9.372454669E+01 -3.486694189E+02  3.009754851E+02  4.863804036E+02  1.250000000E+02  0.00000E+00  9.000E+00
      25     1     1     2     0     0 -8.818937773E+00  1.842460934E+02  1.111385965E+02  2.490003699E+02  1.250000000E+02  0.00000E+00  9.000E+00
      21     1     1     2   511   501  1.025434845E+02  1.644233255E+02 -1.287284981E+01  1.942058352E+02  4.511091215E-06  0.00000E+00  9.000E+00
#rwgt            2          11   3.6632576405122401E-003           4      248453           0
</event>
<event>
      5   9999  3.19816E-02  3.43840E+01 -1.00000E+00  1.49036E-01
      21    -1     0     0   502   501  0.000000000E+00  0.000000000E+00  1.001130853E+02  1.001130853E+02  0.000000000E+00  0.00000E+00  9.000E+00
       2    -1     0     0   501     0  0.000000000E+00  0.000000000E+00 -1.159621677E+03  1.159621677E+03  0.000000000E+00  0.00000E+00  9.000E+00
      25     1     1     2     0     0 -2.021761507E+02  3.022802099E+01 -1.066529193E+02  2.622761414E+02  1.250000000E+02  0.00000E+00  9.000E+00
      25     1     1     2     0     0  2.257957794E+02 -5.240561112E+00 -8.764145415E+02  9.136403264E+02  1.250000000E+02  0.00000E+00  9.000E+00
       2     1     1     2   502     0 -2.361962870E+01 -2.498745988E+01 -7.644113103E+01  8.381829469E+01  9.536743164E-07  0.00000E+00  9.000E+00
#rwgt            1           1   2.7797058895067076E-002           4      248473           0
</event>
<event>
      5   9999  3.19816E-02  6.10122E+01 -1.00000E+00  1.34316E-01
      21    -1     0     0   502   511  0.000000000E+00  0.000000000E+00  2.218040826E+03  2.218040826E+03  0.000000000E+00  0.00000E+00  9.000E+00
      21    -1     0     0   501   502  0.000000000E+00  0.000000000E+00 -1.468503478E+02  1.468503478E+02  0.000000000E+00  0.00000E+00  9.000E+00
      25     1     1     2     0     0  5.055629552E+02  7.850742082E+01  8.447736049E+02  9.955022654E+02  1.250000000E+02  0.00000E+00  9.000E+00
      25     1     1     2     0     0 -5.309011980E+02 -2.300554497E+01  1.063573190E+03  1.195490806E+03  1.250000000E+02  0.00000E+00  9.000E+00
      21     1     1     2   501   511  2.533824277E+01 -5.550187585E+01  1.628436827E+02  1.738981017E+02  1.907348633E-06  0.00000E+00  9.000E+00
#rwgt            1           1   2.5565220937016568E-002           4      248580           0
</event>
<event>
      5   9999  3.19816E-02  1.28412E+02 -1.00000E+00  1.19132E-01
      21    -1     0     0   512   501  0.000000000E+00  0.000000000E+00  7.467436251E+01  7.467436251E+01  0.000000000E+00  0.00000E+00  9.000E+00
      21    -1     0     0   501   502  0.000000000E+00  0.000000000E+00 -1.394307828E+03  1.394307828E+03  0.000000000E+00  0.00000E+00  9.000E+00
      25     1     1     2     0     0  2.036101610E+02  9.829289140E+01 -3.924600932E+02  4.698601014E+02  1.250000000E+02  0.00000E+00  9.000E+00
      25     1     1     2     0     0 -9.849597089E+01 -1.720542414E+02 -6.996649811E+02  7.378754665E+02  1.250000000E+02  0.00000E+00  9.000E+00
      21     1     1     2   512   502 -1.051141901E+02  7.376135004E+01 -2.275083908E+02  2.612466222E+02  0.000000000E+00  0.00000E+00  9.000E+00
#rwgt            1           1   3.6238832956606348E-002           4      248711           0
</event>
<event>
      5   9999  3.19816E-02  5.87933E+01 -1.00000E+00  1.35177E-01
      21    -1     0     0   511   501  0.000000000E+00  0.000000000E+00  7.367459126E+02  7.367459126E+02  0.000000000E+00  0.00000E+00  9.000E+00
      21    -1     0     0   501   502  0.000000000E+00  0.000000000E+00 -6.382050906E+02  6.382050906E+02  0.000000000E+00  0.00000E+00  9.000E+00
      25     1     1     2     0     0  3.102956473E+02  2.683587520E+02  3.066326404E+02  5.272081037E+02  1.250000000E+02  0.00000E+00  9.000E+00
      25     1     1     2     0     0 -3.552852553E+02 -2.305091811E+02 -4.310982559E+02  6.171165218E+02  1.250000000E+02  0.00000E+00  9.000E+00
      21     1     1     2   511   502  4.498960807E+01 -3.784957089E+01  2.230064376E+02  2.306263776E+02  2.697398305E-06  0.00000E+00  9.000E+00
#rwgt            1           1   2.7663674017481547E-002           4      248741           0
</event>
<event>
      5   9999  3.19816E-02  1.34163E+02 -1.00000E+00  1.18347E-01
       2    -1     0     0   502     0  0.000000000E+00  0.000000000E+00  2.727791518E+03  2.727791518E+03  0.000000000E+00  0.00000E+00  9.000E+00
      21    -1     0     0   501   502  0.000000000E+00  0.000000000E+00 -3.181958596E+02  3.181958596E+02  0.000000000E+00  0.00000E+00  9.000E+00
      25     1     1     2     0     0  3.960457551E+02  4.927569495E+02  1.459134122E+02  6.607400210E+02  1.250000000E+02  0.00000E+00  9.000E+00
      25     1     1     2     0     0 -3.841917999E+02 -3.591190578E+02  1.238507356E+03  1.351330940E+03  1.250000000E+02  0.00000E+00  9.000E+00
       2     1     1     2   501     0 -1.185395517E+01 -1.336378917E+02  1.025174890E+03  1.033916417E+03  2.157918644E-05  0.00000E+00  9.000E+00
#rwgt            1           1   3.6323431139989988E-002           4      248843           0
</event>
<event>
      5   9999  3.19816E-02  1.01604E+02 -1.00000E+00  1.23518E-01
      21    -1     0     0   502   501  0.000000000E+00  0.000000000E+00  6.979670230E+02  6.979670230E+02  0.000000000E+00  0.00000E+00  9.000E+00
       2    -1     0     0   501     0  0.000000000E+00  0.000000000E+00 -7.150841615E+02  7.150841615E+02  0.000000000E+00  0.00000E+00  9.000E+00
      25     1     1     2     0     0 -1.443384495E+01  4.222432558E+02  4.027549563E+02  5.969373985E+02  1.250000000E+02  0.00000E+00  9.000E+00
      25     1     1     2     0     0  6.007341948E+01 -5.130196640E+02 -4.638569620E+02  7.053979534E+02  1.250000000E+02  0.00000E+00  9.000E+00
       2     1     1     2   502     0 -4.563957453E+01  9.077640821E+01  4.398486728E+01  1.107158327E+02  2.611744678E-06  0.00000E+00  9.000E+00
#rwgt            1           1   3.0906587350192659E-002           4      248949           0
</event>
<event>
      5   9999  3.19816E-02  2.95055E+01 -1.00000E+00  1.53543E-01
      21    -1     0     0   502   511  0.000000000E+00  0.000000000E+00  5.296927322E+01  5.296927322E+01  0.000000000E+00  0.00000E+00  9.000E+00
      21    -1     0     0   501   502  0.000000000E+00  0.000000000E+00 -2.473591677E+03  2.473591677E+03  0.000000000E+00  0.00000E+00  9.000E+00
      25     1     1     2     0     0 -2.308192775E+02  1.844674660E+02 -6.823595062E+02  7.540194166E+02  1.250000000E+02  0.00000E+00  9.000E+00
      25     1     1     2     0     0  2.013141868E+02 -1.846296952E+02 -1.685755657E+03  1.712312081E+03  1.250000000E+02  0.00000E+00  9.000E+00
      21     1     1     2   501   511  2.950509073E+01  1.622291471E-01 -5.250724022E+01  6.022945270E+01  1.348699152E-06  0.00000E+00  9.000E+00
#rwgt            1           1   8.2083813659545771E-002           4      249086           0
</event>
<event>
      5   9999  3.19816E-02  6.03745E+01 -1.00000E+00  1.34559E-01
      21    -1     0     0   502   501  0.000000000E+00  0.000000000E+00  1.045129008E+03  1.045129008E+03  0.000000000E+00  0.00000E+00  9.000E+00
       1    -1     0     0   501     0  0.000000000E+00  0.000000000E+00 -1.308414874E+03  1.308414874E+03  0.000000000E+00  0.00000E+00  9.000E+00
      25     1     1     2     0     0 -2.030075351E+02  1.415450513E+02  4.411223101E+02  5.210191487E+02  1.250000000E+02  0.00000E+00  9.000E+00
      25     1     1     2     0     0  1.598638238E+02 -1.837788724E+02  5.300552250E+02  5.965858343E+02  1.250000000E+02  0.00000E+00  9.000E+00
       1     1     1     2   502     0  4.314371127E+01  4.223382111E+01 -1.234463401E+03  1.235938900E+03  2.157918644E-05  0.00000E+00  9.000E+00
#rwgt            1           1   2.1628236840943445E-002           4      249243           0
</event>
<event>
      5   9999  3.19816E-02  2.57367E+02 -1.00000E+00  1.07801E-01
      21    -1     0     0   502   511  0.000000000E+00  0.000000000E+00  1.370161896E+03  1.370161896E+03  0.000000000E+00  0.00000E+00  9.000E+00
      21    -1     0     0   501   502  0.000000000E+00  0.000000000E+00 -9.816987531E+02  9.816987531E+02  0.000000000E+00  0.00000E+00  9.000E+00
      25     1     1     2     0     0  3.216352574E+02 -2.211557027E+02 -4.474609898E+02  6.067993252E+02  1.250000000E+02  0.00000E+00  9.000E+00
      25     1     1     2     0     0 -6.533270515E+01  1.977763256E+02 -4.079738525E+02  4.748173351E+02  1.250000000E+02  0.00000E+00  9.000E+00
      21     1     1     2   501   511 -2.563025522E+02  2.337937714E+01  1.243897985E+03  1.270243989E+03  2.157918644E-05  0.00000E+00  9.000E+00
#rwgt            1           1   3.2805865120302799E-002           4      249353           0
</event>
<event>
      5   9999  3.19816E-02  3.18548E+01 -1.00000E+00  1.51252E-01
      21    -1     0     0   512   501  0.000000000E+00  0.000000000E+00  3.379151067E+02  3.379151067E+02  0.000000000E+00  0.00000E+00  9.000E+00
      21    -1     0     0   501   502  0.000000000E+00  0.000000000E+00 -5.518053963E+02  5.518053963E+02  0.000000000E+00  0.00000E+00  9.000E+00
      25     1     1     2     0     0  8.198806531E+01 -3.145853293E+02  1.279436519E+02  3.710532985E+02  1.250000000E+02  0.00000E+00  9.000E+00
      25     1     1     2     0     0 -1.052946493E+02  2.928705936E+02 -3.510447234E+02  4.855075134E+02  1.250000000E+02  0.00000E+00  9.000E+00
      21     1     1     2   512   502  2.330658403E+01  2.171473572E+01  9.210781966E+00  3.315969106E+01  2.064765462E-07  0.00000E+00  9.000E+00
#rwgt            1           1   2.8159180444265838E-002           4      249387           0
</event>
<event>
      5   9999  3.19816E-02  1.34548E+01 -1.00000E+00  1.81950E-01
      21    -1     0     0   502   501  0.000000000E+00  0.000000000E+00  3.886011996E+02  3.886011996E+02  0.000000000E+00  0.00000E+00  9.000E+00
      21    -1     0     0   511   502  0.000000000E+00  0.000000000E+00 -8.890007755E+02  8.890007755E+02  0.000000000E+00  0.00000E+00  9.000E+00
      25     1     1     2     0     0 -3.084180907E+02  4.381858922E+02 -3.303940583E+01  5.512215499E+02  1.250000000E+02  0.00000E+00  9.000E+00
      25     1     1     2     0     0  2.984758768E+02 -4.291202852E+02 -4.353416929E+02  6.916498086E+02  1.250000000E+02  0.00000E+00  9.000E+00
      21     1     1     2   511   501  9.942213918E+00 -9.065607005E+00 -3.201847721E+01  3.473061662E+01  4.768371582E-07  0.00000E+00  9.000E+00
#rwgt            1           1   2.8036944034335060E-002           4      249463           0
</event>
<event>
      5   9999  3.19816E-02  4.57593E+01 -1.00000E+00  1.41308E-01
      21    -1     0     0   502   512  0.000000000E+00  0.000000000E+00  2.338577577E+03  2.338577577E+03  0.000000000E+00  0.00000E+00  9.000E+00
      21    -1     0     0   501   502  0.000000000E+00  0.000000000E+00 -3.882062787E+02  3.882062787E+02  0.000000000E+00  0.00000E+00  9.000E+00
      25     1     1     2     0     0 -1.710133077E+02 -9.620875454E+01  1.814699299E+03  1.829551919E+03  1.250000000E+02  0.00000E+00  9.000E+00
      25     1     1     2     0     0  1.342646037E+02  1.234750098E+02 -3.475036924E+02  4.118942560E+02  1.250000000E+02  0.00000E+00  9.000E+00
      21     1     1     2   501   512  3.674870396E+01 -2.726625523E+01  4.831756910E+02  4.853376807E+02  5.394796609E-06  0.00000E+00  9.000E+00
#rwgt            1           1   2.3119456948416748E-002           4      249776           0
</event>
<event>
      5   9999  3.19816E-02  1.82079E+02 -1.00000E+00  1.13153E-01
      21    -1     0     0   511   501  0.000000000E+00  0.000000000E+00  2.667715746E+02  2.667715746E+02  0.000000000E+00  0.00000E+00  9.000E+00
      21    -1     0     0   501   502  0.000000000E+00  0.000000000E+00 -8.870036828E+02  8.870036828E+02  0.000000000E+00  0.00000E+00  9.000E+00
      25     1     1     2     0     0  8.305404314E+01  2.576639389E+02 -7.309164522E+02  7.894001137E+02  1.250000000E+02  0.00000E+00  9.000E+00
      25     1     1     2     0     0 -7.140332743E+01 -7.595807437E+01  7.324036760E+01  1.784858977E+02  1.250000000E+02  0.00000E+00  9.000E+00
      21     1     1     2   511   502 -1.165071570E+01 -1.817058645E+02  3.744397641E+01  1.858892459E+02  4.017901312E-06  0.00000E+00  9.000E+00
#rwgt            1           1   3.2838451862921822E-002           4      249912           0
</event>
<event>
      5   9999  3.19816E-02  8.38860E+01 -1.00000E+00  1.27360E-01
      21    -1     0     0   502   501  0.000000000E+00  0.000000000E+00  1.406075012E+03  1.406075012E+03  0.000000000E+00  0.00000E+00  9.000E+00
      -2    -1     0     0     0   502  0.000000000E+00  0.000000000E+00 -9.180817526E+02  9.180817526E+02  0.000000000E+00  0.00000E+00  9.000E+00
      25     1     1     2     0     0 -1.739163966E+02 -1.399955841E+02  2.804083100E+02  3.796043953E+02  1.250000000E+02  0.00000E+00  9.000E+00
      25     1     1     2     0     0  9.014123733E+01  1.443055942E+02  1.063642905E+03  1.084394198E+03  1.250000000E+02  0.00000E+00  9.000E+00
      -2     1     1     2     0   501  8.377515930E+01 -4.310010092E+00 -8.560579564E+02  8.601581705E+02  1.078959322E-05  0.00000E+00  9.000E+00
#rwgt            1           1   2.0646751708734215E-002           4      249953           0
</event>
<event>
      5   9999  3.19816E-02  1.04203E+02 -1.00000E+00  1.23029E-01
      21    -1     0     0   511   501  0.000000000E+00  0.000000000E+00  6.911381169E+02  6.911381169E+02  0.000000000E+00  0.00000E+00  9.000E+00
      21    -1     0     0   501   502  0.000000000E+00  0.000000000E+00 -1.868914006E+02  1.868914006E+02  0.000000000E+00  0.00000E+00  9.000E+00
      25     1     1     2     0     0 -2.417801673E+02 -2.398651709E+01  3.464167652E+02  4.412058222E+02  1.250000000E+02  0.00000E+00  9.000E+00
      25     1     1     2     0     0  2.151103499E+02  1.247190520E+02  4.273370127E+01  2.815643333E+02  1.250000000E+02  0.00000E+00  9.000E+00
      21     1     1     2   511   502  2.666981746E+01 -1.007325349E+02  1.150962499E+02  1.552593620E+02  2.697398305E-06  0.00000E+00  9.000E+00
#rwgt            1           1   2.8848677331358159E-002           4      250000           0
</event>
<event>
      5   9999  3.19816E-02  5.46773E+01 -1.00000E+00  1.36895E-01
      21    -1     0     0   502   501  0.000000000E+00  0.000000000E+00  6.210444238E+02  6.210444238E+02  0.000000000E+00  0.00000E+00  9.000E+00
      21    -1     0     0   512   502  0.000000000E+00  0.000000000E+00 -1.319020317E+02  1.319020317E+02  0.000000000E+00  0.00000E+00  9.000E+00
      25     1     1     2     0     0 -6.740150516E+01  4.062714698E+01  5.110810593E+02  5.319984747E+02  1.250000000E+02  0.00000E+00  9.000E+00
      25     1     1     2     0     0  8.413458975E+01  1.142677886E+01 -5.041712124E+01  1.592987338E+02  1.250000000E+02  0.00000E+00  9.000E+00
      21     1     1     2   512   501 -1.673308460E+01 -5.205392584E+01  2.847845407E+01  6.164924705E+01  7.539457465E-07  0.00000E+00  9.000E+00
#rwgt            1           1   2.8990454418372797E-002           4      250046           0
</event>
<event>
      5   9999  3.19816E-02  1.29747E+02 -1.00000E+00  1.18946E-01
      21    -1     0     0   511   501  0.000000000E+00  0.000000000E+00  1.049896520E+03  1.049896520E+03  0.000000000E+00  0.00000E+00  9.000E+00
      21    -1     0     0   501   502  0.000000000E+00  0.000000000E+00 -3.793344408E+02  3.793344408E+02  0.000000000E+00  0.00000E+00  9.000E+00
      25     1     1     2     0     0 -5.642250298E+02  1.171120542E+02  3.870203077E+02  7.053189606E+02  1.250000000E+02  0.00000E+00  9.000E+00
      25     1     1     2     0     0  4.514677978E+02 -1.813000182E+02  1.223671803E+02  5.170025105E+02  1.250000000E+02  0.00000E+00  9.000E+00
      21     1     1     2   511   502  1.127572321E+02  6.418796396E+01  1.611745907E+02  2.069094893E+02  2.697398305E-06  0.00000E+00  9.000E+00
#rwgt            2          11   4.8141091886514959E-003           4      250168           0
</event>
<event>
      5   9999  3.19816E-02  4.28373E+01 -1.00000E+00  1.43018E-01
      21    -1     0     0   502   512  0.000000000E+00  0.000000000E+00  6.946719247E+02  6.946719247E+02  0.000000000E+00  0.00000E+00  9.000E+00
      21    -1     0     0   501   502  0.000000000E+00  0.000000000E+00 -1.941826455E+02  1.941826455E+02  0.000000000E+00  0.00000E+00  9.000E+00
      25     1     1     2     0     0 -2.971142591E+02  1.789188255E+01  1.349215788E+02  3.498940338E+02  1.250000000E+02  0.00000E+00  9.000E+00
      25     1     1     2     0     0  3.177429613E+02 -5.543510889E+01  2.870054286E+02  4.494783163E+02  1.250000000E+02  0.00000E+00  9.000E+00
      21     1     1     2   501   512 -2.062870216E+01  3.754322634E+01  7.856227171E+01  8.948222020E+01  9.536743164E-07  0.00000E+00  9.000E+00
#rwgt            1           1   3.0583305411802462E-002           4      250188           0
</event>
<event>
      5   9999  3.19816E-02  3.46994E+01 -1.00000E+00  1.48776E-01
      21    -1     0     0   502   501  0.000000000E+00  0.000000000E+00  8.633941646E+01  8.633941646E+01  0.000000000E+00  0.00000E+00  9.000E+00
       2    -1     0     0   501     0  0.000000000E+00  0.000000000E+00 -2.942078913E+03  2.942078913E+03  0.000000000E+00  0.00000E+00  9.000E+00
      25     1     1     2     0     0  1.489679511E+02 -9.876824690E+01 -2.160410629E+03  2.171392572E+03  1.250000000E+02  0.00000E+00  9.000E+00
      25     1     1     2     0     0 -1.151685320E+02  1.066197967E+02 -4.481158896E+01  2.055836820E+02  1.250000000E+02  0.00000E+00  9.000E+00
       2     1     1     2   502     0 -3.379941909E+01 -7.851549760E+00 -6.505172789E+02  6.514420755E+02  7.629394531E-06  0.00000E+00  9.000E+00
#rwgt            1           1   2.3243861242627319E-002           4      250350           0
</event>
<event>
      5   9999  3.19816E-02  3.03493E+02 -1.00000E+00  1.05429E-01
      21    -1     0     0   502   511  0.000000000E+00  0.000000000E+00  7.144067257E+02  7.144067257E+02  0.000000000E+00  0.00000E+00  9.000E+00
      21    -1     0     0   501   502  0.000000000E+00  0.000000000E+00 -4.180736972E+02  4.180736972E+02  0.000000000E+00  0.00000E+00  9.000E+00
      25     1     1     2     0     0  2.235599137E+02 -1.132439301E+02  3.940008084E+01  2.828083964E+02  1.250000000E+02  0.00000E+00  9.000E+00
      25     1     1     2     0     0 -4.841767701E+02 -4.227705816E+01  1.160798077E+02  5.150864161E+02  1.250000000E+02  0.00000E+00  9.000E+00
      21     1     1     2   501   511  2.606168563E+02  1.555209882E+02  1.408531399E+02  3.345856103E+02  4.264961200E-06  0.00000E+00  9.000E+00
#rwgt            2          11   3.1682762744612170E-003           4      250630           0
</event>
<event>
      5   9999  3.19816E-02  8.25137E+01 -1.00000E+00  1.27703E-01
      21    -1     0     0   502   501  0.000000000E+00  0.000000000E+00  7.097010233E+02  7.097010233E+02  0.000000000E+00  0.00000E+00  9.000E+00
      21    -1     0     0   512   502  0.000000000E+00  0.000000000E+00 -6.718908249E+02  6.718908249E+02  0.000000000E+00  0.00000E+00  9.000E+00
      25     1     1     2     0     0  3.453088935E+02 -1.804850048E+02  2.732099456E+02  4.920180315E+02  1.250000000E+02  0.00000E+00  9.000E+00
      25     1     1     2     0     0 -3.083866457E+02  2.542769485E+02  1.873940478E+02  4.588034644E+02  1.250000000E+02  0.00000E+00  9.000E+00
      21     1     1     2   512   501 -3.692224777E+01 -7.379194370E+01 -4.227937950E+02  4.307703524E+02  0.000000000E+00  0.00000E+00  9.000E+00
#rwgt            1           1   2.8164502809826009E-002           4      250665           0
</event>
<event>
      5   9999  3.19816E-02  2.46598E+01 -1.00000E+00  1.59198E-01
      21    -1     0     0   502   501  0.000000000E+00  0.000000000E+00  3.249898592E+02  3.249898592E+02  0.000000000E+00  0.00000E+00  9.000E+00
      21    -1     0     0   511   502  0.000000000E+00  0.000000000E+00 -6.043649298E+02  6.043649298E+02  0.000000000E+00  0.00000E+00  9.000E+00
      25     1     1     2     0     0 -2.788657195E+02 -3.140677847E+02 -1.437569855E+02  4.611894771E+02  1.250000000E+02  0.00000E+00  9.000E+00
      25     1     1     2     0     0  2.768940824E+02  2.894869386E+02 -1.127244289E+02  4.345167630E+02  1.250000000E+02  0.00000E+00  9.000E+00
      21     1     1     2   511   501  1.971637181E+00  2.458084603E+01 -2.289365624E+01  3.364854886E+01  4.768371582E-07  0.00000E+00  9.000E+00
#rwgt            1           1   2.5225650973863228E-002           4      250744           0
</event>
<event>
      5   9999  3.19816E-02  2.94594E+01 -1.00000E+00  1.53590E-01
      21    -1     0     0   502   501  0.000000000E+00  0.000000000E+00  7.711555296E+02  7.711555296E+02  0.000000000E+00  0.00000E+00  9.000E+00
       2    -1     0     0   501     0  0.000000000E+00  0.000000000E+00 -5.637839772E+02  5.637839772E+02  0.000000000E+00  0.00000E+00  9.000E+00
      25     1     1     2     0     0 -5.742430976E+01  8.342809676E+01  4.463416521E+02  4.744509133E+02  1.250000000E+02  0.00000E+00  9.000E+00
      25     1     1     2     0     0  5.971356821E+01 -1.127984453E+02  2.846365797E+02  3.360538379E+02  1.250000000E+02  0.00000E+00  9.000E+00
       2     1     1     2   502     0 -2.289258444E+00  2.937034854E+01 -5.236066794E+02  5.244347556E+02  7.629394531E-06  0.00000E+00  9.000E+00
#rwgt            1           1   2.8311515882756461E-002           4      250934           0
</event>
<event>
      5   9999  3.19816E-02  8.42589E+01 -1.00000E+00  1.27269E-01
      21    -1     0     0   511   501  0.000000000E+00  0.000000000E+00  1.585974032E+02  1.585974032E+02  0.000000000E+00  0.00000E+00  9.000E+00
      21    -1     0     0   501   502  0.000000000E+00  0.000000000E+00 -6.739339637E+02  6.739339637E+02  0.000000000E+00  0.00000E+00  9.000E+00
      25     1     1     2     0     0 -1.191133661E+02  7.116980621E+01 -2.397103216E+02  3.038736145E+02  1.250000000E+02  0.00000E+00  9.000E+00
      25     1     1     2     0     0  1.450591472E+02 -1.513345273E+02 -3.428620386E+02  4.208606335E+02  1.250000000E+02  0.00000E+00  9.000E+00
      21     1     1     2   511   502 -2.594578108E+01  8.016472109E+01  6.723579975E+01  1.077971188E+02  2.697398305E-06  0.00000E+00  9.000E+00
#rwgt            1           1   2.4448682208149948E-002           4      251016           0
</event>
<event>
      5   9999  3.19816E-02  1.43016E+02 -1.00000E+00  1.17220E-01
      21    -1     0     0   502   501  0.000000000E+00  0.000000000E+00  8.946690749E+02  8.946690749E+02  0.000000000E+00  0.00000E+00  9.000E+00
      21    -1     0     0   501   512  0.000000000E+00  0.000000000E+00 -9.305245352E+02  9.305245352E+02  0.000000000E+00  0.00000E+00  9.000E+00
      25     1     1     2     0     0 -2.736584432E+02  4.073635341E+02  4.198763416E+02  6.578412686E+02  1.250000000E+02  0.00000E+00  9.000E+00
      25     1     1     2     0     0  1.316139864E+02 -3.907246305E+02  2.150332072E+02  4.815103930E+02  1.250000000E+02  0.00000E+00  9.000E+00
      21     1     1     2   502   512  1.420444567E+02 -1.663890362E+01 -6.707650091E+02  6.858419485E+02  1.321449896E-05  0.00000E+00  9.000E+00
#rwgt            1           1   3.3336409504970368E-002           4      251066           0
</event>
<event>
      5   9999  3.19816E-02  1.40410E+02 -1.00000E+00  1.17542E-01
      21    -1     0     0   502   501  0.000000000E+00  0.000000000E+00  1.137816485E+02  1.137816485E+02  0.000000000E+00  0.00000E+00  9.000E+00
      21    -1     0     0   501   511  0.000000000E+00  0.000000000E+00 -2.467871729E+03  2.467871729E+03  0.000000000E+00  0.00000E+00  9.000E+00
      25     1     1     2     0     0  3.413946359E+02  2.744337383E+02 -1.203186968E+03  1.286525574E+03  1.250000000E+02  0.00000E+00  9.000E+00
      25     1     1     2     0     0 -2.042181269E+02 -3.043932437E+02 -5.176102959E+02  6.464562697E+02  1.250000000E+02  0.00000E+00  9.000E+00
      21     1     1     2   502   511 -1.371765090E+02  2.995950545E+01 -6.332928169E+02  6.486715336E+02  7.629394531E-06  0.00000E+00  9.000E+00
#rwgt            1           1   2.7109628211788937E-002           4      251098           0
</event>
<event>
      5   9999  3.19816E-02  2.13307E+02 -1.00000E+00  1.10639E-01
      21    -1     0     0   512   501  0.000000000E+00  0.000000000E+00  4.871359356E+02  4.871359356E+02  0.000000000E+00  0.00000E+00  9.000E+00
      21    -1     0     0   501   502  0.000000000E+00  0.000000000E+00 -2.999371249E+02  2.999371249E+02  0.000000000E+00  0.00000E+00  9.000E+00
      25     1     1     2     0     0  2.092617988E+01 -1.060024365E+02  1.026141181E+02  1.944969892E+02  1.250000000E+02  0.00000E+00  9.000E+00
      25     1     1     2     0     0  1.861049093E+02  5.464185943E+01 -1.502274075E+02  2.753435019E+02  1.250000000E+02  0.00000E+00  9.000E+00
      21     1     1     2   512   502 -2.070310892E+02  5.136057706E+01  2.348121000E+02  3.172325694E+02  4.672030912E-06  0.00000E+00  9.000E+00
#rwgt            2          11   3.2777997241893613E-003           4      251176           0
</event>
<event>
      5   9999  3.19816E-02  1.65673E+02 -1.00000E+00  1.14708E-01
      21    -1     0     0   502   501  0.000000000E+00  0.000000000E+00  6.723466694E+02  6.723466694E+02  0.000000000E+00  0.00000E+00  9.000E+00
       2    -1     0     0   501     0  0.000000000E+00  0.000000000E+00 -1.763319154E+03  1.763319154E+03  0.000000000E+00  0.00000E+00  9.000E+00
      25     1     1     2     0     0  3.704150198E+02  1.176147822E+02  3.750092341E+02  5.543441616E+02  1.250000000E+02  0.00000E+00  9.000E+00
      25     1     1     2     0     0 -5.108099229E+02 -2.965544812E+01 -1.399668111E+02  5.449971845E+02  1.250000000E+02  0.00000E+00  9.000E+00
       2     1     1     2   502     0  1.403949031E+02 -8.795933407E+01 -1.326014908E+03  1.336324478E+03  2.642899792E-05  0.00000E+00  9.000E+00
#rwgt            1           1   2.6254007485203325E-002           4      251196           0
</event>
<event>
      5   9999  3.19816E-02  2.21459E+01 -1.00000E+00  1.62798E-01
      21    -1     0     0   502   501  0.000000000E+00  0.000000000E+00  6.559843324E+02  6.559843324E+02  0.000000000E+00  0.00000E+00  9.000E+00
       1    -1     0     0   501     0  0.000000000E+00  0.000000000E+00 -7.042414582E+02  7.042414582E+02  0.000000000E+00  0.00000E+00  9.000E+00
      25     1     1     2     0     0 -7.539387278E+01 -2.055231220E+02  3.065876229E+02  3.969193372E+02  1.250000000E+02  0.00000E+00  9.000E+00
      25     1     1     2     0     0  7.463968509E+01  2.276562051E+02  2.439791762E+02  3.640731640E+02  1.250000000E+02  0.00000E+00  9.000E+00
       1     1     1     2   502     0  7.541876876E-01 -2.213308312E+01 -5.988239249E+02  5.992332895E+02  0.000000000E+00  0.00000E+00  9.000E+00
#rwgt            1           1   2.7859124809334241E-002           4      251243           0
</event>
<event>
      5   9999  3.19816E-02  2.74569E+01 -1.00000E+00  1.55761E-01
       3    -1     0     0   502     0  0.000000000E+00  0.000000000E+00  4.189221309E+01  4.189221309E+01  0.000000000E+00  0.00000E+00  9.000E+00
      21    -1     0     0   501   502  0.000000000E+00  0.000000000E+00 -3.353047814E+03  3.353047814E+03  0.000000000E+00  0.00000E+00  9.000E+00
      25     1     1     2     0     0  3.150327809E+01  1.219066714E+02 -2.765330320E+02  3.285562522E+02  1.250000000E+02  0.00000E+00  9.000E+00
      25     1     1     2     0     0 -2.179992252E+01 -1.475917715E+02 -3.032613928E+03  3.038853535E+03  1.250000000E+02  0.00000E+00  9.000E+00
       3     1     1     2   501     0 -9.703355572E+00  2.568510007E+01 -2.008640439E+00  2.753023995E+01  1.901285399E-06  0.00000E+00  9.000E+00
#rwgt            1           1   1.5102949081175538E-002           4      251384           0
</event>
<event>
      5   9999  3.19816E-02  4.37361E+01 -1.00000E+00  1.42475E-01
       2    -1     0     0   502     0  0.000000000E+00  0.000000000E+00  1.179259536E+03  1.179259536E+03  0.000000000E+00  0.00000E+00  9.000E+00
      21    -1     0     0   501   502  0.000000000E+00  0.000000000E+00 -1.633523186E+02  1.633523186E+02  0.000000000E+00  0.00000E+00  9.000E+00
      25     1     1     2     0     0 -1.166150392E+02 -2.648391374E+01  9.989217012E+00  1.732779545E+02  1.250000000E+02  0.00000E+00  9.000E+00
      25     1     1     2     0     0  1.590438640E+02  1.587066729E+01  4.553425671E+01  2.079547963E+02  1.250000000E+02  0.00000E+00  9.000E+00
       2     1     1     2   501     0 -4.242882483E+01  1.061324645E+01  9.603837434E+02  9.613791036E+02  0.000000000E+00  0.00000E+00  9.000E+00
#rwgt            1           1   3.6762268357969002E-002           4      251492           0
</event>
<event>
      5   9999  3.19816E-02  5.94343E+01 -1.00000E+00  1.34924E-01
      21    -1     0     0   502   501  0.000000000E+00  0.000000000E+00  1.234896853E+02  1.234896853E+02  0.000000000E+00  0.00000E+00  9.000E+00
      -2    -1     0     0     0   502  0.000000000E+00  0.000000000E+00 -9.489604995E+02  9.489604995E+02  0.000000000E+00  0.00000E+00  9.000E+00
      25     1     1     2     0     0  5.808602405E+01  1.769427314E+02 -1.032711876E+02  2.469264153E+02  1.250000000E+02  0.00000E+00  9.000E+00
      25     1     1     2     0     0 -9.957491155E+01 -2.194998757E+02 -3.231563989E+02  4.220786853E+02  1.250000000E+02  0.00000E+00  9.000E+00
      -2     1     1     2     0   501  4.148888750E+01  4.255714428E+01 -3.990432278E+02  4.034450842E+02  5.394796609E-06  0.00000E+00  9.000E+00
#rwgt            1           1   2.6244856807706777E-002           4      251584           0
</event>
<event>
      5   9999  3.19816E-02  8.03298E+01 -1.00000E+00  1.28263E-01
      21    -1     0     0   502   501  0.000000000E+00  0.000000000E+00  2.762015119E+02  2.762015119E+02  0.000000000E+00  0.00000E+00  9.000E+00
      21    -1     0     0   501   511  0.000000000E+00  0.000000000E+00 -1.884826676E+03  1.884826676E+03  0.000000000E+00  0.00000E+00  9.000E+00
      25     1     1     2     0     0  5.416520294E+02 -2.783418529E+02 -3.528410933E+02  7.148307108E+02  1.250000000E+02  0.00000E+00  9.000E+00
      25     1     1     2     0     0 -5.005804107E+02  2.093056080E+02 -7.500587192E+02  9.341320396E+02  1.250000000E+02  0.00000E+00  9.000E+00
      21     1     1     2   502   511 -4.107161862E+01  6.903624489E+01 -5.057253519E+02  5.120654378E+02  0.000000000E+00  0.00000E+00  9.000E+00
#rwgt            1           1   2.9262738890212747E-002           4      251661           0
</event>
<event>
      5   9999  3.19816E-02  2.99429E+01 -1.00000E+00  1.53097E-01
      21    -1     0     0   512   501  0.000000000E+00  0.000000000E+00  6.228514393E+02  6.228514393E+02  0.000000000E+00  0.00000E+00  9.000E+00
      21    -1     0     0   501   502  0.000000000E+00  0.000000000E+00 -1.518523574E+02  1.518523574E+02  0.000000000E+00  0.00000E+00  9.000E+00
      25     1     1     2     0     0  1.382629382E+01  1.350207256E+02 -5.833413016E+01  1.935190778E+02  1.250000000E+02  0.00000E+00  9.000E+00
      25     1     1     2     0     0  1.165263164E+01 -1.507496375E+02  3.672979417E+02  4.164060699E+02  1.250000000E+02  0.00000E+00  9.000E+00
      21     1     1     2   512   502 -2.547892546E+01  1.572891191E+01  1.620352704E+02  1.647786490E+02  0.000000000E+00  0.00000E+00  9.000E+00
#rwgt            2          11   9.5007398408798217E-004           4      251911           0
</event>
<event>
      5   9999  3.19816E-02  3.94555E+01 -1.00000E+00  1.45210E-01
      21    -1     0     0   502   511  0.000000000E+00  0.000000000E+00  3.466533796E+02  3.466533796E+02  0.000000000E+00  0.00000E+00  9.000E+00
      21    -1     0     0   501   502  0.000000000E+00  0.000000000E+00 -4.362393422E+02  4.362393422E+02  0.000000000E+00  0.00000E+00  9.000E+00
      25     1     1     2     0     0  1.654572161E+02 -2.469718681E+02 -9.826025968E+01  3.371220441E+02  1.250000000E+02  0.00000E+00  9.000E+00
      25     1     1     2     0     0 -1.668442772E+02  2.864029602E+02 -6.691053736E+01  3.605075429E+02  1.250000000E+02  0.00000E+00  9.000E+00
      21     1     1     2   501   511  1.387061059E+00 -3.943109219E+01  7.558483438E+01  8.526313482E+01  1.348699152E-06  0.00000E+00  9.000E+00
#rwgt            1           1   2.8762616644873795E-002           4      251931           0
</event>
<event>
      5   9999  3.19816E-02  2.58716E+01 -1.00000E+00  1.57644E-01
       2    -1     0     0   502     0  0.000000000E+00  0.000000000E+00  5.474750769E+02  5.474750769E+02  0.000000000E+00  0.00000E+00  9.000E+00
      21    -1     0     0   501   502  0.000000000E+00  0.000000000E+00 -8.261834450E+02  8.261834450E+02  0.000000000E+00  0.00000E+00  9.000E+00
      25     1     1     2     0     0  1.016242561E+02 -5.937691393E+02 -1.519305274E+01  6.154227076E+02  1.250000000E+02  0.00000E+00  9.000E+00
      25     1     1     2     0     0 -7.584973566E+01  5.915300271E+02 -3.256762224E+02  6.909058960E+02  1.250000000E+02  0.00000E+00  9.000E+00
       2     1     1     2   501     0 -2.577452039E+01  2.239112245E+00  6.216090698E+01  6.732991818E+01  9.536743164E-07  0.00000E+00  9.000E+00
#rwgt            1           1   2.7107202949742431E-002           4      252036           0
</event>
<event>
      5   9999  3.19816E-02  2.46657E+01 -1.00000E+00  1.59190E-01
      21    -1     0     0   502   501  0.000000000E+00  0.000000000E+00  5.853797109E+02  5.853797109E+02  0.000000000E+00  0.00000E+00  9.000E+00
      -2    -1     0     0     0   502  0.000000000E+00  0.000000000E+00 -3.724717491E+02  3.724717491E+02  0.000000000E+00  0.00000E+00  9.000E+00
      25     1     1     2     0     0  1.410025051E+02 -1.459115565E+02  2.925235423E+02  3.773154006E+02  1.250000000E+02  0.00000E+00  9.000E+00
      25     1     1     2     0     0 -1.298554462E+02  1.679147736E+02  1.891874217E+02  3.106037486E+02  1.250000000E+02  0.00000E+00  9.000E+00
      -2     1     1     2     0   501 -1.114705894E+01 -2.200321713E+01 -2.688030021E+02  2.699323109E+02  5.394796609E-06  0.00000E+00  9.000E+00
#rwgt            1           1   2.8131048481879500E-002           4      252227           0
</event>
<event>
      5   9999  3.19816E-02  4.07846E+01 -1.00000E+00  1.44319E-01
      21    -1     0     0   511   501  0.000000000E+00  0.000000000E+00  1.692497165E+03  1.692497165E+03  0.000000000E+00  0.00000E+00  9.000E+00
      21    -1     0     0   501   502  0.000000000E+00  0.000000000E+00 -4.402482306E+02  4.402482306E+02  0.000000000E+00  0.00000E+00  9.000E+00
      25     1     1     2     0     0  5.381734676E+02 -6.266944234E+02  6.242377804E+02  1.042916290E+03  1.250000000E+02  0.00000E+00  9.000E+00
      25     1     1     2     0     0 -4.976612224E+02  6.314001460E+02  4.988070317E+02  9.543407628E+02  1.250000000E+02  0.00000E+00  9.000E+00
      21     1     1     2   511   502 -4.051224511E+01 -4.705722562E+00  1.292041220E+02  1.354883425E+02  0.000000000E+00  0.00000E+00  9.000E+00
#rwgt            1           1   3.3548372733432141E-002           4      252324           0
</event>
<event>
      5   9999  3.19816E-02  1.34643E+02 -1.00000E+00  1.18283E-01
      21    -1     0     0   502   501  0.000000000E+00  0.000000000E+00  1.511268751E+03  1.511268751E+03  0.000000000E+00  0.00000E+00  9.000E+00
      21    -1     0     0   512   502  0.000000000E+00  0.000000000E+00 -1.314571388E+02  1.314571388E+02  0.000000000E+00  0.00000E+00  9.000E+00
      25     1     1     2     0     0  1.904384825E+02  3.553514220E+01  3.178661899E+02  3.926747721E+02  1.250000000E+02  0.00000E+00  9.000E+00
      25     1     1     2     0     0 -3.250529817E+02 -3.832282839E+01  1.058917099E+03  1.115373706E+03  1.250000000E+02  0.00000E+00  9.000E+00
      21     1     1     2   512   501  1.346144991E+02  2.787686190E+00  3.028322865E+00  1.346774120E+02  4.083244457E-06  0.00000E+00  9.000E+00
#rwgt            1           1   2.9121401941964466E-002           4      252480           0
</event>
<event>
      5   9999  3.19816E-02  2.58454E+01 -1.00000E+00  1.57677E-01
      21    -1     0     0   502   511  0.000000000E+00  0.000000000E+00  8.452994900E+02  8.452994900E+02  0.000000000E+00  0.00000E+00  9.000E+00
      21    -1     0     0   501   502  0.000000000E+00  0.000000000E+00 -3.846866944E+02  3.846866944E+02  0.000000000E+00  0.00000E+00  9.000E+00
      25     1     1     2     0     0 -2.890161373E+02 -3.949422786E+02 -5.007158388E+01  5.075843719E+02  1.250000000E+02  0.00000E+00  9.000E+00
      25     1     1     2     0     0  2.876091034E+02  3.691351990E+02  4.755729001E+02  6.788036349E+02  1.250000000E+02  0.00000E+00  9.000E+00
      21     1     1     2   501   511  1.407033940E+00  2.580707966E+01  3.511147943E+01  4.359817763E+01  4.768371582E-07  0.00000E+00  9.000E+00
#rwgt            1           1   2.8870417003672225E-002           4      252520           0
</event>
<event>
      5   9999  3.19816E-02  4.35084E+01 -1.00000E+00  1.42611E-01
      21    -1     0     0   502   512  0.000000000E+00  0.000000000E+00  1.113037908E+03  1.113037908E+03  0.000000000E+00  0.00000E+00  9.000E+00
      21    -1     0     0   501   502  0.000000000E+00  0.000000000E+00 -8.787592893E+01  8.787592893E+01  0.000000000E+00  0.00000E+00  9.000E+00
      25     1     1     2     0     0  2.317441266E+01 -7.079953679E+01 -9.032941866E+00  1.457951366E+02  1.250000000E+02  0.00000E+00  9.000E+00
      25     1     1     2     0     0 -6.401314744E+01  8.580561056E+01  7.730669981E+02  7.903909598E+02  1.250000000E+02  0.00000E+00  9.000E+00
      21     1     1     2   501   512  4.083873478E+01 -1.500607377E+01  2.611279233E+02  2.647277410E+02  5.394796609E-06  0.00000E+00  9.000E+00
#rwgt            1           1   2.8671397143641853E-002           4      252668           0
</event>
<event>
      5   9999  3.19816E-02  1.43515E+02 -1.00000E+00  1.17159E-01
      21    -1     0     0   502   501  0.000000000E+00  0.000000000E+00  7.966409449E+02  7.966409449E+02  0.000000000E+00  0.00000E+00  9.000E+00
      21    -1     0     0   501   511  0.000000000E+00  0.000000000E+00 -1.129956582E+02  1.129956582E+02  0.000000000E+00  0.00000E+00  9.000E+00
      25     1     1     2     0     0  1.101191846E+02 -1.304619521E+02  2.730288403E+02  3.454219208E+02  1.250000000E+02  0.00000E+00  9.000E+00
      25     1     1     2     0     0 -2.019639522E+02  2.018402959E+01  2.990810953E+02  3.824543563E+02  1.250000000E+02  0.00000E+00  9.000E+00
      21     1     1     2   502   511  9.184476763E+01  1.102779225E+02  1.115353511E+02  1.817603259E+02  0.000000000E+00  0.00000E+00  9.000E+00
#rwgt            1           1   2.6861846012367574E-002           4      252764           0
</event>
<event>
      5   9999  3.19816E-02  1.14740E+02 -1.00000E+00  1.21200E-01
      21    -1     0     0   502   501  0.000000000E+00  0.000000000E+00  4.615251842E+02  4.615251842E+02  0.000000000E+00  0.00000E+00  9.000E+00
       2    -1     0     0   501     0  0.000000000E+00  0.000000000E+00 -8.743547960E+02  8.743547960E+02  0.000000000E+00  0.00000E+00  9.000E+00
      25     1     1     2     0     0 -3.353770249E+02 -3.790590146E+02 -3.017604204E+02  6.023685223E+02  1.250000000E+02  0.00000E+00  9.000E+00
      25     1     1     2     0     0  2.354015576E+02  3.227551797E+02  1.529405478E+02  4.456462841E+02  1.250000000E+02  0.00000E+00  9.000E+00
       2     1     1     2   502     0  9.997546729E+01  5.630383487E+01 -2.640097392E+02  2.878651737E+02  7.629394531E-06  0.00000E+00  9.000E+00
#rwgt            1           1   3.0869338783134699E-002           4      252829           0
</event>
<event>
      5   9999  3.19816E-02  1.15465E+02 -1.00000E+00  1.21083E-01
      21    -1     0     0   502   511  0.000000000E+00  0.000000000E+00  5.321761466E+02  5.321761466E+02  0.000000000E+00  0.00000E+00  9.000E+00
      21    -1     0     0   501   502  0.000000000E+00  0.000000000E+00 -2.057985977E+02  2.057985977E+02  0.000000000E+00  0.00000E+00  9.000E+00
      25     1     1     2     0     0  7.943931388E+01 -2.913495724E+01  2.770745321E+02  3.155229733E+02  1.250000000E+02  0.00000E+00  9.000E+00
      25     1     1     2     0     0 -4.923023345E+01  1.405785638E+02 -1.117575560E+02  2.242781751E+02  1.250000000E+02  0.00000E+00  9.000E+00
      21     1     1     2   501   511 -3.020908043E+01 -1.114436066E+02  1.610605728E+02  1.981735959E+02  2.697398305E-06  0.00000E+00  9.000E+00
#rwgt            1           1   2.9195524691707681E-002           4      252922           0
</event>
<event>
      5   9999  3.19816E-02  6.49471E+01 -1.00000E+00  1.32890E-01
      21    -1     0     0   502   512  0.000000000E+00  0.000000000E+00  7.478341921E+02  7.478341921E+02  0.000000000E+00  0.00000E+00  9.000E+00
      21    -1     0     0   501   502  0.000000000E+00  0.000000000E+00 -1.351148589E+02  1.351148589E+02  0.000000000E+00  0.00000E+00  9.000E+00
      25     1     1     2     0     0  6.118661273E+01  9.959818948E+01  3.849337112E+02  4.212630567E+02  1.250000000E+02  0.00000E+00  9.000E+00
      25     1     1     2     0     0 -9.568451405E+01 -1.546256676E+02 -4.284787176E+00  2.206988507E+02  1.250000000E+02  0.00000E+00  9.000E+00
      21     1     1     2   501   512  3.449790132E+01  5.502747813E+01  2.320704091E+02  2.409871435E+02  0.000000000E+00  0.00000E+00  9.000E+00
#rwgt            1           1   2.7028684375991291E-002           4      252978           0
</event>
<event>
      5   9999  3.19816E-02  6.81576E+01 -1.00000E+00  1.31810E-01
      21    -1     0     0   502   511  0.000000000E+00  0.000000000E+00  1.898585836E+02  1.898585836E+02  0.000000000E+00  0.00000E+00  9.000E+00
      21    -1     0     0   501   502  0.000000000E+00  0.000000000E+00 -5.089580661E+02  5.089580661E+02  0.000000000E+00  0.00000E+00  9.000E+00
      25     1     1     2     0     0  1.881032320E+02  1.831816040E+02 -2.638773250E+02  3.926761625E+02  1.250000000E+02  0.00000E+00  9.000E+00
      25     1     1     2     0     0 -1.365446021E+02 -1.386040334E+02 -2.881796140E+01  2.330471655E+02  1.250000000E+02  0.00000E+00  9.000E+00
      21     1     1     2   501   511 -5.155862985E+01 -4.457757060E+01 -2.640419608E+01  7.309332174E+01  1.215700987E-06  0.00000E+00  9.000E+00
#rwgt            1           1   2.7715389803235260E-002           4      253102           0
</event>
<event>
      5   9999  3.19816E-02  5.30162E+01 -1.00000E+00  1.37639E-01
      21    -1     0     0   502   501  0.000000000E+00  0.000000000E+00  1.285333923E+03  1.285333923E+03  0.000000000E+00  0.00000E+00  9.000E+00
      21    -1     0     0   501   512  0.000000000E+00  0.000000000E+00 -2.148617161E+03  2.148617161E+03  0.000000000E+00  0.00000E+00  9.000E+00
      25     1     1     2     0     0  3.171737134E+02  1.745246498E+02 -1.542067882E+03  1.588916728E+03  1.250000000E+02  0.00000E+00  9.000E+00
      25     1     1     2     0     0 -3.699444801E+02 -1.796201267E+02  1.223985611E+03  1.297261764E+03  1.250000000E+02  0.00000E+00  9.000E+00
      21     1     1     2   502   512  5.277076668E+01  5.095476854E+00 -5.452009673E+02  5.477725919E+02  7.629394531E-06  0.00000E+00  9.000E+00
#rwgt            1           1   4.7819020106445509E-002           4      253188           0
</event>
<event>
      5   9999  3.19816E-02  3.26218E+01 -1.00000E+00  1.50555E-01
      21    -1     0     0   511   501  0.000000000E+00  0.000000000E+00  2.689789235E+02  2.689789235E+02  0.000000000E+00  0.00000E+00  9.000E+00
      21    -1     0     0   501   502  0.000000000E+00  0.000000000E+00 -1.917272114E+02  1.917272114E+02  0.000000000E+00  0.00000E+00  9.000E+00
      25     1     1     2     0     0  1.073032302E+02 -1.139637533E+02  9.255813335E+01  2.206665546E+02  1.250000000E+02  0.00000E+00  9.000E+00
      25     1     1     2     0     0 -8.025467701E+01  1.321998493E+02 -3.503523436E+01  2.019160246E+02  1.250000000E+02  0.00000E+00  9.000E+00
      21     1     1     2   511   502 -2.704855315E+01 -1.823609606E+01  1.972881311E+01  3.812355562E+01  4.768371582E-07  0.00000E+00  9.000E+00
#rwgt            1           1   2.8376204307361270E-002           4      253457           0
</event>
<event>
      5   9999  3.19816E-02  1.58917E+02 -1.00000E+00  1.15408E-01
      21    -1     0     0   502   501  0.000000000E+00  0.000000000E+00  2.803208206E+02  2.803208206E+02  0.000000000E+00  0.00000E+00  9.000E+00
      21    -1     0     0   512   502  0.000000000E+00  0.000000000E+00 -5.279254243E+02  5.279254243E+02  0.000000000E+00  0.00000E+00  9.000E+00
      25     1     1     2     0     0 -1.449380352E+02 -1.068562530E+02 -8.823949906E+01  2.362974864E+02  1.250000000E+02  0.00000E+00  9.000E+00
      25     1     1     2     0     0  3.031587897E+02  1.217210656E+02 -4.145477666E+00  3.498048807E+02  1.250000000E+02  0.00000E+00  9.000E+00
      21     1     1     2   512   501 -1.582207545E+02 -1.486481257E+01 -1.552196270E+02  2.221438777E+02  2.697398305E-06  0.00000E+00  9.000E+00
#rwgt            1           1   2.5549139584526565E-002           4      253531           0
</event>
<event>
      5   9999  3.19816E-02  5.86181E+01 -1.00000E+00  1.35246E-01
      21    -1     0     0   511   501  0.000000000E+00  0.000000000E+00  1.167071094E+03  1.167071094E+03  0.000000000E+00  0.00000E+00  9.000E+00
      21    -1     0     0   501   502  0.000000000E+00  0.000000000E+00 -5.719280513E+02  5.719280513E+02  0.000000000E+00  0.00000E+00  9.000E+00
      25     1     1     2     0     0  6.487234588E+02  1.554615057E+02  2.091984098E+01  6.790235972E+02  1.250000000E+02  0.00000E+00  9.000E+00
      25     1     1     2     0     0 -6.238351757E+02 -2.085336475E+02  2.256989028E+02  7.065561572E+02  1.250000000E+02  0.00000E+00  9.000E+00
      21     1     1     2   511   502 -2.488828311E+01  5.307214176E+01  3.485242993E+02  3.534193912E+02  0.000000000E+00  0.00000E+00  9.000E+00
#rwgt            1           1   3.1282732591875792E-002           4      253575           0
</event>
<event>
      5   9999  3.19816E-02  2.70944E+01 -1.00000E+00  1.56178E-01
      21    -1     0     0   502   501  0.000000000E+00  0.000000000E+00  6.537602926E+02  6.537602926E+02  0.000000000E+00  0.00000E+00  9.000E+00
      21    -1     0     0   512   502  0.000000000E+00  0.000000000E+00 -8.395191379E+01  8.395191379E+01  0.000000000E+00  0.00000E+00  9.000E+00
      25     1     1     2     0     0 -1.729502274E+01  1.205965462E+02  1.463351024E+02  2.277753432E+02  1.250000000E+02  0.00000E+00  9.000E+00
      25     1     1     2     0     0 -9.799303792E+00 -1.206485379E+02  4.433894575E+02  4.763100955E+02  1.250000000E+02  0.00000E+00  9.000E+00
      21     1     1     2   512   501  2.709432653E+01  5.199163350E-02 -1.991618113E+01  3.362676767E+01  9.830249847E-07  0.00000E+00  9.000E+00
#rwgt            1           1   2.3632240864840396E-002           4      253696           0
</event>
<event>
      5   9999  3.19816E-02  1.20341E+02 -1.00000E+00  1.20316E-01
      21    -1     0     0   502   501  0.000000000E+00  0.000000000E+00  5.975430760E+02  5.975430760E+02  0.000000000E+00  0.00000E+00  9.000E+00
       2    -1     0     0   501     0  0.000000000E+00  0.000000000E+00 -8.284106714E+02  8.284106714E+02  0.000000000E+00  0.00000E+00  9.000E+00
      25     1     1     2     0     0  2.378225000E+01 -2.459478289E+02  2.529582759E+02  3.750584212E+02  1.250000000E+02  0.00000E+00  9.000E+00
      25     1     1     2     0     0  9.533929563E+01  2.630339420E+02  1.938610196E+02  3.626065787E+02  1.250000000E+02  0.00000E+00  9.000E+00
       2     1     1     2   502     0 -1.191215456E+02 -1.708611313E+01 -6.776868909E+02  6.882887476E+02  7.629394531E-06  0.00000E+00  9.000E+00
#rwgt            1           1   2.8144389047133830E-002           4      253837           0
</event>
<event>
      5   9999  3.19816E-02  5.95203E+01 -1.00000E+00  1.34890E-01
      21    -1     0     0   502   501  0.000000000E+00  0.000000000E+00  1.758754733E+02  1.758754733E+02  0.000000000E+00  0.00000E+00  9.000E+00
      21    -1     0     0   501   511  0.000000000E+00  0.000000000E+00 -2.857785179E+02  2.857785179E+02  0.000000000E+00  0.00000E+00  9.000E+00
      25     1     1     2     0     0 -1.018329302E+02 -1.161005233E+02 -7.387289560E+01  2.119704741E+02  1.250000000E+02  0.00000E+00  9.000E+00
      25     1     1     2     0     0  4.452804737E+01  1.000126955E+02  2.071293153E+01  1.674494306E+02  1.250000000E+02  0.00000E+00  9.000E+00
      21     1     1     2   502   511  5.730488284E+01  1.608782784E+01 -5.674308050E+01  8.223408653E+01  9.536743164E-07  0.00000E+00  9.000E+00
#rwgt            1           1   3.2436142167795931E-002           4      253906           0
</event>
<event>
      5   9999  3.19816E-02  1.33779E+02 -1.00000E+00  1.18398E-01
      21    -1     0     0   502   501  0.000000000E+00  0.000000000E+00  3.178470074E+02  3.178470074E+02  0.000000000E+00  0.00000E+00  9.000E+00
       2    -1     0     0   501     0  0.000000000E+00  0.000000000E+00 -2.322903561E+03  2.322903561E+03  0.000000000E+00  0.00000E+00  9.000E+00
      25     1     1     2     0     0 -1.646889692E+02  4.724578183E+02 -2.193095765E+02  5.604110429E+02  1.250000000E+02  0.00000E+00  9.000E+00
      25     1     1     2     0     0  2.040612432E+02 -6.003118333E+02 -5.835747903E+02  8.707467049E+02  1.250000000E+02  0.00000E+00  9.000E+00
       2     1     1     2   502     0 -3.937227396E+01  1.278540150E+02 -1.202172187E+03  1.209592821E+03  0.000000000E+00  0.00000E+00  9.000E+00
#rwgt            1           1   2.1942870937717015E-002           4      253966           0
</event>
<event>
      5   9999  3.19816E-02  6.49543E+01 -1.00000E+00  1.32888E-01
      21    -1     0     0   511   501  0.000000000E+00  0.000000000E+00  2.328951674E+02  2.328951674E+02  0.000000000E+00  0.00000E+00  9.000E+00
      21    -1     0     0   501   502  0.000000000E+00  0.000000000E+00 -8.893120909E+02  8.893120909E+02  0.000000000E+00  0.00000E+00  9.000E+00
      25     1     1     2     0     0  3.599842465E+01 -3.775563948E+02 -3.001176922E+02  4.995401355E+02  1.250000000E+02  0.00000E+00  9.000E+00
      25     1     1     2     0     0  7.607127832E+00  4.256980869E+02 -3.280691786E+02  5.518433795E+02  1.250000000E+02  0.00000E+00  9.000E+00
      21     1     1     2   511   502 -4.360555248E+01 -4.814169208E+01 -2.823005267E+01  7.082374317E+01  1.168007728E-06  0.00000E+00  9.000E+00
#rwgt            1           1   2.6501749696529738E-002           4      254107           0
</event>
<event>
      5   9999  3.19816E-02  9.68194E+00 -1.00000E+00  1.97394E-01
      21    -1     0     0   502   501  0.000000000E+00  0.000000000E+00  1.116625981E+03  1.116625981E+03  0.000000000E+00  0.00000E+00  9.000E+00
      21    -1     0     0   512   502  0.000000000E+00  0.000000000E+00 -5.860307047E+02  5.860307047E+02  0.000000000E+00  0.00000E+00  9.000E+00
      25     1     1     2     0     0  3.038883659E+02  7.117742344E+01  8.537612066E+01  3.468839093E+02  1.250000000E+02  0.00000E+00  9.000E+00
      25     1     1     2     0     0 -3.014357112E+02 -8.054355191E+01  8.690738889E+02  9.318074780E+02  1.250000000E+02  0.00000E+00  9.000E+00
      21     1     1     2   512   501 -2.452654701E+00  9.366128472E+00 -4.238547330E+02  4.239652987E+02  9.344061824E-06  0.00000E+00  9.000E+00
#rwgt            1           1   2.6845161211530872E-002           4      254238           0
</event>
<event>
      5   9999  3.19816E-02  1.45050E+02 -1.00000E+00  1.16974E-01
      21    -1     0     0   511   501  0.000000000E+00  0.000000000E+00  3.001460127E+02  3.001460127E+02  0.000000000E+00  0.00000E+00  9.000E+00
      21    -1     0     0   501   502  0.000000000E+00  0.000000000E+00 -1.085603222E+03  1.085603222E+03  0.000000000E+00  0.00000E+00  9.000E+00
      25     1     1     2     0     0 -3.814284182E+02  2.524718717E+00 -6.953346124E+02  8.028756041E+02  1.250000000E+02  0.00000E+00  9.000E+00
      25     1     1     2     0     0  3.383659232E+02  1.359857990E+02 -1.653654341E+02  4.194691434E+02  1.250000000E+02  0.00000E+00  9.000E+00
      21     1     1     2   511   502  4.306249501E+01 -1.385105178E+02  7.524283687E+01  1.634044874E+02  3.015782986E-06  0.00000E+00  9.000E+00
#rwgt            1           1   2.9501662544575265E-002           4      254525           0
</event>
<event>
      5   9999  3.19816E-02  9.85904E+01 -1.00000E+00  1.24106E-01
      21    -1     0     0   502   512  0.000000000E+00  0.000000000E+00  1.998846541E+03  1.998846541E+03  0.000000000E+00  0.00000E+00  9.000E+00
      21    -1     0     0   501   502  0.000000000E+00  0.000000000E+00 -3.223407132E+02  3.223407132E+02  0.000000000E+00  0.00000E+00  9.000E+00
      25     1     1     2     0     0 -6.726241639E+02 -2.474262953E+02  7.244811959E+02  1.026713709E+03  1.250000000E+02  0.00000E+00  9.000E+00
      25     1     1     2     0     0  6.680070603E+02  3.459085185E+02  7.495386322E+02  1.069261099E+03  1.250000000E+02  0.00000E+00  9.000E+00
      21     1     1     2   501   512  4.617103656E+00 -9.848222323E+01  2.024859999E+02  2.252124466E+02  2.697398305E-06  0.00000E+00  9.000E+00
#rwgt            1           1   2.9230317665343997E-002           4      254588           0
</event>
<event>
      5   9999  3.19816E-02  1.24131E+02 -1.00000E+00  1.19748E-01
      21    -1     0     0   502   501  0.000000000E+00  0.000000000E+00  1.743309430E+02  1.743309430E+02  0.000000000E+00  0.00000E+00  9.000E+00
      21    -1     0     0   501   511  0.000000000E+00  0.000000000E+00 -1.515960204E+03  1.515960204E+03  0.000000000E+00  0.00000E+00  9.000E+00
      25     1     1     2     0     0 -1.962959903E+02  2.689532950E+02 -5.813698680E+02  6.815305672E+02  1.250000000E+02  0.00000E+00  9.000E+00
      25     1     1     2     0     0  1.642634571E+02 -3.888800296E+02 -3.017593984E+02  5.337545272E+02  1.250000000E+02  0.00000E+00  9.000E+00
      21     1     1     2   502   511  3.203253318E+01  1.199267347E+02 -4.584999942E+02  4.750060521E+02  7.629394531E-06  0.00000E+00  9.000E+00
#rwgt            1           1   2.9611076463546920E-002           4      254694           0
</event>
<event>
      5   9999  3.19816E-02  6.89793E+01 -1.00000E+00  1.31545E-01
      21    -1     0     0   512   501  0.000000000E+00  0.000000000E+00  2.742750842E+02  2.742750842E+02  0.000000000E+00  0.00000E+00  9.000E+00
      21    -1     0     0   501   502  0.000000000E+00  0.000000000E+00 -9.214820091E+02  9.214820091E+02  0.000000000E+00  0.00000E+00  9.000E+00
      25     1     1     2     0     0 -3.998327780E+02  2.126267293E+02 -1.866477220E+02  5.055084060E+02  1.250000000E+02  0.00000E+00  9.000E+00
      25     1     1     2     0     0  3.887942511E+02 -1.445363391E+02 -4.418088498E+02  6.187663394E+02  1.250000000E+02  0.00000E+00  9.000E+00
      21     1     1     2   512   502  1.103852685E+01 -6.809039019E+01 -1.875035311E+01  7.148234784E+01  9.830249847E-07  0.00000E+00  9.000E+00
#rwgt            1           1   2.8083469883711742E-002           4      254747           0
</event>
<event>
      5   9999  3.19816E-02  1.66460E+02 -1.00000E+00  1.14629E-01
      21    -1     0     0   502   511  0.000000000E+00  0.000000000E+00  1.871753763E+03  1.871753763E+03  0.000000000E+00  0.00000E+00  9.000E+00
      21    -1     0     0   501   502  0.000000000E+00  0.000000000E+00 -1.500867883E+02  1.500867883E+02  0.000000000E+00  0.00000E+00  9.000E+00
      25     1     1     2     0     0 -1.399721478E+02 -3.400806095E+02  2.018770859E+02  4.377515059E+02  1.250000000E+02  0.00000E+00  9.000E+00
      25     1     1     2     0     0  1.594606581E+02  1.747650999E+02  1.109686718E+03  1.141490322E+03  1.250000000E+02  0.00000E+00  9.000E+00
      21     1     1     2   501   511 -1.948851028E+01  1.653155096E+02  4.101031701E+02  4.425987233E+02  5.394796609E-06  0.00000E+00  9.000E+00
#rwgt            1           1   3.1600351444782883E-002           4      254831           0
</event>
<event>
      5   9999  3.19816E-02  6.49507E+01 -1.00000E+00  1.32889E-01
       2    -1     0     0   502     0  0.000000000E+00  0.000000000E+00  1.204185134E+03  1.204185134E+03  0.000000000E+00  0.00000E+00  9.000E+00
      21    -1     0     0   501   502  0.000000000E+00  0.000000000E+00 -1.447614922E+02  1.447614922E+02  0.000000000E+00  0.00000E+00  9.000E+00
      25     1     1     2     0     0 -1.747367555E+02 -2.075295740E+02  1.574678506E+02  3.376722994E+02  1.250000000E+02  0.00000E+00  9.000E+00
      25     1     1     2     0     0  1.401630152E+02  2.625136166E+02  4.450543174E+02  5.497794241E+02  1.250000000E+02  0.00000E+00  9.000E+00
       2     1     1     2   501     0  3.457374037E+01 -5.498404254E+01  4.569014742E+02  4.614949031E+02  5.394796609E-06  0.00000E+00  9.000E+00
#rwgt            2          18   3.5871684027651078E-004           4      254871           0
</event>
<event>
      5   9999  3.19816E-02  2.28518E+01 -1.00000E+00  1.61730E-01
      21    -1     0     0   502   501  0.000000000E+00  0.000000000E+00  7.703409690E+01  7.703409690E+01  0.000000000E+00  0.00000E+00  9.000E+00
      21    -1     0     0   511   502  0.000000000E+00  0.000000000E+00 -2.327780282E+03  2.327780282E+03  0.000000000E+00  0.00000E+00  9.000E+00
      25     1     1     2     0     0  2.456868023E+02 -6.127354840E+01 -1.929209787E+03  1.949767129E+03  1.250000000E+02  0.00000E+00  9.000E+00
      25     1     1     2     0     0 -2.256819875E+02  7.231939661E+01 -2.078866992E+02  3.391228897E+02  1.250000000E+02  0.00000E+00  9.000E+00
      21     1     1     2   511   501 -2.000481477E+01 -1.104584821E+01 -1.136496988E+02  1.159243608E+02  0.000000000E+00  0.00000E+00  9.000E+00
#rwgt            1           1   2.3459050860440742E-002           4      254890           0
</event>
<event>
      5   9999  3.19816E-02  5.39905E+01 -1.00000E+00  1.37199E-01
      21    -1     0     0   502   501  0.000000000E+00  0.000000000E+00  8.446547151E+02  8.446547151E+02  0.000000000E+00  0.00000E+00  9.000E+00
      21    -1     0     0   512   502  0.000000000E+00  0.000000000E+00 -2.474189431E+02  2.474189431E+02  0.000000000E+00  0.00000E+00  9.000E+00
      25     1     1     2     0     0  1.014453677E+02 -1.552608578E+02  7.443550789E+02  7.772300690E+02  1.250000000E+02  0.00000E+00  9.000E+00
      25     1     1     2     0     0 -5.275038020E+01  1.785797706E+02 -1.153219566E+02  2.521854294E+02  1.250000000E+02  0.00000E+00  9.000E+00
      21     1     1     2   512   501 -4.869498747E+01 -2.331891285E+01 -3.179735035E+01  6.265815981E+01  1.215700987E-06  0.00000E+00  9.000E+00
#rwgt            1           1   2.8149688328304827E-002           4      255095           0
</event>
<event>
      5   9999  3.19816E-02  3.02267E+01 -1.00000E+00  1.52813E-01
      21    -1     0     0   502   501  0.000000000E+00  0.000000000E+00  1.306185379E+02  1.306185379E+02  0.000000000E+00  0.00000E+00  9.000E+00
      21    -1     0     0   501   511  0.000000000E+00  0.000000000E+00 -3.906381555E+02  3.906381555E+02  0.000000000E+00  0.00000E+00  9.000E+00
      25     1     1     2     0     0 -3.590565842E+01 -7.635956030E+01  4.348628305E+01  1.569587703E+02  1.250000000E+02  0.00000E+00  9.000E+00
      25     1     1     2     0     0  6.608602836E+01  7.468713318E+01 -1.977868756E+02  2.543426413E+02  1.250000000E+02  0.00000E+00  9.000E+00
      21     1     1     2   502   511 -3.018036994E+01  1.672427116E+00 -1.057190251E+02  1.099552818E+02  0.000000000E+00  0.00000E+00  9.000E+00
#rwgt            1           1   2.8184244435575923E-002           4      255211           0
</event>
<event>
      5   9999  3.19816E-02  4.59290E+02 -1.00000E+00  9.99112E-02
      21    -1     0     0   502   501  0.000000000E+00  0.000000000E+00  3.200148501E+02  3.200148501E+02  0.000000000E+00  0.00000E+00  9.000E+00
       1    -1     0     0   501     0  0.000000000E+00  0.000000000E+00 -1.801919752E+03  1.801919752E+03  0.000000000E+00  0.00000E+00  9.000E+00
      25     1     1     2     0     0 -4.098887676E+02 -1.779685396E+01 -1.149903929E+02  4.440420253E+02  1.250000000E+02  0.00000E+00  9.000E+00
      25     1     1     2     0     0 -9.389335487E+00  2.052880785E+02 -4.964875620E+00  2.405847144E+02  1.250000000E+02  0.00000E+00  9.000E+00
       1     1     1     2   502     0  4.192781031E+02 -1.874912246E+02 -1.361949634E+03  1.437307863E+03  1.525878906E-05  0.00000E+00  9.000E+00
#rwgt            1           1   2.4504683475504194E-002           4      255379           0
</event>
<event>
      5   9999  3.19816E-02  1.07996E+02 -1.00000E+00  1.22344E-01
      21    -1     0     0   502   501  0.000000000E+00  0.000000000E+00  5.431944279E+02  5.431944279E+02  0.000000000E+00  0.00000E+00  9.000E+00
      21    -1     0     0   511   502  0.000000000E+00  0.000000000E+00 -4.341148051E+02  4.341148051E+02  0.000000000E+00  0.00000E+00  9.000E+00
      25     1     1     2     0     0  3.545181865E+02 -1.326594953E+01  6.680095899E+01  3.820294466E+02  1.250000000E+02  0.00000E+00  9.000E+00
      25     1     1     2     0     0 -3.785263546E+02 -9.202756548E+01  1.565542605E+02  4.380473838E+02  1.250000000E+02  0.00000E+00  9.000E+00
      21     1     1     2   511   501  2.400816813E+01  1.052935150E+02 -1.142755967E+02  1.572324026E+02  1.348699152E-06  0.00000E+00  9.000E+00
#rwgt            1           1   2.8766082198967553E-002           4      255453           0
</event>
<event>
      5   9999  3.19816E-02  6.31904E+01 -1.00000E+00  1.33512E-01
      21    -1     0     0   502   512  0.000000000E+00  0.000000000E+00  2.459187750E+03  2.459187750E+03  0.000000000E+00  0.00000E+00  9.000E+00
      21    -1     0     0   501   502  0.000000000E+00  0.000000000E+00 -6.276688570E+02  6.276688570E+02  0.000000000E+00  0.00000E+00  9.000E+00
      25     1     1     2     0     0 -6.594829534E+02  3.730873437E+01 -3.375471187E+02  7.522451494E+02  1.250000000E+02  0.00000E+00  9.000E+00
      25     1     1     2     0     0  6.226792788E+02 -8.867517611E+01  1.175484967E+03  1.339023031E+03  1.250000000E+02  0.00000E+00  9.000E+00
      21     1     1     2   501   512  3.680367457E+01  5.136644175E+01  9.935810447E+02  9.955884261E+02  1.078959322E-05  0.00000E+00  9.000E+00
#rwgt            1           1   3.2385853356778807E-002           4      255552           0
</event>
<event>
      5   9999  3.19816E-02  4.31175E+01 -1.00000E+00  1.42847E-01
      21    -1     0     0   502   501  0.000000000E+00  0.000000000E+00  8.763878481E+02  8.763878481E+02  0.000000000E+00  0.00000E+00  9.000E+00
      21    -1     0     0   501   511  0.000000000E+00  0.000000000E+00 -4.320742414E+02  4.320742414E+02  0.000000000E+00  0.00000E+00  9.000E+00
      25     1     1     2     0     0 -6.516848653E+01  5.538270795E+02  1.730882607E+02  5.971230289E+02  1.250000000E+02  0.00000E+00  9.000E+00
      25     1     1     2     0     0  5.200630455E+01 -5.948864669E+02  2.725326556E+02  6.682017753E+02  1.250000000E+02  0.00000E+00  9.000E+00
      21     1     1     2   502   511  1.316218198E+01  4.105938733E+01 -1.307309535E+00  4.313728527E+01  6.987675481E-07  0.00000E+00  9.000E+00
#rwgt            1           1   2.6079615003203705E-002           4      255752           0
</event>
<event>
      5   9999  3.19816E-02  4.35015E+01 -1.00000E+00  1.42616E-01
      21    -1     0     0   512   501  0.000000000E+00  0.000000000E+00  7.475112839E+02  7.475112839E+02  0.000000000E+00  0.00000E+00  9.000E+00
      21    -1     0     0   501   502  0.000000000E+00  0.000000000E+00 -1.803836630E+02  1.803836630E+02  0.000000000E+00  0.00000E+00  9.000E+00
      25     1     1     2     0     0  2.500082510E+02  1.545468098E+02  2.467478924E+02  4.036066952E+02  1.250000000E+02  0.00000E+00  9.000E+00
      25     1     1     2     0     0 -2.831667669E+02 -1.827051775E+02  2.378677756E+02  4.310112277E+02  1.250000000E+02  0.00000E+00  9.000E+00
      21     1     1     2   512   502  3.315851586E+01  2.815836769E+01  8.251195289E+01  9.327702404E+01  9.536743164E-07  0.00000E+00  9.000E+00
#rwgt            1           1   2.7293124932414838E-002           4      255957           0
</event>
<event>
      5   9999  3.19816E-02  5.40715E+01 -1.00000E+00  1.37163E-01
      21    -1     0     0   502   511  0.000000000E+00  0.000000000E+00  6.854478329E+02  6.854478329E+02  0.000000000E+00  0.00000E+00  9.000E+00
      21    -1     0     0   501   502  0.000000000E+00  0.000000000E+00 -3.069399172E+02  3.069399172E+02  0.000000000E+00  0.00000E+00  9.000E+00
      25     1     1     2     0     0 -2.848052318E+01  1.784359485E+02  3.187219954E+02  3.871165693E+02  1.250000000E+02  0.00000E+00  9.000E+00
      25     1     1     2     0     0  7.984781719E+01 -1.615502800E+02 -2.257024119E+02  3.147073968E+02  1.250000000E+02  0.00000E+00  9.000E+00
      21     1     1     2   501   511 -5.136729401E+01 -1.688566847E+01  2.854883322E+02  2.905637839E+02  0.000000000E+00  0.00000E+00  9.000E+00
#rwgt            1           1   2.5862264258373169E-002           4      256063           0
</event>
<event>
      5   9999  3.19816E-02  9.73416E+02 -1.00000E+00  9.12730E-02
       2    -1     0     0   502     0  0.000000000E+00  0.000000000E+00  3.762125968E+03  3.762125968E+03  0.000000000E+00  0.00000E+00  9.000E+00
      21    -1     0     0   501   502  0.000000000E+00  0.000000000E+00 -1.889253259E+03  1.889253259E+03  0.000000000E+00  0.00000E+00  9.000E+00
      25     1     1     2     0     0  8.923150612E+02  1.709833407E+02  7.113718185E+02  1.160662025E+03  1.250000000E+02  0.00000E+00  9.000E+00
      25     1     1     2     0     0 -1.098973016E+03  7.802426972E+02 -1.279617128E+03  1.862676931E+03  1.250000000E+02  0.00000E+00  9.000E+00
       2     1     1     2   501     0  2.066579548E+02 -9.512260379E+02  2.441118018E+03  2.628040271E+03  4.315837288E-05  0.00000E+00  9.000E+00
#rwgt            2          18   1.7316895212105927E-003           4      256155           0
</event>
<event>
      5   9999  3.19816E-02  2.40673E+01 -1.00000E+00  1.59998E-01
      21    -1     0     0   502   501  0.000000000E+00  0.000000000E+00  2.206156361E+02  2.206156361E+02  0.000000000E+00  0.00000E+00  9.000E+00
      21    -1     0     0   501   511  0.000000000E+00  0.000000000E+00 -3.292777107E+02  3.292777107E+02  0.000000000E+00  0.00000E+00  9.000E+00
      25     1     1     2     0     0 -1.447400213E+02  8.604047282E+01 -1.841740079E+02  2.791015978E+02  1.250000000E+02  0.00000E+00  9.000E+00
      25     1     1     2     0     0  1.400603076E+02 -1.096484362E+02  9.743168711E+01  2.382385422E+02  1.250000000E+02  0.00000E+00  9.000E+00
      21     1     1     2   502   511  4.679713703E+00  2.360796339E+01 -2.191975385E+01  3.255320667E+01  3.371747881E-07  0.00000E+00  9.000E+00
#rwgt            1           1   2.6179060820824634E-002           4      256174           0
</event>
<event>
      5   9999  3.19816E-02  4.57272E+01 -1.00000E+00  1.41326E-01
      21    -1     0     0   502   501  0.000000000E+00  0.000000000E+00  1.450026443E+03  1.450026443E+03  0.000000000E+00  0.00000E+00  9.000E+00
      21    -1     0     0   501   512  0.000000000E+00  0.000000000E+00 -1.405571076E+02  1.405571076E+02  0.000000000E+00  0.00000E+00  9.000E+00
      25     1     1     2     0     0  4.044435222E+01 -3.257331063E+02  7.264839669E+02  8.069335514E+02  1.250000000E+02  0.00000E+00  9.000E+00
      25     1     1     2     0     0 -2.294654391E+01  3.679800843E+02  6.149758011E+02  7.278434737E+02  1.250000000E+02  0.00000E+00  9.000E+00
      21     1     1     2   502   512 -1.749780831E+01 -4.224697803E+01 -3.199043296E+01  5.580652515E+01  7.539457465E-07  0.00000E+00  9.000E+00
#rwgt            1           1   2.7514444204523140E-002           4      256304           0
</event>
<event>
      5   9999  3.19816E-02  6.77392E+01 -1.00000E+00  1.31947E-01
      21    -1     0     0   511   501  0.000000000E+00  0.000000000E+00  1.699105281E+02  1.699105281E+02  0.000000000E+00  0.00000E+00  9.000E+00
      21    -1     0     0   501   502  0.000000000E+00  0.000000000E+00 -2.289289513E+02  2.289289513E+02  0.000000000E+00  0.00000E+00  9.000E+00
      25     1     1     2     0     0 -1.197846053E+01 -2.699334416E+00 -9.499982063E+01  1.574824938E+02  1.250000000E+02  0.00000E+00  9.000E+00
      25     1     1     2     0     0  7.867901789E+01 -9.117601970E+00 -2.516019586E+01  1.501051431E+02  1.250000000E+02  0.00000E+00  9.000E+00
      21     1     1     2   511   502 -6.670055736E+01  1.181693639E+01  6.114159325E+01  9.125184252E+01  1.168007728E-06  0.00000E+00  9.000E+00
#rwgt            1           1   1.1498513242836874E-002           4      256406           0
</event>
<event>
      5   9999  3.19816E-02  4.50251E+01 -1.00000E+00  1.41723E-01
      21    -1     0     0   502   501  0.000000000E+00  0.000000000E+00  2.294974452E+02  2.294974452E+02  0.000000000E+00  0.00000E+00  9.000E+00
      21    -1     0     0   501   512  0.000000000E+00  0.000000000E+00 -2.903228579E+02  2.903228579E+02  0.000000000E+00  0.00000E+00  9.000E+00
      25     1     1     2     0     0  8.025878067E+01  6.187751577E+01 -1.565064053E+02  2.244761763E+02  1.250000000E+02  0.00000E+00  9.000E+00
      25     1     1     2     0     0 -8.713915701E+01 -1.738118441E+01  1.568650722E+02  2.193786433E+02  1.250000000E+02  0.00000E+00  9.000E+00
      21     1     1     2   502   512  6.880376338E+00 -4.449633136E+01 -6.118407962E+01  7.596548349E+01  9.536743164E-07  0.00000E+00  9.000E+00
#rwgt            1           1   2.8136882165141323E-002           4      256464           0
</event>
<event>
      5   9999  3.19816E-02  5.32642E+01 -1.00000E+00  1.37526E-01
      21    -1     0     0   502   501  0.000000000E+00  0.000000000E+00  1.347064692E+03  1.347064692E+03  0.000000000E+00  0.00000E+00  9.000E+00
      21    -1     0     0   511   502  0.000000000E+00  0.000000000E+00 -3.379675695E+01  3.379675695E+01  0.000000000E+00  0.00000E+00  9.000E+00
      25     1     1     2     0     0 -3.238548156E+01  9.654425784E+01  7.267936171E+02  7.444619365E+02  1.250000000E+02  0.00000E+00  9.000E+00
      25     1     1     2     0     0 -1.378472454E+01 -6.998507529E+01  5.574747185E+02  5.757525433E+02  1.250000000E+02  0.00000E+00  9.000E+00
      21     1     1     2   511   501  4.617020610E+01 -2.655918254E+01  2.899959980E+01  6.064696940E+01  8.920806376E-07  0.00000E+00  9.000E+00
#rwgt            1           1   6.0635085212460978E-002           4      256588           0
</event>
<event>
      5   9999  3.19816E-02  1.13725E+02 -1.00000E+00  1.21367E-01
      21    -1     0     0   512   501  0.000000000E+00  0.000000000E+00  1.430327661E+03  1.430327661E+03  0.000000000E+00  0.00000E+00  9.000E+00
      21    -1     0     0   501   502  0.000000000E+00  0.000000000E+00 -1.758385919E+03  1.758385919E+03  0.000000000E+00  0.00000E+00  9.000E+00
      25     1     1     2     0     0 -8.512341029E+02  1.044880955E+03 -8.071198869E+02  1.575894419E+03  1.250000000E+02  0.00000E+00  9.000E+00
      25     1     1     2     0     0  7.404506356E+02 -1.070579953E+03  2.149072191E+02  1.325224016E+03  1.250000000E+02  0.00000E+00  9.000E+00
      21     1     1     2   512   502  1.107834673E+02  2.569899799E+01  2.641544098E+02  2.875951448E+02  5.394796609E-06  0.00000E+00  9.000E+00
#rwgt            1           1   5.4445222579534075E-002           4      256655           0
</event>
<event>
      5   9999  3.19816E-02  8.78051E+01 -1.00000E+00  1.26423E-01
       2    -1     0     0   502     0  0.000000000E+00  0.000000000E+00  2.082088750E+03  2.082088750E+03  0.000000000E+00  0.00000E+00  9.000E+00
      21    -1     0     0   501   502  0.000000000E+00  0.000000000E+00 -2.403727010E+02  2.403727010E+02  0.000000000E+00  0.00000E+00  9.000E+00
      25     1     1     2     0     0 -1.856236338E+02 -3.913637570E+01 -8.344573173E+01  2.420247497E+02  1.250000000E+02  0.00000E+00  9.000E+00
      25     1     1     2     0     0  2.733172544E+02  3.471391360E+01  2.225952826E+02  3.756075574E+02  1.250000000E+02  0.00000E+00  9.000E+00
       2     1     1     2   501     0 -8.769362063E+01  4.422462095E+00  1.702566498E+03  1.704829144E+03  2.157918644E-05  0.00000E+00  9.000E+00
#rwgt            1           1   2.8996617399158722E-002           4      256778           0
</event>
<event>
      5   9999  3.19816E-02  5.70184E+01 -1.00000E+00  1.35897E-01
      21    -1     0     0   502   501  0.000000000E+00  0.000000000E+00  6.582606109E+02  6.582606109E+02  0.000000000E+00  0.00000E+00  9.000E+00
      21    -1     0     0   511   502  0.000000000E+00  0.000000000E+00 -5.904907931E+02  5.904907931E+02  0.000000000E+00  0.00000E+00  9.000E+00
      25     1     1     2     0     0 -3.327519949E+02  2.894598410E+02 -2.905438751E+02  5.427261124E+02  1.250000000E+02  0.00000E+00  9.000E+00
      25     1     1     2     0     0  3.806307790E+02 -3.204230397E+02  3.866088140E+02  6.423722358E+02  1.250000000E+02  0.00000E+00  9.000E+00
      21     1     1     2   511   501 -4.787878407E+01  3.096319867E+01 -2.829512115E+01  6.365305583E+01  1.011524364E-06  0.00000E+00  9.000E+00
#rwgt            1           1   3.3988602538370764E-002           4      256859           0
</event>
<event>
      5   9999  3.19816E-02  2.92532E+01 -1.00000E+00  1.53804E-01
      21    -1     0     0   502   512  0.000000000E+00  0.000000000E+00  5.569929831E+01  5.569929831E+01  0.000000000E+00  0.00000E+00  9.000E+00
      21    -1     0     0   501   502  0.000000000E+00  0.000000000E+00 -7.351305811E+02  7.351305811E+02  0.000000000E+00  0.00000E+00  9.000E+00
      25     1     1     2     0     0  1.388788796E+01 -9.285176179E+01 -1.080890181E+02  1.900593563E+02  1.250000000E+02  0.00000E+00  9.000E+00
      25     1     1     2     0     0 -1.955104917E+01  6.415198717E+01 -5.381265262E+02  5.565095499E+02  1.250000000E+02  0.00000E+00  9.000E+00
      21     1     1     2   501   512  5.663161211E+00  2.869977462E+01 -3.321573854E+01  4.426097316E+01  6.743495762E-07  0.00000E+00  9.000E+00
#rwgt            1           1   3.3031144614529773E-002           4      257030           0
</event>
<event>
      5   9999  3.19816E-02  5.67066E+01 -1.00000E+00  1.36027E-01
      21    -1     0     0   502   501  0.000000000E+00  0.000000000E+00  7.423979376E+02  7.423979376E+02  0.000000000E+00  0.00000E+00  9.000E+00
      21    -1     0     0   511   502  0.000000000E+00  0.000000000E+00 -4.489350474E+02  4.489350474E+02  0.000000000E+00  0.00000E+00  9.000E+00
      25     1     1     2     0     0  2.852899371E+02  3.240150881E+02  2.028069433E+02  4.930839500E+02  1.250000000E+02  0.00000E+00  9.000E+00
      25     1     1     2     0     0 -2.870126338E+02 -2.673346281E+02  2.817945749E+02  4.988759743E+02  1.250000000E+02  0.00000E+00  9.000E+00
      21     1     1     2   511   501  1.722696645E+00 -5.668046000E+01 -1.911386280E+02  1.993730607E+02  3.814697266E-06  0.00000E+00  9.000E+00
#rwgt            1           1   2.7908673353217901E-002           4      257110           0
</event>
<event>
      5   9999  3.19816E-02  5.62117E+00 -1.00000E+00  2.29963E-01
      21    -1     0     0   502   501  0.000000000E+00  0.000000000E+00  3.257825856E+02  3.257825856E+02  0.000000000E+00  0.00000E+00  9.000E+00
      21    -1     0     0   501   512  0.000000000E+00  0.000000000E+00 -2.053498904E+02  2.053498904E+02  0.000000000E+00  0.00000E+00  9.000E+00
      25     1     1     2     0     0  1.187745515E+02  1.635418995E+02 -3.390249740E+01  2.400577562E+02  1.250000000E+02  0.00000E+00  9.000E+00
      25     1     1     2     0     0 -1.148701304E+02 -1.594980130E+02  1.603878274E+02  2.828144589E+02  1.250000000E+02  0.00000E+00  9.000E+00
      21     1     1     2   502   512 -3.904421079E+00 -4.043886504E+00 -6.052634810E+00  8.260260902E+00  8.429369702E-08  0.00000E+00  9.000E+00
#rwgt            1           1   2.7490047951192201E-002           4      257241           0
</event>
<event>
      5   9999  3.19816E-02  6.92834E+01 -1.00000E+00  1.31447E-01
      21    -1     0     0   502   501  0.000000000E+00  0.000000000E+00  1.636433533E+03  1.636433533E+03  0.000000000E+00  0.00000E+00  9.000E+00
      21    -1     0     0   511   502  0.000000000E+00  0.000000000E+00 -3.813085029E+01  3.813085029E+01  0.000000000E+00  0.00000E+00  9.000E+00
      25     1     1     2     0     0 -6.522620128E+01  9.956624169E+01  1.014715221E+03  1.029290957E+03  1.250000000E+02  0.00000E+00  9.000E+00
      25     1     1     2     0     0  3.229958569E+01 -1.605254968E+02  4.319452953E+02  4.785534834E+02  1.250000000E+02  0.00000E+00  9.000E+00
      21     1     1     2   511   501  3.292661559E+01  6.095925510E+01  1.516421655E+02  1.667199423E+02  1.907348633E-06  0.00000E+00  9.000E+00
#rwgt            1           1   5.0594030822519523E-002           4      257534           0
</event>
<event>
      5   9999  3.19816E-02  5.55718E+01 -1.00000E+00  1.36507E-01
      21    -1     0     0   502   501  0.000000000E+00  0.000000000E+00  2.247796365E+02  2.247796365E+02  0.000000000E+00  0.00000E+00  9.000E+00
      21    -1     0     0   501   512  0.000000000E+00  0.000000000E+00 -7.927621395E+02  7.927621395E+02  0.000000000E+00  0.00000E+00  9.000E+00
      25     1     1     2     0     0 -3.219378584E+02 -1.211434670E+02 -6.904834565E+01  3.724411340E+02  1.250000000E+02  0.00000E+00  9.000E+00
      25     1     1     2     0     0  3.237641127E+02  6.560171654E+01 -4.249626732E+02  5.525803647E+02  1.250000000E+02  0.00000E+00  9.000E+00
      21     1     1     2   502   512 -1.826254324E+00  5.554175042E+01 -7.397148414E+01  9.252027729E+01  9.536743164E-07  0.00000E+00  9.000E+00
#rwgt            1           1   2.9879797097168419E-002           4      257620           0
</event>
<event>
      5   9999  3.19816E-02  1.18891E+02 -1.00000E+00  1.20540E-01
      21    -1     0     0   511   501  0.000000000E+00  0.000000000E+00  1.690023036E+03  1.690023036E+03  0.000000000E+00  0.00000E+00  9.000E+00
      21    -1     0     0   501   502  0.000000000E+00  0.000000000E+00 -5.090962079E+02  5.090962079E+02  0.000000000E+00  0.00000E+00  9.000E+00
      25     1     1     2     0     0  1.101892553E+02 -4.883514191E+02  1.093669316E+03  1.209283405E+03  1.250000000E+02  0.00000E+00  9.000E+00
      25     1     1     2     0     0 -1.850163797E+02  5.807417530E+02 -2.203484025E+02  6.600533789E+02  1.250000000E+02  0.00000E+00  9.000E+00
      21     1     1     2   511   502  7.482712447E+01 -9.239033392E+01  3.076059149E+02  3.297824605E+02  5.394796609E-06  0.00000E+00  9.000E+00
#rwgt            2          11   4.3373724379818096E-003           4      257800           0
</event>
<event>
      5   9999  3.19816E-02  1.47413E+02 -1.00000E+00  1.16694E-01
       2    -1     0     0   502     0  0.000000000E+00  0.000000000E+00  3.399595259E+03  3.399595259E+03  0.000000000E+00  0.00000E+00  9.000E+00
      21    -1     0     0   501   502  0.000000000E+00  0.000000000E+00 -3.133357623E+01  3.133357623E+01  0.000000000E+00  0.00000E+00  9.000E+00
      25     1     1     2     0     0 -1.985285912E+01  1.373446271E+02  3.501658351E+02  3.968611781E+02  1.250000000E+02  0.00000E+00  9.000E+00
      25     1     1     2     0     0  1.024256320E+02 -1.522866318E+01  1.449517009E+03  1.458577212E+03  1.250000000E+02  0.00000E+00  9.000E+00
       2     1     1     2   501     0 -8.257277288E+01 -1.221159639E+02  1.568578838E+03  1.575490445E+03  2.157918644E-05  0.00000E+00  9.000E+00
#rwgt            1           1   3.3136383446419282E-002           4      257820           0
</event>
<event>
      5   9999  3.19816E-02  6.53930E+01 -1.00000E+00  1.32736E-01
      21    -1     0     0   502   501  0.000000000E+00  0.000000000E+00  5.367720225E+02  5.367720225E+02  0.000000000E+00  0.00000E+00  9.000E+00
      21    -1     0     0   501   511  0.000000000E+00  0.000000000E+00 -4.599830616E+02  4.599830616E+02  0.000000000E+00  0.00000E+00  9.000E+00
      25     1     1     2     0     0  2.875270939E+01  1.399270792E+02  4.600273936E+02  4.976509908E+02  1.250000000E+02  0.00000E+00  9.000E+00
      25     1     1     2     0     0  3.660080291E+01 -1.422001964E+02 -3.882682832E+02  4.335179055E+02  1.250000000E+02  0.00000E+00  9.000E+00
      21     1     1     2   502   511 -6.535351230E+01  2.273117201E+00  5.029850521E+00  6.558618779E+01  1.339447800E-06  0.00000E+00  9.000E+00
#rwgt            1           1   3.0762324589323643E-002           4      257870           0
</event>
<event>
      5   9999  3.19816E-02  3.80530E+02 -1.00000E+00  1.02342E-01
      21    -1     0     0   502   501  0.000000000E+00  0.000000000E+00  1.651459666E+03  1.651459666E+03  0.000000000E+00  0.00000E+00  9.000E+00
      21    -1     0     0   501   512  0.000000000E+00  0.000000000E+00 -4.571486986E+02  4.571486986E+02  0.000000000E+00  0.00000E+00  9.000E+00
      25     1     1     2     0     0  3.559357189E+02  2.186014373E+02  9.915850897E+02  1.083209497E+03  1.250000000E+02  0.00000E+00  9.000E+00
      25     1     1     2     0     0  2.075489928E+01 -1.646820318E+02  5.006882533E+02  5.420928559E+02  1.250000000E+02  0.00000E+00  9.000E+00
      21     1     1     2   502   512 -3.766906182E+02 -5.391940547E+01 -2.979623752E+02  4.833060119E+02  1.265191952E-05  0.00000E+00  9.000E+00
#rwgt            1           1   3.4613428048624093E-002           4      257910           0
</event>
<event>
      5   9999  3.19816E-02  6.46074E+01 -1.00000E+00  1.33009E-01
      21    -1     0     0   511   501  0.000000000E+00  0.000000000E+00  2.230636481E+02  2.230636481E+02  0.000000000E+00  0.00000E+00  9.000E+00
      21    -1     0     0   501   502  0.000000000E+00  0.000000000E+00 -6.842622440E+02  6.842622440E+02  0.000000000E+00  0.00000E+00  9.000E+00
      25     1     1     2     0     0  2.415131633E+02 -8.899513181E+01 -4.778410955E+02  5.569612680E+02  1.250000000E+02  0.00000E+00  9.000E+00
      25     1     1     2     0     0 -2.537482076E+02  2.555681151E+01  2.546577215E+01  2.851575161E+02  1.250000000E+02  0.00000E+00  9.000E+00
      21     1     1     2   511   502  1.223504429E+01  6.343832030E+01 -8.823272651E+00  6.520710798E+01  1.294944345E-06  0.00000E+00  9.000E+00
#rwgt            1           1   2.9091157878671701E-002           4      257978           0
</event>
<event>
      5   9999  3.19816E-02  1.54767E+02 -1.00000E+00  1.15858E-01
      21    -1     0     0   512   501  0.000000000E+00  0.000000000E+00  2.743704271E+02  2.743704271E+02  0.000000000E+00  0.00000E+00  9.000E+00
      21    -1     0     0   501   502  0.000000000E+00  0.000000000E+00 -8.957386617E+02  8.957386617E+02  0.000000000E+00  0.00000E+00  9.000E+00
      25     1     1     2     0     0  7.958103425E+01  7.514791048E+01 -2.950469192E+02  3.386119224E+02  1.250000000E+02  0.00000E+00  9.000E+00
      25     1     1     2     0     0  6.293333249E+01 -1.355015777E+02 -5.363359125E+02  5.706158892E+02  1.250000000E+02  0.00000E+00  9.000E+00
      21     1     1     2   512   502 -1.425143667E+02  6.035366727E+01  2.100145970E+02  2.608812773E+02  2.697398305E-06  0.00000E+00  9.000E+00
#rwgt            1           1   2.8717304701567890E-002           4      258112           0
</event>
<event>
      5   9999  3.19816E-02  9.27871E+02 -1.00000E+00  9.17785E-02
      21    -1     0     0   502   511  0.000000000E+00  0.000000000E+00  2.656042944E+03  2.656042944E+03  0.000000000E+00  0.00000E+00  9.000E+00
      21    -1     0     0   501   502  0.000000000E+00  0.000000000E+00 -4.529701148E+02  4.529701148E+02  0.000000000E+00  0.00000E+00  9.000E+00
      25     1     1     2     0     0  9.720018473E+01 -3.803322520E+02 -1.382938060E+01  4.122095943E+02  1.250000000E+02  0.00000E+00  9.000E+00
      25     1     1     2     0     0  4.162926465E+02 -3.925000872E+02  6.428087921E+02  8.695884252E+02  1.250000000E+02  0.00000E+00  9.000E+00
      21     1     1     2   501   511 -5.134928313E+02  7.728323393E+02  1.574093418E+03  1.827215039E+03  2.157918644E-05  0.00000E+00  9.000E+00
#rwgt            2          11   6.1473776697646158E-004           4      258148           0
</event>
<event>
      5   9999  3.19816E-02  2.61089E+01 -1.00000E+00  1.57352E-01
      21    -1     0     0   502   501  0.000000000E+00  0.000000000E+00  5.266597296E+02  5.266597296E+02  0.000000000E+00  0.00000E+00  9.000E+00
       2    -1     0     0   501     0  0.000000000E+00  0.000000000E+00 -3.887223688E+03  3.887223688E+03  0.000000000E+00  0.00000E+00  9.000E+00
      25     1     1     2     0     0 -4.309678415E+02  3.330728197E+02 -1.286502593E+02  5.734515435E+02  1.250000000E+02  0.00000E+00  9.000E+00
      25     1     1     2     0     0  4.547913727E+02 -3.223904428E+02  3.597194100E+01  5.724419367E+02  1.250000000E+02  0.00000E+00  9.000E+00
       2     1     1     2   502     0 -2.382353126E+01 -1.068237681E+01 -3.267885641E+03  3.267989938E+03  0.000000000E+00  0.00000E+00  9.000E+00
#rwgt            1           1   3.0392269721364693E-002           4      258198           0
</event>
<event>
      5   9999  3.19816E-02  7.24743E+01 -1.00000E+00  1.30461E-01
      21    -1     0     0   502   501  0.000000000E+00  0.000000000E+00  3.724981159E+02  3.724981159E+02  0.000000000E+00  0.00000E+00  9.000E+00
      21    -1     0     0   511   502  0.000000000E+00  0.000000000E+00 -4.838940846E+02  4.838940846E+02  0.000000000E+00  0.00000E+00  9.000E+00
      25     1     1     2     0     0  5.107490762E+01 -4.248621350E+01  4.082507916E+01  1.473275657E+02  1.250000000E+02  0.00000E+00  9.000E+00
      25     1     1     2     0     0 -1.074388917E+02  8.804531627E+01  2.433994726E+02  3.068605488E+02  1.250000000E+02  0.00000E+00  9.000E+00
      21     1     1     2   511   501  5.636398411E+01 -4.555910277E+01 -3.956205204E+02  4.022040859E+02  0.000000000E+00  0.00000E+00  9.000E+00
#rwgt            1           1   2.7229252204165354E-002           4      258382           0
</event>
<event>
      5   9999  3.19816E-02  9.45947E+01 -1.00000E+00  1.24923E-01
      21    -1     0     0   502   501  0.000000000E+00  0.000000000E+00  7.285895653E+02  7.285895653E+02  0.000000000E+00  0.00000E+00  9.000E+00
      21    -1     0     0   512   502  0.000000000E+00  0.000000000E+00 -1.463961195E+03  1.463961195E+03  0.000000000E+00  0.00000E+00  9.000E+00
      25     1     1     2     0     0  8.871102003E+02 -3.585762540E+02 -1.651631397E+02  9.790021961E+02  1.250000000E+02  0.00000E+00  9.000E+00
      25     1     1     2     0     0 -8.545535233E+02  4.473918857E+02 -4.879115161E+02  1.088165369E+03  1.250000000E+02  0.00000E+00  9.000E+00
      21     1     1     2   512   501 -3.255667699E+01 -8.881563169E+01 -8.229697400E+01  1.253831950E+02  9.536743164E-07  0.00000E+00  9.000E+00
#rwgt            1           1   4.3803115827300482E-002           4      258428           0
</event>
<event>
      5   9999  3.19816E-02  6.40663E+01 -1.00000E+00  1.33199E-01
      21    -1     0     0   502   511  0.000000000E+00  0.000000000E+00  4.017982033E+02  4.017982033E+02  0.000000000E+00  0.00000E+00  9.000E+00
      21    -1     0     0   501   502  0.000000000E+00  0.000000000E+00 -6.656493994E+02  6.656493994E+02  0.000000000E+00  0.00000E+00  9.000E+00
      25     1     1     2     0     0 -4.262494306E+02 -2.289020981E-02 -2.770261127E+02  5.235045795E+02  1.250000000E+02  0.00000E+00  9.000E+00
      25     1     1     2     0     0  4.215943885E+02 -6.387402129E+01 -5.807099204E+01  4.481282842E+02  1.250000000E+02  0.00000E+00  9.000E+00
      21     1     1     2   501   511  4.655042037E+00  6.389691150E+01  7.124590863E+01  9.581473901E+01  0.000000000E+00  0.00000E+00  9.000E+00
#rwgt            1           1   2.8991418679270742E-002           4      258609           0
</event>
<event>
      5   9999  3.19816E-02  5.55383E+02 -1.00000E+00  9.75730E-02
       2    -1     0     0   502     0  0.000000000E+00  0.000000000E+00  1.439648792E+03  1.439648792E+03  0.000000000E+00  0.00000E+00  9.000E+00
      21    -1     0     0   501   502  0.000000000E+00  0.000000000E+00 -9.171916612E+02  9.171916612E+02  0.000000000E+00  0.00000E+00  9.000E+00
      25     1     1     2     0     0 -3.893019649E+02  4.248690747E+02 -5.016795241E+02  7.741944816E+02  1.250000000E+02  0.00000E+00  9.000E+00
      25     1     1     2     0     0  5.522018226E+02  1.060867871E+02  7.952387653E+02  9.819424388E+02  1.250000000E+02  0.00000E+00  9.000E+00
       2     1     1     2   501     0 -1.628998577E+02 -5.309558618E+02  2.288978900E+02  6.007035333E+02  7.136645101E-06  0.00000E+00  9.000E+00
#rwgt            2          18   6.8498596931460725E-004           4      258723           0
</event>
<event>
      5   9999  3.19816E-02  8.17092E+01 -1.00000E+00  1.27907E-01
      21    -1     0     0   502   501  0.000000000E+00  0.000000000E+00  6.697273463E+01  6.697273463E+01  0.000000000E+00  0.00000E+00  9.000E+00
      21    -1     0     0   501   511  0.000000000E+00  0.000000000E+00 -1.229610333E+03  1.229610333E+03  0.000000000E+00  0.00000E+00  9.000E+00
      25     1     1     2     0     0 -3.281790678E+01 -1.217707270E+02 -2.292885917E+02  2.900058331E+02  1.250000000E+02  0.00000E+00  9.000E+00
      25     1     1     2     0     0  1.135130197E+02  1.089375571E+02 -2.615489781E+02  3.298264164E+02  1.250000000E+02  0.00000E+00  9.000E+00
      21     1     1     2   502   511 -8.069511289E+01  1.283316986E+01 -6.718000286E+02  6.767508182E+02  7.629394531E-06  0.00000E+00  9.000E+00
#rwgt            1           1   2.9228362611806859E-002           4      258742           0
</event>
<event>
      5   9999  3.19816E-02  5.81580E+01 -1.00000E+00  1.35431E-01
       2    -1     0     0   502     0  0.000000000E+00  0.000000000E+00  9.282657363E+02  9.282657363E+02  0.000000000E+00  0.00000E+00  9.000E+00
      21    -1     0     0   501   502  0.000000000E+00  0.000000000E+00 -1.867442095E+02  1.867442095E+02  0.000000000E+00  0.00000E+00  9.000E+00
      25     1     1     2     0     0  6.686798066E+01 -1.270764895E+02  1.970502665E+02  2.739955630E+02  1.250000000E+02  0.00000E+00  9.000E+00
      25     1     1     2     0     0 -2.122012337E+01  1.631129277E+02 -7.427553194E+01  2.195403732E+02  1.250000000E+02  0.00000E+00  9.000E+00
       2     1     1     2   501     0 -4.564785729E+01 -3.603643817E+01  6.187467923E+02  6.214740097E+02  7.629394531E-06  0.00000E+00  9.000E+00
#rwgt            1           1   2.5384492544290666E-002           4      258792           0
</event>
<event>
      5   9999  3.19816E-02  3.21429E+01 -1.00000E+00  1.50987E-01
      21    -1     0     0   502   501  0.000000000E+00  0.000000000E+00  6.479345887E+02  6.479345887E+02  0.000000000E+00  0.00000E+00  9.000E+00
      21    -1     0     0   511   502  0.000000000E+00  0.000000000E+00 -5.707100409E+02  5.707100409E+02  0.000000000E+00  0.00000E+00  9.000E+00
      25     1     1     2     0     0 -3.022813486E+02  4.518352856E+01  2.360904286E+02  4.059301116E+02  1.250000000E+02  0.00000E+00  9.000E+00
      25     1     1     2     0     0  3.212217689E+02 -1.921384044E+01  2.349511827E+02  4.175879006E+02  1.250000000E+02  0.00000E+00  9.000E+00
      21     1     1     2   511   501 -1.894042029E+01 -2.596968812E+01 -3.938170636E+02  3.951266174E+02  5.394796609E-06  0.00000E+00  9.000E+00
#rwgt            1           1   3.0971826656958992E-002           4      258849           0
</event>
<event>
      5   9999  3.19816E-02  4.16858E+01 -1.00000E+00  1.43737E-01
      21    -1     0     0   502   512  0.000000000E+00  0.000000000E+00  9.237842639E+01  9.237842639E+01  0.000000000E+00  0.00000E+00  9.000E+00
      21    -1     0     0   501   502  0.000000000E+00  0.000000000E+00 -3.041436878E+03  3.041436878E+03  0.000000000E+00  0.00000E+00  9.000E+00
      25     1     1     2     0     0  1.778887555E+02  1.015174769E+02 -4.129727884E+02  4.776209077E+02  1.250000000E+02  0.00000E+00  9.000E+00
      25     1     1     2     0     0 -2.166857294E+02 -8.626954154E+01 -2.581224024E+03  2.594751934E+03  1.250000000E+02  0.00000E+00  9.000E+00
      21     1     1     2   501   512  3.879697399E+01 -1.524793535E+01  4.513836005E+01  6.144246310E+01  2.286830675E-06  0.00000E+00  9.000E+00
#rwgt            1           1   3.3202119067492528E-002           4      258967           0
</event>
<event>
      5   9999  3.19816E-02  1.08545E+02 -1.00000E+00  1.22247E-01
      21    -1     0     0   502   501  0.000000000E+00  0.000000000E+00  8.303428736E+02  8.303428736E+02  0.000000000E+00  0.00000E+00  9.000E+00
      21    -1     0     0   501   511  0.000000000E+00  0.000000000E+00 -4.200817891E+02  4.200817891E+02  0.000000000E+00  0.00000E+00  9.000E+00
      25     1     1     2     0     0  1.758485684E+02 -6.438953193E+01 -3.265892131E+02  3.966790200E+02  1.250000000E+02  0.00000E+00  9.000E+00
      25     1     1     2     0     0 -6.736598899E+01  6.808329057E+01  7.280030687E+02  7.448402372E+02  1.250000000E+02  0.00000E+00  9.000E+00
      21     1     1     2   502   511 -1.084825794E+02 -3.693758641E+00  8.847228930E+00  1.089054055E+02  1.209842153E-06  0.00000E+00  9.000E+00
#rwgt            1           1   3.1140325421231949E-002           4      259053           0
</event>
<event>
      5   9999  3.19816E-02  6.71351E+01 -1.00000E+00  1.32146E-01
      21    -1     0     0   502   501  0.000000000E+00  0.000000000E+00  1.549234317E+02  1.549234317E+02  0.000000000E+00  0.00000E+00  9.000E+00
      21    -1     0     0   501   512  0.000000000E+00  0.000000000E+00 -4.786303203E+02  4.786303203E+02  0.000000000E+00  0.00000E+00  9.000E+00
      25     1     1     2     0     0  7.715775504E+01 -1.887640551E+02 -2.812101741E+02  3.691738746E+02  1.250000000E+02  0.00000E+00  9.000E+00
      25     1     1     2     0     0 -5.996503714E+01  1.238677740E+02 -1.898068722E+00  1.859237311E+02  1.250000000E+02  0.00000E+00  9.000E+00
      21     1     1     2   502   512 -1.719271790E+01  6.489628111E+01 -4.059864584E+01  7.845614632E+01  6.743495762E-07  0.00000E+00  9.000E+00
#rwgt            1           1   2.7297532452140380E-002           4      259171           0
</event>
<event>
      5   9999  3.19816E-02  8.04904E+02 -1.00000E+00  9.33124E-02
       2    -1     0     0   502     0  0.000000000E+00  0.000000000E+00  6.498162418E+02  6.498162418E+02  0.000000000E+00  0.00000E+00  9.000E+00
      21    -1     0     0   501   502  0.000000000E+00  0.000000000E+00 -1.950121030E+03  1.950121030E+03  0.000000000E+00  0.00000E+00  9.000E+00
      25     1     1     2     0     0  5.956286356E+02  5.180674201E+01 -3.859199871E+02  7.225071947E+02  1.250000000E+02  0.00000E+00  9.000E+00
      25     1     1     2     0     0 -2.185790340E+02 -7.629351114E+02 -2.739796394E+02  8.488442855E+02  1.250000000E+02  0.00000E+00  9.000E+00
       2     1     1     2   501     0 -3.770496016E+02  7.111283693E+02 -6.404051621E+02  1.028585792E+03  2.018548058E-05  0.00000E+00  9.000E+00
#rwgt            2          18   9.5646817103763922E-005           4      259311           0
</event>
<event>
      5   9999  3.19816E-02  1.44334E+02 -1.00000E+00  1.17060E-01
       2    -1     0     0   502     0  0.000000000E+00  0.000000000E+00  7.536869861E+02  7.536869861E+02  0.000000000E+00  0.00000E+00  9.000E+00
      21    -1     0     0   501   502  0.000000000E+00  0.000000000E+00 -8.083618529E+02  8.083618529E+02  0.000000000E+00  0.00000E+00  9.000E+00
      25     1     1     2     0     0 -4.759602547E+02  3.561487324E+02 -1.626981777E+02  6.288686514E+02  1.250000000E+02  0.00000E+00  9.000E+00
      25     1     1     2     0     0  3.563589349E+02 -2.753535675E+02 -2.621438954E+02  5.358691067E+02  1.250000000E+02  0.00000E+00  9.000E+00
       2     1     1     2   501     0  1.196013198E+02 -8.079516496E+01  3.701672064E+02  3.973110809E+02  7.629394531E-06  0.00000E+00  9.000E+00
#rwgt            2          18   6.6694468017804208E-004           4      259360           0
</event>
<event>
      5   9999  3.19816E-02  7.53658E+01 -1.00000E+00  1.29617E-01
      21    -1     0     0   502   501  0.000000000E+00  0.000000000E+00  3.691097744E+02  3.691097744E+02  0.000000000E+00  0.00000E+00  9.000E+00
       2    -1     0     0   501     0  0.000000000E+00  0.000000000E+00 -1.525154737E+03  1.525154737E+03  0.000000000E+00  0.00000E+00  9.000E+00
      25     1     1     2     0     0 -1.305984607E+02 -1.780561777E+02 -6.330851964E+02  6.820423933E+02  1.250000000E+02  0.00000E+00  9.000E+00
      25     1     1     2     0     0  9.166838300E+01  1.135235861E+02  3.160310349E+02  3.698530952E+02  1.250000000E+02  0.00000E+00  9.000E+00
       2     1     1     2   502     0  3.893007769E+01  6.453259165E+01 -8.389908016E+02  8.423690234E+02  0.000000000E+00  0.00000E+00  9.000E+00
#rwgt            1           1   3.1037610554858906E-002           4      259379           0
</event>
<event>
      5   9999  3.19816E-02  2.54284E+01 -1.00000E+00  1.58200E-01
      21    -1     0     0   502   511  0.000000000E+00  0.000000000E+00  3.880546570E+02  3.880546570E+02  0.000000000E+00  0.00000E+00  9.000E+00
      21    -1     0     0   501   502  0.000000000E+00  0.000000000E+00 -2.081837633E+02  2.081837633E+02  0.000000000E+00  0.00000E+00  9.000E+00
      25     1     1     2     0     0 -2.528731786E+01 -1.335306828E+02 -1.317853065E+02  2.268529451E+02  1.250000000E+02  0.00000E+00  9.000E+00
      25     1     1     2     0     0  3.653631736E+01  1.107257694E+02  2.516814554E+02  3.042427542E+02  1.250000000E+02  0.00000E+00  9.000E+00
      21     1     1     2   501   511 -1.124899951E+01  2.280491346E+01  5.997474483E+01  6.514272089E+01  6.743495762E-07  0.00000E+00  9.000E+00
#rwgt            1           1   2.8331164238209579E-002           4      259470           0
</event>
<event>
      5   9999  3.19816E-02  1.04405E+02 -1.00000E+00  1.22992E-01
      21    -1     0     0   502   512  0.000000000E+00  0.000000000E+00  8.808046175E+02  8.808046175E+02  0.000000000E+00  0.00000E+00  9.000E+00
      21    -1     0     0   501   502  0.000000000E+00  0.000000000E+00 -6.052617809E+02  6.052617809E+02  0.000000000E+00  0.00000E+00  9.000E+00
      25     1     1     2     0     0  1.313352421E+02 -2.261012444E+02 -4.986409718E+02  5.767482443E+02  1.250000000E+02  0.00000E+00  9.000E+00
      25     1     1     2     0     0 -1.129163906E+02  3.288688496E+02  5.580791711E+02  6.693147187E+02  1.250000000E+02  0.00000E+00  9.000E+00
      21     1     1     2   501   512 -1.841885155E+01 -1.027676052E+02  2.161046373E+02  2.400034354E+02  0.000000000E+00  0.00000E+00  9.000E+00
#rwgt            1           1   3.2342494675937861E-002           4      259594           0
</event>
<event>
      5   9999  3.19816E-02  5.13550E+01 -1.00000E+00  1.38416E-01
      21    -1     0     0   502   511  0.000000000E+00  0.000000000E+00  1.856712090E+02  1.856712090E+02  0.000000000E+00  0.00000E+00  9.000E+00
      21    -1     0     0   501   502  0.000000000E+00  0.000000000E+00 -6.602314603E+02  6.602314603E+02  0.000000000E+00  0.00000E+00  9.000E+00
      25     1     1     2     0     0  2.435183343E+02 -5.788542286E+01 -3.556261088E+02  4.524895917E+02  1.250000000E+02  0.00000E+00  9.000E+00
      25     1     1     2     0     0 -2.717188608E+02  1.008047655E+02 -1.291981650E+02  3.410423814E+02  1.250000000E+02  0.00000E+00  9.000E+00
      21     1     1     2   501   511  2.820052651E+01 -4.291934264E+01  1.026402247E+01  5.237069625E+01  8.172577143E-07  0.00000E+00  9.000E+00
#rwgt            1           1   2.8130499134658253E-002           4      259712           0
</event>
<event>
      5   9999  3.19816E-02  9.96044E+00 -1.00000E+00  1.95956E-01
      21    -1     0     0   512   501  0.000000000E+00  0.000000000E+00  1.157525433E+02  1.157525433E+02  0.000000000E+00  0.00000E+00  9.000E+00
      21    -1     0     0   501   502  0.000000000E+00  0.000000000E+00 -2.302441830E+03  2.302441830E+03  0.000000000E+00  0.00000E+00  9.000E+00
      25     1     1     2     0     0 -3.661154872E+02  2.150269928E+02 -1.676582165E+03  1.734021313E+03  1.250000000E+02  0.00000E+00  9.000E+00
      25     1     1     2     0     0  3.676697388E+02 -2.051885663E+02 -5.114097323E+02  6.741278060E+02  1.250000000E+02  0.00000E+00  9.000E+00
      21     1     1     2   512   502 -1.554251537E+00 -9.838426541E+00  1.302610874E+00  1.004525409E+01  2.715120786E-07  0.00000E+00  9.000E+00
#rwgt            1           1   2.6252897446508845E-002           4      259780           0
</event>
<event>
      5   9999  3.19816E-02  5.39496E+01 -1.00000E+00  1.37217E-01
      21    -1     0     0   502   501  0.000000000E+00  0.000000000E+00  1.186340122E+02  1.186340122E+02  0.000000000E+00  0.00000E+00  9.000E+00
      21    -1     0     0   511   502  0.000000000E+00  0.000000000E+00 -8.842585717E+02  8.842585717E+02  0.000000000E+00  0.00000E+00  9.000E+00
      25     1     1     2     0     0  1.357046786E+02  3.898041328E+01 -5.794705624E+02  6.093819534E+02  1.250000000E+02  0.00000E+00  9.000E+00
      25     1     1     2     0     0 -9.996385127E+01 -7.939270884E+01  2.058682512E+01  1.798465767E+02  1.250000000E+02  0.00000E+00  9.000E+00
      21     1     1     2   511   501 -3.574082732E+01  4.041229556E+01 -2.067408222E+02  2.136640539E+02  0.000000000E+00  0.00000E+00  9.000E+00
#rwgt            1           1   2.4226973851873623E-002           4      260091           0
</event>
<event>
      5   9999  3.19816E-02  2.91202E+01 -1.00000E+00  1.53943E-01
      21    -1     0     0   502   501  0.000000000E+00  0.000000000E+00  3.285022837E+02  3.285022837E+02  0.000000000E+00  0.00000E+00  9.000E+00
      21    -1     0     0   501   512  0.000000000E+00  0.000000000E+00 -2.840852641E+02  2.840852641E+02  0.000000000E+00  0.00000E+00  9.000E+00
      25     1     1     2     0     0 -1.430209712E+02 -8.270438301E+01  2.105711846E+02  2.953984376E+02  1.250000000E+02  0.00000E+00  9.000E+00
      25     1     1     2     0     0  1.433145967E+02  5.358564976E+01 -5.906883343E+01  2.062149912E+02  1.250000000E+02  0.00000E+00  9.000E+00
      21     1     1     2   502   512 -2.936255669E-01  2.911873325E+01 -1.070853316E+02  1.109741190E+02  1.348699152E-06  0.00000E+00  9.000E+00
#rwgt            1           1   2.5673476214818889E-002           4      260168           0
</event>
<event>
      5   9999  3.19816E-02  3.02603E+01 -1.00000E+00  1.52780E-01
      21    -1     0     0   502   501  0.000000000E+00  0.000000000E+00  6.671696230E+02  6.671696230E+02  0.000000000E+00  0.00000E+00  9.000E+00
      21    -1     0     0   501   511  0.000000000E+00  0.000000000E+00 -5.085839358E+02  5.085839358E+02  0.000000000E+00  0.00000E+00  9.000E+00
      25     1     1     2     0     0  4.080038594E+02  3.850991940E+02  7.538604031E+01  5.797211343E+02  1.250000000E+02  0.00000E+00  9.000E+00
      25     1     1     2     0     0 -3.787276891E+02 -3.927535815E+02  8.225910109E+01  5.657575435E+02  1.250000000E+02  0.00000E+00  9.000E+00
      21     1     1     2   502   511 -2.927617028E+01  7.654387511E+00  9.405457850E-01  3.027488102E+01  3.519955817E-07  0.00000E+00  9.000E+00
#rwgt            1           1   2.1748953129485091E-002           4      260281           0
</event>
<event>
      5   9999  3.19816E-02  1.13293E+02 -1.00000E+00  1.21438E-01
      21    -1     0     0   502   512  0.000000000E+00  0.000000000E+00  1.325425549E+03  1.325425549E+03  0.000000000E+00  0.00000E+00  9.000E+00
      21    -1     0     0   501   502  0.000000000E+00  0.000000000E+00 -1.141327750E+02  1.141327750E+02  0.000000000E+00  0.00000E+00  9.000E+00
      25     1     1     2     0     0 -1.385709147E+02  4.854995213E+01  2.306881547E+01  1.942065048E+02  1.250000000E+02  0.00000E+00  9.000E+00
      25     1     1     2     0     0  1.611097394E+02 -1.595783824E+02  8.591900612E+02  8.973595542E+02  1.250000000E+02  0.00000E+00  9.000E+00
      21     1     1     2   501   512 -2.253882467E+01  1.110284302E+02  3.290338973E+02  3.479922650E+02  3.814697266E-06  0.00000E+00  9.000E+00
#rwgt            1           1   2.8545106307225086E-002           4      260409           0
</event>
<event>
      5   9999  3.19816E-02  2.02537E+02 -1.00000E+00  1.11449E-01
      21    -1     0     0   511   501  0.000000000E+00  0.000000000E+00  2.253415006E+03  2.253415006E+03  0.000000000E+00  0.00000E+00  9.000E+00
      21    -1     0     0   501   502  0.000000000E+00  0.000000000E+00 -1.559402916E+02  1.559402916E+02  0.000000000E+00  0.00000E+00  9.000E+00
      25     1     1     2     0     0  3.484458009E+01  2.317153381E+02  7.723898849E+01  2.765809177E+02  1.250000000E+02  0.00000E+00  9.000E+00
      25     1     1     2     0     0  1.626987147E+02 -1.870169483E+02  3.335255827E+02  4.339476063E+02  1.250000000E+02  0.00000E+00  9.000E+00
      21     1     1     2   511   502 -1.975432948E+02 -4.469838978E+01  1.686710143E+03  1.698826774E+03  2.157918644E-05  0.00000E+00  9.000E+00
#rwgt            1           1   2.6993376144139419E-002           4      260518           0
</event>
<event>
      5   9999  3.19816E-02  5.29374E+01 -1.00000E+00  1.37676E-01
      21    -1     0     0   502   501  0.000000000E+00  0.000000000E+00  1.552115876E+02  1.552115876E+02  0.000000000E+00  0.00000E+00  9.000E+00
       2    -1     0     0   501     0  0.000000000E+00  0.000000000E+00 -8.357729594E+02  8.357729594E+02  0.000000000E+00  0.00000E+00  9.000E+00
      25     1     1     2     0     0  2.363392192E+02 -1.704059880E+02 -1.272348023E+02  3.416257048E+02  1.250000000E+02  0.00000E+00  9.000E+00
      25     1     1     2     0     0 -1.834373186E+02  1.723450489E+02 -4.145474970E+02  5.008260107E+02  1.250000000E+02  0.00000E+00  9.000E+00
       2     1     1     2   502     0 -5.290190062E+01 -1.939060900E+00 -1.387790726E+02  1.485328315E+02  0.000000000E+00  0.00000E+00  9.000E+00
#rwgt            1           1   2.8257957692141213E-002           4      260546           0
</event>
<event>
      5   9999  3.19816E-02  7.46733E+01 -1.00000E+00  1.29815E-01
      21    -1     0     0   511   501  0.000000000E+00  0.000000000E+00  7.835795373E+02  7.835795373E+02  0.000000000E+00  0.00000E+00  9.000E+00
      21    -1     0     0   501   502  0.000000000E+00  0.000000000E+00 -9.857605823E+01  9.857605823E+01  0.000000000E+00  0.00000E+00  9.000E+00
      25     1     1     2     0     0  2.172941094E+02  5.200023582E+01  4.448227021E+02  5.132377527E+02  1.250000000E+02  0.00000E+00  9.000E+00
      25     1     1     2     0     0 -1.508389140E+02 -1.794422552E+01  1.299221901E+02  2.357523037E+02  1.250000000E+02  0.00000E+00  9.000E+00
      21     1     1     2   511   502 -6.645519542E+01 -3.405601030E+01  1.102585868E+02  1.331655391E+02  1.348699152E-06  0.00000E+00  9.000E+00
#rwgt            1           1   3.0458209546911336E-002           4      260601           0
</event>
<event>
      5   9999  3.19816E-02  2.52430E+01 -1.00000E+00  1.58437E-01
       2    -1     0     0   502     0  0.000000000E+00  0.000000000E+00  9.002257380E+02  9.002257380E+02  0.000000000E+00  0.00000E+00  9.000E+00
      21    -1     0     0   501   502  0.000000000E+00  0.000000000E+00 -4.829981675E+02  4.829981675E+02  0.000000000E+00  0.00000E+00  9.000E+00
      25     1     1     2     0     0 -2.012622439E+02  3.562165174E+02 -1.614184086E+02  4.572500418E+02  1.250000000E+02  0.00000E+00  9.000E+00
      25     1     1     2     0     0  2.247014384E+02 -3.655872837E+02  1.148297188E+02  4.614711939E+02  1.250000000E+02  0.00000E+00  9.000E+00
       2     1     1     2   501     0 -2.343919449E+01  9.370766374E+00  4.638162603E+02  4.645026700E+02  0.000000000E+00  0.00000E+00  9.000E+00
#rwgt            1           1   2.9685635414377867E-002           4      260653           0
</event>
<event>
      5   9999  3.19816E-02  2.96179E+02 -1.00000E+00  1.05773E-01
      21    -1     0     0   502   501  0.000000000E+00  0.000000000E+00  1.044281271E+03  1.044281271E+03  0.000000000E+00  0.00000E+00  9.000E+00
       2    -1     0     0   501     0  0.000000000E+00  0.000000000E+00 -2.988768702E+03  2.988768702E+03  0.000000000E+00  0.00000E+00  9.000E+00
      25     1     1     2     0     0  8.297544464E+02 -1.152776350E+03 -3.869712719E+02  1.477415825E+03  1.250000000E+02  0.00000E+00  9.000E+00
      25     1     1     2     0     0 -5.427694570E+02  1.226000746E+03 -4.664597119E+02  1.425091638E+03  1.250000000E+02  0.00000E+00  9.000E+00
       2     1     1     2   502     0 -2.869849894E+02 -7.322439559E+01 -1.091056447E+03  1.130542510E+03  0.000000000E+00  0.00000E+00  9.000E+00
#rwgt            1           1   3.1551041742361084E-002           4      260818           0
</event>
<event>
      5   9999  3.19816E-02  9.23643E+00 -1.00000E+00  1.99831E-01
      21    -1     0     0   511   501  0.000000000E+00  0.000000000E+00  1.212057139E+03  1.212057139E+03  0.000000000E+00  0.00000E+00  9.000E+00
      21    -1     0     0   501   502  0.000000000E+00  0.000000000E+00 -2.763954542E+01  2.763954542E+01  0.000000000E+00  0.00000E+00  9.000E+00
      25     1     1     2     0     0  7.177230246E+01  8.998329797E+01  3.878029695E+02  4.233962688E+02  1.250000000E+02  0.00000E+00  9.000E+00
      25     1     1     2     0     0 -6.312125746E+01 -8.674740522E+01  6.944568500E+02  7.137259431E+02  1.250000000E+02  0.00000E+00  9.000E+00
      21     1     1     2   511   502 -8.651045007E+00 -3.235892751E+00  1.021577741E+02  1.025744724E+02  0.000000000E+00  0.00000E+00  9.000E+00
#rwgt            1           1   3.4289313614533912E-002           4      260898           0
</event>
<event>
      5   9999  3.19816E-02  7.94984E+00 -1.00000E+00  2.08028E-01
      21    -1     0     0   512   501  0.000000000E+00  0.000000000E+00  5.203851117E+01  5.203851117E+01  0.000000000E+00  0.00000E+00  9.000E+00
      21    -1     0     0   501   502  0.000000000E+00  0.000000000E+00 -9.220360796E+02  9.220360796E+02  0.000000000E+00  0.00000E+00  9.000E+00
      25     1     1     2     0     0  2.275193543E+01  1.617692397E+02 -5.840732445E+02  6.192362170E+02  1.250000000E+02  0.00000E+00  9.000E+00
      25     1     1     2     0     0 -1.955514785E+01 -1.544904643E+02 -2.830210657E+02  3.463749861E+02  1.250000000E+02  0.00000E+00  9.000E+00
      21     1     1     2   512   502 -3.196787579E+00 -7.278775441E+00 -2.903258223E+00  8.463387682E+00  1.264405455E-07  0.00000E+00  9.000E+00
#rwgt            1           1   2.8566291565408148E-002           4      261154           0
</event>
<event>
      5   9999  3.19816E-02  4.26645E+01 -1.00000E+00  1.43124E-01
      21    -1     0     0   502   501  0.000000000E+00  0.000000000E+00  1.020474104E+03  1.020474104E+03  0.000000000E+00  0.00000E+00  9.000E+00
      21    -1     0     0   501   511  0.000000000E+00  0.000000000E+00 -9.867478258E+02  9.867478258E+02  0.000000000E+00  0.00000E+00  9.000E+00
      25     1     1     2     0     0  2.345098996E+01  2.264566020E+01 -3.157591585E+02  3.411621624E+02  1.250000000E+02  0.00000E+00  9.000E+00
      25     1     1     2     0     0 -6.291440507E+01 -6.431386198E+00  1.002204487E+03  1.011947834E+03  1.250000000E+02  0.00000E+00  9.000E+00
      21     1     1     2   502   511  3.946341511E+01 -1.621427401E+01 -6.527190498E+02  6.541119337E+02  7.629394531E-06  0.00000E+00  9.000E+00
#rwgt            1           1   3.0889058094179533E-002           4      261336           0
</event>
<event>
      5   9999  3.19816E-02  3.09932E+01 -1.00000E+00  1.52064E-01
      21    -1     0     0   512   501  0.000000000E+00  0.000000000E+00  4.870273809E+01  4.870273809E+01  0.000000000E+00  0.00000E+00  9.000E+00
      21    -1     0     0   501   502  0.000000000E+00  0.000000000E+00 -1.171615733E+03  1.171615733E+03  0.000000000E+00  0.00000E+00  9.000E+00
      25     1     1     2     0     0  8.167389073E+01  1.307702641E+02 -4.640903144E+02  5.047537086E+02  1.250000000E+02  0.00000E+00  9.000E+00
      25     1     1     2     0     0 -1.048346016E+02 -1.101751591E+02 -6.554665252E+02  6.843904039E+02  1.250000000E+02  0.00000E+00  9.000E+00
      21     1     1     2   512   502  2.316071087E+01 -2.059510503E+01 -3.356155798E+00  3.117435903E+01  3.449868233E-07  0.00000E+00  9.000E+00
#rwgt            1           1   3.3228744357399538E-002           4      261436           0
</event>
<event>
      5   9999  3.19816E-02  1.77128E+02 -1.00000E+00  1.13602E-01
      21    -1     0     0   502   501  0.000000000E+00  0.000000000E+00  9.910278657E+02  9.910278657E+02  0.000000000E+00  0.00000E+00  9.000E+00
      21    -1     0     0   501   511  0.000000000E+00  0.000000000E+00 -1.403961860E+02  1.403961860E+02  0.000000000E+00  0.00000E+00  9.000E+00
      25     1     1     2     0     0 -2.107402186E+02  7.397595283E+01  5.181351865E+02  5.779039305E+02  1.250000000E+02  0.00000E+00  9.000E+00
      25     1     1     2     0     0  8.921306781E+01  5.488585931E+01  3.390906765E+02  3.762697383E+02  1.250000000E+02  0.00000E+00  9.000E+00
      21     1     1     2   502   511  1.215271508E+02 -1.288618121E+02 -6.594183307E+00  1.772503830E+02  1.343420466E-06  0.00000E+00  9.000E+00
#rwgt            1           1   2.4219646177948775E-002           4      261559           0
</event>
<event>
      5   9999  3.44014E-02  7.85342E+01 -1.00000E+00  1.28739E-01
      21    -1     0     0   502   501  0.000000000E+00  0.000000000E+00  1.645007415E+03  1.645007415E+03  0.000000000E+00  0.00000E+00  9.000E+00
      21    -1     0     0   512   502  0.000000000E+00  0.000000000E+00 -8.711946202E+02  8.711946202E+02  0.000000000E+00  0.00000E+00  9.000E+00
      25     1     1     2     0     0 -8.004848105E+02  6.331593987E+02  8.456307211E+02  1.331308782E+03  1.250000000E+02  0.00000E+00  9.000E+00
      25     1     1     2     0     0  8.477659701E+02 -6.958659297E+02 -6.042839871E+01  1.105537482E+03  1.250000000E+02  0.00000E+00  9.000E+00
      21     1     1     2   512   501 -4.728115957E+01  6.270653093E+01 -1.138952808E+01  7.935577119E+01  8.596304120E-07  0.00000E+00  9.000E+00
#rwgt            1           1   8.0960646875899489E-002           4      261621           0
</event>
<event>
      5   9999  3.19816E-02  1.10021E+02 -1.00000E+00  1.21991E-01
      21    -1     0     0   502   511  0.000000000E+00  0.000000000E+00  1.056431442E+02  1.056431442E+02  0.000000000E+00  0.00000E+00  9.000E+00
      21    -1     0     0   501   502  0.000000000E+00  0.000000000E+00 -8.731917519E+02  8.731917519E+02  0.000000000E+00  0.00000E+00  9.000E+00
      25     1     1     2     0     0 -1.790300179E+02  4.147984445E+01 -3.397699781E+02  4.060061118E+02  1.250000000E+02  0.00000E+00  9.000E+00
      25     1     1     2     0     0  7.462419474E+01 -7.617872605E+01 -4.325488938E+02  4.627045648E+02  1.250000000E+02  0.00000E+00  9.000E+00
      21     1     1     2   501   511  1.044058232E+02  3.469888160E+01  4.770264308E+00  1.101242195E+02  2.208591379E-06  0.00000E+00  9.000E+00
#rwgt            1           1   2.5934827996350340E-002           4      261699           0
</event>
<event>
      5   9999  3.19816E-02  2.81137E+01 -1.00000E+00  1.55025E-01
      21    -1     0     0   512   501  0.000000000E+00  0.000000000E+00  6.206544950E+02  6.206544950E+02  0.000000000E+00  0.00000E+00  9.000E+00
      21    -1     0     0   501   502  0.000000000E+00  0.000000000E+00 -5.469267268E+01  5.469267268E+01  0.000000000E+00  0.00000E+00  9.000E+00
      25     1     1     2     0     0 -6.293885262E+01  7.461707792E+01  1.723350782E+02  2.342079988E+02  1.250000000E+02  0.00000E+00  9.000E+00
      25     1     1     2     0     0  7.697795958E+01 -5.025971909E+01  2.459182156E+02  2.907789786E+02  1.250000000E+02  0.00000E+00  9.000E+00
      21     1     1     2   512   502 -1.403910695E+01 -2.435735883E+01  1.477085284E+02  1.503601903E+02  1.907348633E-06  0.00000E+00  9.000E+00
#rwgt            1           1   7.6653173413159581E-002           4      261772           0
</event>
<event>
      5   9999  3.19816E-02  3.55975E+01 -1.00000E+00  1.48052E-01
      21    -1     0     0   511   501  0.000000000E+00  0.000000000E+00  6.532475583E+02  6.532475583E+02  0.000000000E+00  0.00000E+00  9.000E+00
      21    -1     0     0   501   502  0.000000000E+00  0.000000000E+00 -6.023752772E+02  6.023752772E+02  0.000000000E+00  0.00000E+00  9.000E+00
      25     1     1     2     0     0 -1.633306439E+02 -2.400654792E+02 -2.261211487E+02  3.886696636E+02  1.250000000E+02  0.00000E+00  9.000E+00
      25     1     1     2     0     0  1.872357296E+02  2.136887569E+02 -2.125002619E+02  3.761668042E+02  1.250000000E+02  0.00000E+00  9.000E+00
      21     1     1     2   511   502 -2.390508576E+01  2.637672225E+01  4.894936916E+02  4.907863677E+02  7.629394531E-06  0.00000E+00  9.000E+00
#rwgt            1           1   2.9248107405525636E-002           4      261854           0
</event>
<event>
      5   9999  3.19816E-02  1.16864E+02 -1.00000E+00  1.20858E-01
      21    -1     0     0   502   501  0.000000000E+00  0.000000000E+00  2.924920914E+02  2.924920914E+02  0.000000000E+00  0.00000E+00  9.000E+00
      21    -1     0     0   512   502  0.000000000E+00  0.000000000E+00 -1.108567351E+03  1.108567351E+03  0.000000000E+00  0.00000E+00  9.000E+00
      25     1     1     2     0     0 -1.616096664E+02  1.383510306E+02  1.787042065E+02  3.046619198E+02  1.250000000E+02  0.00000E+00  9.000E+00
      25     1     1     2     0     0  2.782834722E+02 -1.450204428E+02 -8.119525629E+02  8.794114987E+02  1.250000000E+02  0.00000E+00  9.000E+00
      21     1     1     2   512   501 -1.166738058E+02  6.669412172E+00 -1.828269032E+02  2.169860239E+02  0.000000000E+00  0.00000E+00  9.000E+00
#rwgt            1           1   2.9836924973779554E-002           4      261985           0
</event>
<event>
      5   9999  3.19816E-02  3.57278E+02 -1.00000E+00  1.03184E-01
      -1    -1     0     0     0   501  0.000000000E+00  0.000000000E+00  7.646033757E+02  7.646033757E+02  0.000000000E+00  0.00000E+00  9.000E+00
      21    -1     0     0   501   502  0.000000000E+00  0.000000000E+00 -1.590519554E+03  1.590519554E+03  0.000000000E+00  0.00000E+00  9.000E+00
      25     1     1     2     0     0 -5.298446313E+02  4.028130255E+02 -4.262692850E+02  8.002025807E+02  1.250000000E+02  0.00000E+00  9.000E+00
      25     1     1     2     0     0  2.447259429E+02 -6.181156196E+02 -7.804153015E+02  1.032778170E+03  1.250000000E+02  0.00000E+00  9.000E+00
      -1     1     1     2     0   502  2.851186884E+02  2.153025940E+02  3.807684085E+02  5.221421783E+02  5.394796609E-06  0.00000E+00  9.000E+00
#rwgt            1           1   2.9353736160104345E-002           4      262084           0
</event>
<event>
      5   9999  3.19816E-02  2.43822E+01 -1.00000E+00  1.59569E-01
      21    -1     0     0   511   501  0.000000000E+00  0.000000000E+00  1.312995338E+03  1.312995338E+03  0.000000000E+00  0.00000E+00  9.000E+00
      21    -1     0     0   501   502  0.000000000E+00  0.000000000E+00 -4.899048230E+02  4.899048230E+02  0.000000000E+00  0.00000E+00  9.000E+00
      25     1     1     2     0     0 -4.359765755E+02 -5.252915861E+02  5.631328955E+02  8.937284166E+02  1.250000000E+02  0.00000E+00  9.000E+00
      25     1     1     2     0     0  4.437865228E+02  5.483891154E+02  7.247177241E+01  7.201071153E+02  1.250000000E+02  0.00000E+00  9.000E+00
      21     1     1     2   511   502 -7.809947341E+00 -2.309752932E+01  1.874858469E+02  1.890646290E+02  2.697398305E-06  0.00000E+00  9.000E+00
#rwgt            1           1   3.1777299468101095E-002           4      262137           0
</event>
<event>
      5   9999  3.19816E-02  1.24530E+01 -1.00000E+00  1.85352E-01
      21    -1     0     0   502   512  0.000000000E+00  0.000000000E+00  4.842484354E+02  4.842484354E+02  0.000000000E+00  0.00000E+00  9.000E+00
      21    -1     0     0   501   502  0.000000000E+00  0.000000000E+00 -1.029654687E+02  1.029654687E+02  0.000000000E+00  0.00000E+00  9.000E+00
      25     1     1     2     0     0 -1.531097449E+02  2.426414748E+01  8.741614199E+01  2.174808606E+02  1.250000000E+02  0.00000E+00  9.000E+00
      25     1     1     2     0     0  1.540368920E+02 -1.184566455E+01  2.269198489E+02  3.016376994E+02  1.250000000E+02  0.00000E+00  9.000E+00
      21     1     1     2   501   512 -9.271471504E-01 -1.241848293E+01  6.694697586E+01  6.809534416E+01  1.348699152E-06  0.00000E+00  9.000E+00
#rwgt            1           1   2.7397595602148085E-002           4      262324           0
</event>
<event>
      5   9999  3.19816E-02  6.10330E+01 -1.00000E+00  1.34308E-01
      21    -1     0     0   511   501  0.000000000E+00  0.000000000E+00  5.314625545E+02  5.314625545E+02  0.000000000E+00  0.00000E+00  9.000E+00
      21    -1     0     0   501   502  0.000000000E+00  0.000000000E+00 -1.116272657E+03  1.116272657E+03  0.000000000E+00  0.00000E+00  9.000E+00
      25     1     1     2     0     0 -5.904850818E+00  6.694837355E+02 -1.431852838E+01  6.812293003E+02  1.250000000E+02  0.00000E+00  9.000E+00
      25     1     1     2     0     0 -5.399182121E+01 -6.577613695E+02 -5.982137844E+02  8.994719939E+02  1.250000000E+02  0.00000E+00  9.000E+00
      21     1     1     2   511   502  5.989667203E+01 -1.172236597E+01  2.772220993E+01  6.703391759E+01  1.215700987E-06  0.00000E+00  9.000E+00
#rwgt            1           1   2.0921897190382840E-002           4      262457           0
</event>
<event>
      5   9999  3.19816E-02  4.91540E+01 -1.00000E+00  1.39500E-01
      21    -1     0     0   502   501  0.000000000E+00  0.000000000E+00  2.185164978E+02  2.185164978E+02  0.000000000E+00  0.00000E+00  9.000E+00
       1    -1     0     0   501     0  0.000000000E+00  0.000000000E+00 -2.635456837E+03  2.635456837E+03  0.000000000E+00  0.00000E+00  9.000E+00
      25     1     1     2     0     0 -5.883837238E+02 -1.047864447E+02 -9.049544083E+02  1.091669861E+03  1.250000000E+02  0.00000E+00  9.000E+00
      25     1     1     2     0     0  5.790815984E+02  5.652063768E+01 -5.866112152E+02  8.356241965E+02  1.250000000E+02  0.00000E+00  9.000E+00
       1     1     1     2   502     0  9.302125373E+00  4.826580697E+01 -9.253747154E+02  9.266792765E+02  0.000000000E+00  0.00000E+00  9.000E+00
#rwgt            1           1   2.9033487013472057E-002           4      262575           0
</event>
<event>
      5   9999  3.19816E-02  2.47240E+01 -1.00000E+00  1.59113E-01
      21    -1     0     0   502   501  0.000000000E+00  0.000000000E+00  2.557179222E+02  2.557179222E+02  0.000000000E+00  0.00000E+00  9.000E+00
      21    -1     0     0   501   511  0.000000000E+00  0.000000000E+00 -1.997350160E+02  1.997350160E+02  0.000000000E+00  0.00000E+00  9.000E+00
      25     1     1     2     0     0  3.331946535E+01  1.257540027E+02  1.313980018E+02  2.231920493E+02  1.250000000E+02  0.00000E+00  9.000E+00
      25     1     1     2     0     0 -2.235793807E+01 -1.479152556E+02 -6.635276060E+01  2.059283591E+02  1.250000000E+02  0.00000E+00  9.000E+00
      21     1     1     2   502   511 -1.096152728E+01  2.216125294E+01 -9.062335011E+00  2.633252985E+01  3.953724850E-07  0.00000E+00  9.000E+00
#rwgt            1           1   2.6789930139032525E-002           4      262685           0
</event>
<event>
      5   9999  3.19816E-02  4.16907E+01 -1.00000E+00  1.43734E-01
       2    -1     0     0   502     0  0.000000000E+00  0.000000000E+00  2.361202547E+03  2.361202547E+03  0.000000000E+00  0.00000E+00  9.000E+00
      21    -1     0     0   501   502  0.000000000E+00  0.000000000E+00 -2.636206498E+02  2.636206498E+02  0.000000000E+00  0.00000E+00  9.000E+00
      25     1     1     2     0     0  4.858612782E+02 -4.017199860E+02  6.146199140E+02  8.892821641E+02  1.250000000E+02  0.00000E+00  9.000E+00
      25     1     1     2     0     0 -4.762927723E+02  3.611422001E+02  6.153400724E+02  8.669180459E+02  1.250000000E+02  0.00000E+00  9.000E+00
       2     1     1     2   501     0 -9.568505942E+00  4.057778584E+01  8.676219109E+02  8.686229869E+02  1.525878906E-05  0.00000E+00  9.000E+00
#rwgt            1           1   2.7857066060884922E-002           4      262775           0
</event>
<event>
      5   9999  3.19816E-02  4.29466E+02 -1.00000E+00  1.00765E-01
      21    -1     0     0   511   501  0.000000000E+00  0.000000000E+00  1.349203861E+02  1.349203861E+02  0.000000000E+00  0.00000E+00  9.000E+00
      21    -1     0     0   501   502  0.000000000E+00  0.000000000E+00 -2.275156624E+03  2.275156624E+03  0.000000000E+00  0.00000E+00  9.000E+00
      25     1     1     2     0     0  3.691845999E+02  2.674821962E+02 -1.213309374E+03  1.302147700E+03  1.250000000E+02  0.00000E+00  9.000E+00
      25     1     1     2     0     0 -8.058782681E+01  5.056303607E+01 -1.353468912E+02  2.073518734E+02  1.250000000E+02  0.00000E+00  9.000E+00
      21     1     1     2   511   502 -2.885967731E+02 -3.180452323E+02 -7.915799724E+02  9.005774369E+02  1.078959322E-05  0.00000E+00  9.000E+00
#rwgt            1           1   3.5367108275606234E-002           4      262934           0
</event>
<event>
      5   9999  3.19816E-02  4.48492E+02 -1.00000E+00  1.00212E-01
      21    -1     0     0   512   501  0.000000000E+00  0.000000000E+00  1.123920914E+03  1.123920914E+03  0.000000000E+00  0.00000E+00  9.000E+00
      21    -1     0     0   501   502  0.000000000E+00  0.000000000E+00 -1.644895221E+03  1.644895221E+03  0.000000000E+00  0.00000E+00  9.000E+00
      25     1     1     2     0     0  3.876333912E+02  6.645746076E+02 -4.710587539E+02  9.107361883E+02  1.250000000E+02  0.00000E+00  9.000E+00
      25     1     1     2     0     0 -7.693546384E+02 -4.291300797E+02 -6.550343516E+02  1.104877453E+03  1.250000000E+02  0.00000E+00  9.000E+00
      21     1     1     2   512   502  3.817212472E+02 -2.354445278E+02  6.051187982E+02  7.532024934E+02  7.629394531E-06  0.00000E+00  9.000E+00
#rwgt            2          11   2.5705345469543271E-003           4      263204           0
</event>
<event>
      5   9999  3.19816E-02  4.62027E+01 -1.00000E+00  1.41061E-01
      21    -1     0     0   511   501  0.000000000E+00  0.000000000E+00  5.274679621E+02  5.274679621E+02  0.000000000E+00  0.00000E+00  9.000E+00
      21    -1     0     0   501   502  0.000000000E+00  0.000000000E+00 -1.151805046E+03  1.151805046E+03  0.000000000E+00  0.00000E+00  9.000E+00
      25     1     1     2     0     0  2.786839865E+02  4.670402272E+02 -8.354950846E+02  1.004723034E+03  1.250000000E+02  0.00000E+00  9.000E+00
      25     1     1     2     0     0 -3.222595970E+02 -4.823977852E+02  2.053931479E+02  6.279890256E+02  1.250000000E+02  0.00000E+00  9.000E+00
      21     1     1     2   511   502  4.357561052E+01  1.535755801E+01  5.764852832E+00  4.656094875E+01  9.902267293E-07  0.00000E+00  9.000E+00
#rwgt            1           1   3.8099833505068695E-002           4      263254           0
</event>
<event>
      5   9999  3.19816E-02  2.22028E+01 -1.00000E+00  1.62710E-01
      21    -1     0     0   502   512  0.000000000E+00  0.000000000E+00  2.066481880E+02  2.066481880E+02  0.000000000E+00  0.00000E+00  9.000E+00
      21    -1     0     0   501   502  0.000000000E+00  0.000000000E+00 -1.943109822E+03  1.943109822E+03  0.000000000E+00  0.00000E+00  9.000E+00
      25     1     1     2     0     0 -7.373403146E+01  5.017395816E+02 -1.404671567E+03  1.498634887E+03  1.250000000E+02  0.00000E+00  9.000E+00
      25     1     1     2     0     0  5.366992159E+01 -4.922318544E+02 -3.526867102E+02  6.206332045E+02  1.250000000E+02  0.00000E+00  9.000E+00
      21     1     1     2   501   512  2.006410987E+01 -9.507727168E+00  2.089664337E+01  3.048991776E+01  1.261592536E-06  0.00000E+00  9.000E+00
#rwgt            1           1   2.6889454466545372E-002           4      263413           0
</event>
<event>
      5   9999  3.19816E-02  3.13873E+01 -1.00000E+00  1.51689E-01
      21    -1     0     0   502   501  0.000000000E+00  0.000000000E+00  4.233654323E+02  4.233654323E+02  0.000000000E+00  0.00000E+00  9.000E+00
      21    -1     0     0   501   511  0.000000000E+00  0.000000000E+00 -4.326813723E+02  4.326813723E+02  0.000000000E+00  0.00000E+00  9.000E+00
      25     1     1     2     0     0 -1.538250707E+02 -1.816028535E+02 -1.517633794E+02  3.087051540E+02  1.250000000E+02  0.00000E+00  9.000E+00
      25     1     1     2     0     0  1.826151185E+02  1.691010812E+02  2.867043029E+02  3.997096627E+02  1.250000000E+02  0.00000E+00  9.000E+00
      21     1     1     2   502   511 -2.879004772E+01  1.250177230E+01 -1.442568636E+02  1.476319879E+02  0.000000000E+00  0.00000E+00  9.000E+00
#rwgt            1           1   2.8725300661077625E-002           4      263665           0
</event>
<event>
      5   9999  3.19816E-02  2.38964E+02 -1.00000E+00  1.08904E-01
      21    -1     0     0   502   501  0.000000000E+00  0.000000000E+00  2.584468029E+02  2.584468029E+02  0.000000000E+00  0.00000E+00  9.000E+00
      21    -1     0     0   501   512  0.000000000E+00  0.000000000E+00 -2.059420277E+03  2.059420277E+03  0.000000000E+00  0.00000E+00  9.000E+00
      25     1     1     2     0     0  2.273078396E+02 -3.585025280E+01 -8.076618453E+02  8.490563885E+02  1.250000000E+02  0.00000E+00  9.000E+00
      25     1     1     2     0     0 -3.310411233E+02  2.511255127E+02  1.340987528E+01  4.341164282E+02  1.250000000E+02  0.00000E+00  9.000E+00
      21     1     1     2   502   512  1.037332837E+02 -2.152752599E+02 -1.006721504E+03  1.034694264E+03  1.078959322E-05  0.00000E+00  9.000E+00
#rwgt            2          11   1.3647733446132946E-003           4      263865           0
</event>
<event>
      5   9999  3.19816E-02  4.75214E+00 -1.00000E+00  2.47000E-01
      21    -1     0     0   502   501  0.000000000E+00  0.000000000E+00  7.248837968E+01  7.248837968E+01  0.000000000E+00  0.00000E+00  9.000E+00
      21    -1     0     0   511   502  0.000000000E+00  0.000000000E+00 -1.165306405E+03  1.165306405E+03  0.000000000E+00  0.00000E+00  9.000E+00
      25     1     1     2     0     0  1.290770404E+02 -2.211586454E+02 -4.721329999E+02  5.514586098E+02  1.250000000E+02  0.00000E+00  9.000E+00
      25     1     1     2     0     0 -1.245688634E+02  2.196555999E+02 -5.741767224E+02  6.395857197E+02  1.250000000E+02  0.00000E+00  9.000E+00
      21     1     1     2   511   501 -4.508176946E+00  1.503045510E+00 -4.650830348E+01  4.675045559E+01  6.743495762E-07  0.00000E+00  9.000E+00
#rwgt            1           1   3.0897099833799926E-002           4      263885           0
</event>
<event>
      5   9999  3.19816E-02  5.57146E+01 -1.00000E+00  1.36446E-01
      21    -1     0     0   512   501  0.000000000E+00  0.000000000E+00  1.565156621E+03  1.565156621E+03  0.000000000E+00  0.00000E+00  9.000E+00
      21    -1     0     0   501   502  0.000000000E+00  0.000000000E+00 -7.085745296E+02  7.085745296E+02  0.000000000E+00  0.00000E+00  9.000E+00
      25     1     1     2     0     0  9.979042475E+02 -1.224120964E+02  4.054666970E+02  1.091249674E+03  1.250000000E+02  0.00000E+00  9.000E+00
      25     1     1     2     0     0 -9.718465152E+02  7.316665808E+01  3.092960065E+02  1.030110688E+03  1.250000000E+02  0.00000E+00  9.000E+00
      21     1     1     2   512   502 -2.605773223E+01  4.924543832E+01  1.418193875E+02  1.523707888E+02  2.697398305E-06  0.00000E+00  9.000E+00
#rwgt            1           1   3.5463883518517474E-002           4      264173           0
</event>
<event>
      5   9999  3.19816E-02  1.38900E+02 -1.00000E+00  1.17732E-01
       2    -1     0     0   502     0  0.000000000E+00  0.000000000E+00  3.293539352E+03  3.293539352E+03  0.000000000E+00  0.00000E+00  9.000E+00
      21    -1     0     0   501   502  0.000000000E+00  0.000000000E+00 -1.614481011E+02  1.614481011E+02  0.000000000E+00  0.00000E+00  9.000E+00
      25     1     1     2     0     0  4.251902422E+02 -3.194797036E+02  1.024725393E+03  1.161267047E+03  1.250000000E+02  0.00000E+00  9.000E+00
      25     1     1     2     0     0 -3.172827174E+02  2.320199304E+02  3.801495408E+02  5.609280206E+02  1.250000000E+02  0.00000E+00  9.000E+00
       2     1     1     2   501     0 -1.079075248E+02  8.745977322E+01  1.727216317E+03  1.732792386E+03  2.157918644E-05  0.00000E+00  9.000E+00
#rwgt            2          18   1.0974191050789233E-003           4      264596           0
</event>
<event>
      5   9999  3.19816E-02  1.14513E+01 -1.00000E+00  1.89191E-01
      21    -1     0     0   502   501  0.000000000E+00  0.000000000E+00  1.787662318E+03  1.787662318E+03  0.000000000E+00  0.00000E+00  9.000E+00
      21    -1     0     0   511   502  0.000000000E+00  0.000000000E+00 -5.016481861E+01  5.016481861E+01  0.000000000E+00  0.00000E+00  9.000E+00
      25     1     1     2     0     0 -1.567957412E+02 -1.959189099E+02  1.179924691E+03  1.212772196E+03  1.250000000E+02  0.00000E+00  9.000E+00
      25     1     1     2     0     0  1.466415091E+02  1.906251196E+02  5.353448087E+02  6.000506083E+02  1.250000000E+02  0.00000E+00  9.000E+00
      21     1     1     2   511   501  1.015423209E+01  5.293790288E+00  2.222799991E+01  2.500433213E+01  3.371747881E-07  0.00000E+00  9.000E+00
#rwgt            1           1   3.2355822050970318E-002           4      264660           0
</event>
<event>
      5   9999  3.19816E-02  1.31941E+01 -1.00000E+00  1.82798E-01
      21    -1     0     0   502   501  0.000000000E+00  0.000000000E+00  1.725575814E+03  1.725575814E+03  0.000000000E+00  0.00000E+00  9.000E+00
      21    -1     0     0   512   502  0.000000000E+00  0.000000000E+00 -8.349568290E+01  8.349568290E+01  0.000000000E+00  0.00000E+00  9.000E+00
      25     1     1     2     0     0  2.247862525E+02  8.411605077E+01  1.002447694E+03  1.038330751E+03  1.250000000E+02  0.00000E+00  9.000E+00
      25     1     1     2     0     0 -2.116216943E+02 -8.323386608E+01  6.802342471E+02  7.280489330E+02  1.250000000E+02  0.00000E+00  9.000E+00
      21     1     1     2   512   501 -1.316455814E+01 -8.821846892E-01 -4.060181041E+01  4.269181244E+01  1.066240300E-06  0.00000E+00  9.000E+00
#rwgt            1           1   3.8722846228166345E-002           4      264856           0
</event>
<event>
      5   9999  3.19816E-02  7.31611E+01 -1.00000E+00  1.30256E-01
      21    -1     0     0   502   511  0.000000000E+00  0.000000000E+00  3.461142767E+02  3.461142767E+02  0.000000000E+00  0.00000E+00  9.000E+00
      21    -1     0     0   501   502  0.000000000E+00  0.000000000E+00 -1.052320893E+03  1.052320893E+03  0.000000000E+00  0.00000E+00  9.000E+00
      25     1     1     2     0     0 -1.459365551E+02  3.222663153E+02 -7.859491639E+02  8.709156930E+02  1.250000000E+02  0.00000E+00  9.000E+00
      25     1     1     2     0     0  1.242651968E+02 -3.921441073E+02  1.167869525E+02  4.455143458E+02  1.250000000E+02  0.00000E+00  9.000E+00
      21     1     1     2   501   511  2.167135836E+01  6.987779195E+01 -3.704440521E+01  8.200513117E+01  8.259061849E-07  0.00000E+00  9.000E+00
#rwgt            1           1   2.8395254910003907E-002           4      265021           0
</event>
<event>
      5   9999  3.19816E-02  7.69767E+01 -1.00000E+00  1.29165E-01
      21    -1     0     0   502   501  0.000000000E+00  0.000000000E+00  7.526520978E+02  7.526520978E+02  0.000000000E+00  0.00000E+00  9.000E+00
      21    -1     0     0   501   512  0.000000000E+00  0.000000000E+00 -2.786245507E+02  2.786245507E+02  0.000000000E+00  0.00000E+00  9.000E+00
      25     1     1     2     0     0 -3.795571669E+01 -3.768030557E+02  1.398663266E+02  4.226213063E+02  1.250000000E+02  0.00000E+00  9.000E+00
      25     1     1     2     0     0 -3.865091992E+01  3.692643052E+02  3.552463969E+02  5.288430988E+02  1.250000000E+02  0.00000E+00  9.000E+00
      21     1     1     2   502   512  7.660663660E+01  7.538750588E+00 -2.108517635E+01  7.981224338E+01  4.768371582E-07  0.00000E+00  9.000E+00
#rwgt            1           1   2.5040265903613437E-002           4      265091           0
</event>
<event>
      5   9999  3.19816E-02  1.87191E+01 -1.00000E+00  1.68776E-01
      21    -1     0     0   502   501  0.000000000E+00  0.000000000E+00  3.644969549E+02  3.644969549E+02  0.000000000E+00  0.00000E+00  9.000E+00
      -5    -1     0     0     0   502  0.000000000E+00  0.000000000E+00 -1.886308330E+03  1.886308330E+03  0.000000000E+00  0.00000E+00  9.000E+00
      25     1     1     2     0     0 -1.907760093E+02 -9.247552712E+01  2.723832407E+02  3.671033079E+02  1.250000000E+02  0.00000E+00  9.000E+00
      25     1     1     2     0     0  1.930905736E+02  1.110509723E+02 -3.202368508E+02  4.096253516E+02  1.250000000E+02  0.00000E+00  9.000E+00
      -5     1     1     2     0   501 -2.314564243E+00 -1.857544520E+01 -1.473957765E+03  1.474076625E+03  2.157918644E-05  0.00000E+00  9.000E+00
#rwgt            1           1   2.7226688022571888E-002           4      265192           0
</event>
<event>
      5   9999  3.19816E-02  7.06703E+01 -1.00000E+00  1.31011E-01
      21    -1     0     0   502   501  0.000000000E+00  0.000000000E+00  4.877178452E+02  4.877178452E+02  0.000000000E+00  0.00000E+00  9.000E+00
      21    -1     0     0   501   511  0.000000000E+00  0.000000000E+00 -4.327495624E+02  4.327495624E+02  0.000000000E+00  0.00000E+00  9.000E+00
      25     1     1     2     0     0 -1.656690148E+02  7.956603629E+01 -2.278284221E+02  3.182888099E+02  1.250000000E+02  0.00000E+00  9.000E+00
      25     1     1     2     0     0  2.141646027E+02 -1.309710349E+02  3.859880607E+02  4.771076105E+02  1.250000000E+02  0.00000E+00  9.000E+00
      21     1     1     2   502   511 -4.849558783E+01  5.140499861E+01 -1.031913558E+02  1.250709872E+02  0.000000000E+00  0.00000E+00  9.000E+00
#rwgt            1           1   2.8513517283984959E-002           4      265384           0
</event>
<event>
      5   9999  3.19816E-02  7.81557E+01 -1.00000E+00  1.28842E-01
      21    -1     0     0   502   501  0.000000000E+00  0.000000000E+00  1.229024867E+02  1.229024867E+02  0.000000000E+00  0.00000E+00  9.000E+00
       2    -1     0     0   501     0  0.000000000E+00  0.000000000E+00 -3.210528262E+03  3.210528262E+03  0.000000000E+00  0.00000E+00  9.000E+00
      25     1     1     2     0     0 -3.680116407E+02 -1.942087635E+02 -1.145795215E+03  1.225406580E+03  1.250000000E+02  0.00000E+00  9.000E+00
      25     1     1     2     0     0  4.080079512E+02  2.613549749E+02 -6.826049632E+02  8.463754764E+02  1.250000000E+02  0.00000E+00  9.000E+00
       2     1     1     2   502     0 -3.999631050E+01 -6.714621135E+01 -1.259225597E+03  1.261648692E+03  1.525878906E-05  0.00000E+00  9.000E+00
#rwgt            1           1   2.6180444493994211E-002           4      265473           0
</event>
<event>
      5   9999  3.19816E-02  7.59094E+01 -1.00000E+00  1.29463E-01
      21    -1     0     0   502   501  0.000000000E+00  0.000000000E+00  2.378324640E+03  2.378324640E+03  0.000000000E+00  0.00000E+00  9.000E+00
       2    -1     0     0   501     0  0.000000000E+00  0.000000000E+00 -2.146972560E+03  2.146972560E+03  0.000000000E+00  0.00000E+00  9.000E+00
      25     1     1     2     0     0  1.462501223E+03  6.300541794E+01  1.641109025E+03  2.202667324E+03  1.250000000E+02  0.00000E+00  9.000E+00
      25     1     1     2     0     0 -1.487662768E+03 -1.346234030E+02 -7.827246973E+02  1.691019492E+03  1.250000000E+02  0.00000E+00  9.000E+00
       2     1     1     2   502     0  2.516154529E+01  7.161798506E+01 -6.270322466E+02  6.316103842E+02  7.629394531E-06  0.00000E+00  9.000E+00
#rwgt            1           1   7.1373646693628804E-003           4      265578           0
</event>
<event>
      5   9999  3.19816E-02  1.33004E+01 -1.00000E+00  1.82449E-01
      21    -1     0     0   502   511  0.000000000E+00  0.000000000E+00  3.635854116E+02  3.635854116E+02  0.000000000E+00  0.00000E+00  9.000E+00
      21    -1     0     0   501   502  0.000000000E+00  0.000000000E+00 -9.197345312E+01  9.197345312E+01  0.000000000E+00  0.00000E+00  9.000E+00
      25     1     1     2     0     0  8.431677314E+01 -4.212373995E+01  1.477500597E+02  2.152645067E+02  1.250000000E+02  0.00000E+00  9.000E+00
      25     1     1     2     0     0 -9.089791736E+01  5.368186506E+01  5.875502703E+01  1.738428233E+02  1.250000000E+02  0.00000E+00  9.000E+00
      21     1     1     2   501   511  6.581144218E+00 -1.155812511E+01  6.510687183E+01  6.645153478E+01  1.348699152E-06  0.00000E+00  9.000E+00
#rwgt            1           1   2.4633847680696676E-002           4      265749           0
</event>
<event>
      5   9999  3.19816E-02  3.05154E+01 -1.00000E+00  1.52528E-01
      21    -1     0     0   502   512  0.000000000E+00  0.000000000E+00  1.315035233E+02  1.315035233E+02  0.000000000E+00  0.00000E+00  9.000E+00
      21    -1     0     0   501   502  0.000000000E+00  0.000000000E+00 -4.652844889E+02  4.652844889E+02  0.000000000E+00  0.00000E+00  9.000E+00
      25     1     1     2     0     0  1.770590347E+02 -2.385073007E+01 -1.740446880E+02  2.789898072E+02  1.250000000E+02  0.00000E+00  9.000E+00
      25     1     1     2     0     0 -1.961820700E+02  4.763100624E+01 -1.616084945E+02  2.872253869E+02  1.250000000E+02  0.00000E+00  9.000E+00
      21     1     1     2   501   512  1.912303534E+01 -2.378027617E+01  1.872216955E+00  3.057281819E+01  6.740202235E-07  0.00000E+00  9.000E+00
#rwgt            1           1   2.6875100450858464E-002           4      265913           0
</event>
<event>
      5   9999  3.19816E-02  4.85930E+01 -1.00000E+00  1.39786E-01
      21    -1     0     0   511   501  0.000000000E+00  0.000000000E+00  2.459903427E+02  2.459903427E+02  0.000000000E+00  0.00000E+00  9.000E+00
      21    -1     0     0   501   502  0.000000000E+00  0.000000000E+00 -5.043029365E+02  5.043029365E+02  0.000000000E+00  0.00000E+00  9.000E+00
      25     1     1     2     0     0 -2.094310756E+02  1.185555142E+02  3.712811729E+01  2.737156965E+02  1.250000000E+02  0.00000E+00  9.000E+00
      25     1     1     2     0     0  1.843531517E+02 -1.601773949E+02 -3.205140711E+02  4.218970871E+02  1.250000000E+02  0.00000E+00  9.000E+00
      21     1     1     2   511   502  2.507792394E+01  4.162188061E+01  2.507335999E+01  5.468049557E+01  4.768371582E-07  0.00000E+00  9.000E+00
#rwgt            1           1   2.4411060408709977E-002           4      266015           0
</event>
<event>
      5   9999  3.19816E-02  1.26480E+02 -1.00000E+00  1.19407E-01
       1    -1     0     0   502     0  0.000000000E+00  0.000000000E+00  1.534995070E+03  1.534995070E+03  0.000000000E+00  0.00000E+00  9.000E+00
      21    -1     0     0   501   502  0.000000000E+00  0.000000000E+00 -1.438120998E+02  1.438120998E+02  0.000000000E+00  0.00000E+00  9.000E+00
      25     1     1     2     0     0  1.353030393E+02 -1.347585513E+02  1.561215570E+02  2.765243572E+02  1.250000000E+02  0.00000E+00  9.000E+00
      25     1     1     2     0     0 -2.444022440E+02  7.077001896E+01  1.717116181E+02  3.314373731E+02  1.250000000E+02  0.00000E+00  9.000E+00
       1     1     1     2   501     0  1.090992047E+02  6.398853233E+01  1.063349795E+03  1.070845440E+03  0.000000000E+00  0.00000E+00  9.000E+00
#rwgt            1           1   2.6860838650901060E-002           4      266134           0
</event>
<event>
      5   9999  3.19816E-02  4.82416E+01 -1.00000E+00  1.39968E-01
      21    -1     0     0   502   501  0.000000000E+00  0.000000000E+00  2.164494563E+02  2.164494563E+02  0.000000000E+00  0.00000E+00  9.000E+00
      21    -1     0     0   511   502  0.000000000E+00  0.000000000E+00 -3.273001787E+02  3.273001787E+02  0.000000000E+00  0.00000E+00  9.000E+00
      25     1     1     2     0     0  1.320478380E+02 -1.243893054E+02 -4.604177649E+01  2.250648262E+02  1.250000000E+02  0.00000E+00  9.000E+00
      25     1     1     2     0     0 -1.542965814E+02  1.671940590E+02 -3.490077050E+01  2.619243253E+02  1.250000000E+02  0.00000E+00  9.000E+00
      21     1     1     2   511   501  2.224874343E+01 -4.280475367E+01 -2.990817549E+01  5.676048345E+01  9.536743164E-07  0.00000E+00  9.000E+00
#rwgt            1           1   2.6738136624118395E-002           4      266181           0
</event>
<event>
      5   9999  3.19816E-02  2.28328E+02 -1.00000E+00  1.09593E-01
      21    -1     0     0   512   501  0.000000000E+00  0.000000000E+00  1.918989722E+03  1.918989722E+03  0.000000000E+00  0.00000E+00  9.000E+00
      21    -1     0     0   501   502  0.000000000E+00  0.000000000E+00 -1.132641077E+03  1.132641077E+03  0.000000000E+00  0.00000E+00  9.000E+00
      25     1     1     2     0     0 -1.156939969E+03 -2.595309730E+02  8.036825781E+02  1.437844603E+03  1.250000000E+02  0.00000E+00  9.000E+00
      25     1     1     2     0     0  1.290024170E+03  7.399874804E+01 -2.099749833E+02  1.315048542E+03  1.250000000E+02  0.00000E+00  9.000E+00
      21     1     1     2   512   502 -1.330842013E+02  1.855322249E+02  1.926410503E+02  2.987376531E+02  3.814697266E-06  0.00000E+00  9.000E+00
#rwgt            1           1   7.2304076923406735E-002           4      266289           0
</event>
<event>
      5   9999  3.19816E-02  1.81384E+02 -1.00000E+00  1.13215E-01
      21    -1     0     0   502   501  0.000000000E+00  0.000000000E+00  1.188886181E+03  1.188886181E+03  0.000000000E+00  0.00000E+00  9.000E+00
       2    -1     0     0   501     0  0.000000000E+00  0.000000000E+00 -3.259731486E+03  3.259731486E+03  0.000000000E+00  0.00000E+00  9.000E+00
      25     1     1     2     0     0 -6.419647994E+02  2.606463501E+02  6.941773964E-01  7.040460250E+02  1.250000000E+02  0.00000E+00  9.000E+00
      25     1     1     2     0     0  7.848498151E+02 -1.489146823E+02  6.373815256E+02  1.029584879E+03  1.250000000E+02  0.00000E+00  9.000E+00
       2     1     1     2   502     0 -1.428850158E+02 -1.117316679E+02 -2.708921008E+03  2.714986763E+03  0.000000000E+00  0.00000E+00  9.000E+00
#rwgt            1           1   2.1599654864846541E-002           4      266370           0
</event>
<event>
      5   9999  3.19816E-02  2.32855E+01 -1.00000E+00  1.61097E-01
      21    -1     0     0   511   501  0.000000000E+00  0.000000000E+00  1.172839289E+02  1.172839289E+02  0.000000000E+00  0.00000E+00  9.000E+00
      21    -1     0     0   501   502  0.000000000E+00  0.000000000E+00 -5.863167742E+02  5.863167742E+02  0.000000000E+00  0.00000E+00  9.000E+00
      25     1     1     2     0     0 -1.398922479E+02 -1.351350818E+02 -3.452879520E+02  4.155479529E+02  1.250000000E+02  0.00000E+00  9.000E+00
      25     1     1     2     0     0  1.593992158E+02  1.224191719E+02 -1.098221236E+02  2.609223303E+02  1.250000000E+02  0.00000E+00  9.000E+00
      21     1     1     2   511   502 -1.950696785E+01  1.271590997E+01 -1.392276981E+01  2.713041984E+01  5.057621821E-07  0.00000E+00  9.000E+00
#rwgt            1           1   2.9733430598100449E-002           4      266449           0
</event>
<event>
      5   9999  3.19816E-02  7.69000E+01 -1.00000E+00  1.29186E-01
       2    -1     0     0   502     0  0.000000000E+00  0.000000000E+00  2.832502316E+03  2.832502316E+03  0.000000000E+00  0.00000E+00  9.000E+00
      21    -1     0     0   501   502  0.000000000E+00  0.000000000E+00 -1.277269504E+02  1.277269504E+02  0.000000000E+00  0.00000E+00  9.000E+00
      25     1     1     2     0     0 -1.333804956E+01  2.047065758E+02  2.695086691E+02  3.610299274E+02  1.250000000E+02  0.00000E+00  9.000E+00
      25     1     1     2     0     0  1.839454220E+01 -2.814401550E+02  2.113485499E+02  3.739520418E+02  1.250000000E+02  0.00000E+00  9.000E+00
       2     1     1     2   501     0 -5.056492634E+00  7.673357922E+01  2.223918146E+03  2.225247297E+03  4.315837288E-05  0.00000E+00  9.000E+00
#rwgt            1           1   2.8711313997489201E-002           4      266609           0
</event>
<event>
      5   9999  3.19816E-02  6.67218E+01 -1.00000E+00  1.32284E-01
      21    -1     0     0   502   511  0.000000000E+00  0.000000000E+00  3.452302613E+02  3.452302613E+02  0.000000000E+00  0.00000E+00  9.000E+00
      21    -1     0     0   501   502  0.000000000E+00  0.000000000E+00 -2.472445804E+02  2.472445804E+02  0.000000000E+00  0.00000E+00  9.000E+00
      25     1     1     2     0     0  1.503689529E+00 -1.042621182E+02 -5.235252244E+01  1.709930904E+02  1.250000000E+02  0.00000E+00  9.000E+00
      25     1     1     2     0     0  6.286200524E+01  1.218363332E+02 -6.457853069E+01  1.964462024E+02  1.250000000E+02  0.00000E+00  9.000E+00
      21     1     1     2   501   511 -6.436569477E+01 -1.757421504E+01  2.149167341E+02  2.250355489E+02  2.697398305E-06  0.00000E+00  9.000E+00
#rwgt            1           1   3.5735474783379906E-002           4      266709           0
</event>
<event>
      5   9999  3.19816E-02  6.13546E+01 -1.00000E+00  1.34187E-01
      21    -1     0     0   502   501  0.000000000E+00  0.000000000E+00  1.551984295E+03  1.551984295E+03  0.000000000E+00  0.00000E+00  9.000E+00
      21    -1     0     0   512   502  0.000000000E+00  0.000000000E+00 -5.718345930E+02  5.718345930E+02  0.000000000E+00  0.00000E+00  9.000E+00
      25     1     1     2     0     0  5.735946409E+02 -6.900320053E+02  7.323197518E+02  1.164934418E+03  1.250000000E+02  0.00000E+00  9.000E+00
      25     1     1     2     0     0 -5.305547322E+02  6.463061427E+02  2.786706318E+02  8.902147353E+02  1.250000000E+02  0.00000E+00  9.000E+00
      21     1     1     2   512   501 -4.303990864E+01  4.372586262E+01 -3.084068143E+01  6.866973444E+01  3.371747881E-07  0.00000E+00  9.000E+00
#rwgt            1           1   3.6266310450881821E-002           4      266782           0
</event>
<event>
      5   9999  3.19816E-02  7.14122E+02 -1.00000E+00  9.46446E-02
       2    -1     0     0   502     0  0.000000000E+00  0.000000000E+00  1.365026098E+03  1.365026098E+03  0.000000000E+00  0.00000E+00  9.000E+00
      21    -1     0     0   501   502  0.000000000E+00  0.000000000E+00 -1.527160599E+03  1.527160599E+03  0.000000000E+00  0.00000E+00  9.000E+00
      25     1     1     2     0     0 -4.985465876E+02 -5.254358799E+02 -5.543142662E+02  9.206089667E+02  1.250000000E+02  0.00000E+00  9.000E+00
      25     1     1     2     0     0 -1.610709139E+02  2.518035649E+02 -6.394775164E+02  7.168719332E+02  1.250000000E+02  0.00000E+00  9.000E+00
       2     1     1     2   501     0  6.596175015E+02  2.736323150E+02  1.031657281E+03  1.254705798E+03  0.000000000E+00  0.00000E+00  9.000E+00
#rwgt            2          18   2.1278436761886809E-003           4      267125           0
</event>
<event>
      5   9999  3.19816E-02  4.79043E+01 -1.00000E+00  1.40145E-01
      21    -1     0     0   502   511  0.000000000E+00  0.000000000E+00  2.354647769E+03  2.354647769E+03  0.000000000E+00  0.00000E+00  9.000E+00
      21    -1     0     0   501   502  0.000000000E+00  0.000000000E+00 -3.367160265E+02  3.367160265E+02  0.000000000E+00  0.00000E+00  9.000E+00
      25     1     1     2     0     0  4.375306266E+02  4.614133129E+02  1.831174099E+03  1.942462065E+03  1.250000000E+02  0.00000E+00  9.000E+00
      25     1     1     2     0     0 -4.404491172E+02 -4.135980228E+02  6.785983538E+01  6.207162851E+02  1.250000000E+02  0.00000E+00  9.000E+00
      21     1     1     2   501   511  2.918490540E+00 -4.781529009E+01  1.188978082E+02  1.281854451E+02  1.907348633E-06  0.00000E+00  9.000E+00
#rwgt            1           1   2.9668134911924493E-002           4      267159           0
</event>
<event>
      5   9999  3.19816E-02  6.53420E+01 -1.00000E+00  1.32753E-01
      21    -1     0     0   502   501  0.000000000E+00  0.000000000E+00  4.333457446E+02  4.333457446E+02  0.000000000E+00  0.00000E+00  9.000E+00
      -2    -1     0     0     0   502  0.000000000E+00  0.000000000E+00 -4.314781681E+02  4.314781681E+02  0.000000000E+00  0.00000E+00  9.000E+00
      25     1     1     2     0     0  1.761717808E+02  1.441582766E+02 -6.071072050E+01  2.667000124E+02  1.250000000E+02  0.00000E+00  9.000E+00
      25     1     1     2     0     0 -2.090489458E+02 -8.768994812E+01  2.739311793E+02  3.769008885E+02  1.250000000E+02  0.00000E+00  9.000E+00
      -2     1     1     2     0   501  3.287716504E+01 -5.646832850E+01 -2.113528823E+02  2.212230118E+02  2.697398305E-06  0.00000E+00  9.000E+00
#rwgt            1           1   2.6772037467998326E-002           4      267355           0
</event>
<event>
      5   9999  3.19816E-02  5.34064E+01 -1.00000E+00  1.37462E-01
      21    -1     0     0   502   511  0.000000000E+00  0.000000000E+00  4.830547524E+02  4.830547524E+02  0.000000000E+00  0.00000E+00  9.000E+00
      21    -1     0     0   501   502  0.000000000E+00  0.000000000E+00 -1.073192474E+03  1.073192474E+03  0.000000000E+00  0.00000E+00  9.000E+00
      25     1     1     2     0     0 -5.598275937E+02  1.652836639E+02  7.782414250E+01  6.020026756E+02  1.250000000E+02  0.00000E+00  9.000E+00
      25     1     1     2     0     0  5.064262190E+02 -1.645524543E+02 -7.027396529E+02  8.905127991E+02  1.250000000E+02  0.00000E+00  9.000E+00
      21     1     1     2   501   511  5.340137473E+01 -7.312095976E-01  3.477778925E+01  6.373175124E+01  0.000000000E+00  0.00000E+00  9.000E+00
#rwgt            1           1   2.9751344992177176E-002           4      267438           0
</event>
<event>
      5   9999  3.19816E-02  2.51658E+01 -1.00000E+00  1.58536E-01
      21    -1     0     0   502   501  0.000000000E+00  0.000000000E+00  4.631871502E+02  4.631871502E+02  0.000000000E+00  0.00000E+00  9.000E+00
      21    -1     0     0   512   502  0.000000000E+00  0.000000000E+00 -1.628979472E+02  1.628979472E+02  0.000000000E+00  0.00000E+00  9.000E+00
      25     1     1     2     0     0 -3.334836656E+01  5.906501423E+01  3.711235679E+02  3.974399226E+02  1.250000000E+02  0.00000E+00  9.000E+00
      25     1     1     2     0     0  2.120933019E+01 -8.110951884E+01  3.102253585E+00  1.505430626E+02  1.250000000E+02  0.00000E+00  9.000E+00
      21     1     1     2   512   501  1.213903638E+01  2.204450461E+01 -7.393661841E+01  7.810211219E+01  2.132480600E-06  0.00000E+00  9.000E+00
#rwgt            1           1   2.8229609162214814E-002           4      267552           0
</event>
<event>
      5   9999  3.19816E-02  2.78710E+01 -1.00000E+00  1.55294E-01
      21    -1     0     0   502   501  0.000000000E+00  0.000000000E+00  2.693258357E+03  2.693258357E+03  0.000000000E+00  0.00000E+00  9.000E+00
      21    -1     0     0   511   502  0.000000000E+00  0.000000000E+00 -1.404607949E+03  1.404607949E+03  0.000000000E+00  0.00000E+00  9.000E+00
      25     1     1     2     0     0 -7.868508009E+02  9.779955837E+02 -8.970256308E+02  1.547866120E+03  1.250000000E+02  0.00000E+00  9.000E+00
      25     1     1     2     0     0  8.069930721E+02 -9.587321582E+02  2.185196753E+03  2.522125100E+03  1.250000000E+02  0.00000E+00  9.000E+00
      21     1     1     2   511   501 -2.014227119E+01 -1.926342547E+01  4.792851157E-01  2.787508500E+01  3.134561176E-07  0.00000E+00  9.000E+00
#rwgt            1           1   2.0714435808531238E-002           4      267729           0
</event>
<event>
      5   9999  3.19816E-02  1.39169E+02 -1.00000E+00  1.17698E-01
       2    -1     0     0   502     0  0.000000000E+00  0.000000000E+00  7.351245380E+02  7.351245380E+02  0.000000000E+00  0.00000E+00  9.000E+00
      21    -1     0     0   501   502  0.000000000E+00  0.000000000E+00 -1.223873147E+02  1.223873147E+02  0.000000000E+00  0.00000E+00  9.000E+00
      25     1     1     2     0     0 -9.998608759E+01  3.850526847E+01  9.153866880E+01  1.883725067E+02  1.250000000E+02  0.00000E+00  9.000E+00
      25     1     1     2     0     0  2.383844130E+02 -5.312725678E+01  3.971899964E+02  4.827364985E+02  1.250000000E+02  0.00000E+00  9.000E+00
       2     1     1     2   501     0 -1.383983254E+02  1.462198831E+01  1.240085581E+02  1.864028474E+02  3.303624740E-06  0.00000E+00  9.000E+00
#rwgt            1           1   2.8176590286259746E-002           4      267995           0
</event>
<event>
      5   9999  3.19816E-02  2.23250E+01 -1.00000E+00  1.62522E-01
       2    -1     0     0   502     0  0.000000000E+00  0.000000000E+00  3.517564195E+03  3.517564195E+03  0.000000000E+00  0.00000E+00  9.000E+00
      21    -1     0     0   501   502  0.000000000E+00  0.000000000E+00 -1.727216489E+02  1.727216489E+02  0.000000000E+00  0.00000E+00  9.000E+00
      25     1     1     2     0     0 -8.034349569E+01 -1.960640635E+02  1.522676500E+03  1.542421771E+03  1.250000000E+02  0.00000E+00  9.000E+00
      25     1     1     2     0     0  1.015867283E+02  2.029291249E+02 -5.969284130E+01  2.658727673E+02  1.250000000E+02  0.00000E+00  9.000E+00
       2     1     1     2   501     0 -2.124323261E+01 -6.865061407E+00  1.881858887E+03  1.881991305E+03  0.000000000E+00  0.00000E+00  9.000E+00
#rwgt            1           1   2.6757579699158558E-002           4      268044           0
</event>
<event>
      5   9999  3.19816E-02  2.17106E+02 -1.00000E+00  1.10366E-01
      21    -1     0     0   502   501  0.000000000E+00  0.000000000E+00  4.350915774E+02  4.350915774E+02  0.000000000E+00  0.00000E+00  9.000E+00
       2    -1     0     0   501     0  0.000000000E+00  0.000000000E+00 -1.690305230E+03  1.690305230E+03  0.000000000E+00  0.00000E+00  9.000E+00
      25     1     1     2     0     0 -1.282021619E+02  6.959273311E+01  8.078861128E+01  2.084004379E+02  1.250000000E+02  0.00000E+00  9.000E+00
      25     1     1     2     0     0  2.046541613E+02 -2.727925886E+02  1.660247911E+02  3.993599296E+02  1.250000000E+02  0.00000E+00  9.000E+00
       2     1     1     2   502     0 -7.645199943E+01  2.031998555E+02 -1.502027055E+03  1.517636440E+03  0.000000000E+00  0.00000E+00  9.000E+00
#rwgt            1           1   3.2902584076843565E-002           4      268290           0
</event>
<event>
      5   9999  3.19816E-02  1.04244E+02 -1.00000E+00  1.23021E-01
      21    -1     0     0   502   501  0.000000000E+00  0.000000000E+00  1.482541165E+03  1.482541165E+03  0.000000000E+00  0.00000E+00  9.000E+00
      21    -1     0     0   501   511  0.000000000E+00  0.000000000E+00 -6.123189587E+02  6.123189587E+02  0.000000000E+00  0.00000E+00  9.000E+00
      25     1     1     2     0     0 -2.040444727E+02  7.588308899E+02  3.222625388E+01  7.963177743E+02  1.250000000E+02  0.00000E+00  9.000E+00
      25     1     1     2     0     0  2.892561359E+02 -8.188795204E+02  8.006438953E+02  1.187808246E+03  1.250000000E+02  0.00000E+00  9.000E+00
      21     1     1     2   502   511 -8.521166327E+01  6.004863053E+01  3.735205729E+01  1.107341039E+02  1.168007728E-06  0.00000E+00  9.000E+00
#rwgt            1           1   3.6994271294553460E-002           4      268344           0
</event>
<event>
      5   9999  3.19816E-02  6.24876E+01 -1.00000E+00  1.33767E-01
      21    -1     0     0   502   501  0.000000000E+00  0.000000000E+00  1.533866747E+03  1.533866747E+03  0.000000000E+00  0.00000E+00  9.000E+00
      21    -1     0     0   512   502  0.000000000E+00  0.000000000E+00 -6.789062161E+01  6.789062161E+01  0.000000000E+00  0.00000E+00  9.000E+00
      25     1     1     2     0     0  4.531694507E+01 -2.190747250E+02  7.608295165E+02  8.028286952E+02  1.250000000E+02  0.00000E+00  9.000E+00
      25     1     1     2     0     0 -4.568705362E+01  2.815612531E+02  6.132900166E+02  6.878326036E+02  1.250000000E+02  0.00000E+00  9.000E+00
      21     1     1     2   512   501  3.701085509E-01 -6.248652811E+01  9.185659198E+01  1.110960695E+02  1.907348633E-06  0.00000E+00  9.000E+00
#rwgt            1           1   3.4398451256223844E-002           4      268463           0
</event>
<event>
      5   9999  3.19816E-02  2.60734E+01 -1.00000E+00  1.57395E-01
      21    -1     0     0   502   511  0.000000000E+00  0.000000000E+00  1.420157867E+03  1.420157867E+03  0.000000000E+00  0.00000E+00  9.000E+00
      21    -1     0     0   501   502  0.000000000E+00  0.000000000E+00 -4.086025780E+02  4.086025780E+02  0.000000000E+00  0.00000E+00  9.000E+00
      25     1     1     2     0     0  2.713473654E+01  3.173936740E+02 -3.102168691E+02  4.618815261E+02  1.250000000E+02  0.00000E+00  9.000E+00
      25     1     1     2     0     0 -1.930177940E+01 -2.925246520E+02  1.262894219E+03  1.302486100E+03  1.250000000E+02  0.00000E+00  9.000E+00
      21     1     1     2   501   511 -7.832957133E+00 -2.486902203E+01  5.887793849E+01  6.439281882E+01  6.743495762E-07  0.00000E+00  9.000E+00
#rwgt            1           1   2.8836294917221068E-002           4      268639           0
</event>
<event>
      5   9999  3.19816E-02  3.88804E+01 -1.00000E+00  1.45609E-01
       1    -1     0     0   502     0  0.000000000E+00  0.000000000E+00  5.048135035E+02  5.048135035E+02  0.000000000E+00  0.00000E+00  9.000E+00
      21    -1     0     0   501   502  0.000000000E+00  0.000000000E+00 -6.088233996E+02  6.088233996E+02  0.000000000E+00  0.00000E+00  9.000E+00
      25     1     1     2     0     0 -4.177398268E+02 -1.004358185E+02 -2.550588855E+02  5.150475237E+02  1.250000000E+02  0.00000E+00  9.000E+00
      25     1     1     2     0     0  3.865118795E+02  1.235982765E+02 -1.813402273E+01  4.249962467E+02  1.250000000E+02  0.00000E+00  9.000E+00
       1     1     1     2   501     0  3.122794736E+01 -2.316245793E+01  1.691830121E+02  1.735931328E+02  1.907348633E-06  0.00000E+00  9.000E+00
#rwgt            1           1   2.7592370820867972E-002           4      268816           0
</event>
<event>
      5   9999  3.19816E-02  1.51287E+02 -1.00000E+00  1.16247E-01
       2    -1     0     0   502     0  0.000000000E+00  0.000000000E+00  4.368498489E+02  4.368498489E+02  0.000000000E+00  0.00000E+00  9.000E+00
      21    -1     0     0   501   502  0.000000000E+00  0.000000000E+00 -9.222304229E+02  9.222304229E+02  0.000000000E+00  0.00000E+00  9.000E+00
      25     1     1     2     0     0 -3.109125230E+02  2.698743495E+02 -5.739914220E+02  7.173492273E+02  1.250000000E+02  0.00000E+00  9.000E+00
      25     1     1     2     0     0  4.002144189E+02 -1.477557966E+02 -3.561229858E+01  4.459782420E+02  1.250000000E+02  0.00000E+00  9.000E+00
       2     1     1     2   501     0 -8.930189585E+01 -1.221185529E+02  1.242231466E+02  1.957528025E+02  1.348699152E-06  0.00000E+00  9.000E+00
#rwgt            1           1   2.7853748557347190E-002           4      268913           0
</event>
<event>
      5   9999  3.19816E-02  3.34926E+01 -1.00000E+00  1.49790E-01
      21    -1     0     0   502   501  0.000000000E+00  0.000000000E+00  8.749820899E+02  8.749820899E+02  0.000000000E+00  0.00000E+00  9.000E+00
       1    -1     0     0   501     0  0.000000000E+00  0.000000000E+00 -1.600330318E+02  1.600330318E+02  0.000000000E+00  0.00000E+00  9.000E+00
      25     1     1     2     0     0  4.552812220E+01  2.341580236E+01  5.271370444E+02  5.441686993E+02  1.250000000E+02  0.00000E+00  9.000E+00
      25     1     1     2     0     0 -3.339722616E+01 -5.463436374E+01  3.226598399E+02  3.519014929E+02  1.250000000E+02  0.00000E+00  9.000E+00
       1     1     1     2   502     0 -1.213089605E+01  3.121856138E+01 -1.348478262E+02  1.389449295E+02  1.907348633E-06  0.00000E+00  9.000E+00
#rwgt            1           1   2.4956638501213331E-002           4      268966           0
</event>
<event>
      5   9999  3.19816E-02  4.08681E+01 -1.00000E+00  1.44264E-01
      21    -1     0     0   502   511  0.000000000E+00  0.000000000E+00  1.099074063E+03  1.099074063E+03  0.000000000E+00  0.00000E+00  9.000E+00
      21    -1     0     0   501   502  0.000000000E+00  0.000000000E+00 -3.529326194E+02  3.529326194E+02  0.000000000E+00  0.00000E+00  9.000E+00
      25     1     1     2     0     0  5.852800498E+02  8.495719389E+01  3.159143883E+02  6.820537825E+02  1.250000000E+02  0.00000E+00  9.000E+00
      25     1     1     2     0     0 -5.617026370E+02 -1.183384267E+02  3.609208606E+02  6.894945274E+02  1.250000000E+02  0.00000E+00  9.000E+00
      21     1     1     2   501   511 -2.357741278E+01  3.338123281E+01  6.930619508E+01  8.045837292E+01  9.536743164E-07  0.00000E+00  9.000E+00
#rwgt            1           1   2.5590718682778710E-002           4      269065           0
</event>
<event>
      5   9999  3.19816E-02  3.18552E+02 -1.00000E+00  1.04752E-01
       5    -1     0     0   502     0  0.000000000E+00  0.000000000E+00  2.350973721E+02  2.350973721E+02  0.000000000E+00  0.00000E+00  9.000E+00
      21    -1     0     0   501   502  0.000000000E+00  0.000000000E+00 -9.472936336E+02  9.472936336E+02  0.000000000E+00  0.00000E+00  9.000E+00
      25     1     1     2     0     0  1.293044747E+02  3.255584565E+02 -3.797226318E+02  5.315282052E+02  1.250000000E+02  0.00000E+00  9.000E+00
      25     1     1     2     0     0 -9.631167153E+01 -8.719842885E+00 -2.889567759E+02  3.293523828E+02  1.250000000E+02  0.00000E+00  9.000E+00
       5     1     1     2   501     0 -3.299280319E+01 -3.168386136E+02 -4.351685384E+01  3.215104177E+02  3.989505894E-06  0.00000E+00  9.000E+00
#rwgt            1           1   3.0726671593309770E-002           4      269257           0
</event>
<event>
      5   9999  3.19816E-02  2.33755E+01 -1.00000E+00  1.60968E-01
      21    -1     0     0   502   501  0.000000000E+00  0.000000000E+00  1.543418524E+03  1.543418524E+03  0.000000000E+00  0.00000E+00  9.000E+00
       2    -1     0     0   501     0  0.000000000E+00  0.000000000E+00 -1.213988656E+03  1.213988656E+03  0.000000000E+00  0.00000E+00  9.000E+00
      25     1     1     2     0     0  8.042132239E+01 -5.969575922E+02  7.106507697E+02  9.399337596E+02  1.250000000E+02  0.00000E+00  9.000E+00
      25     1     1     2     0     0 -8.628826960E+01  5.743303681E+02  5.950989191E+02  8.408738078E+02  1.250000000E+02  0.00000E+00  9.000E+00
       2     1     1     2   502     0  5.866947210E+00  2.262722404E+01 -9.763198207E+02  9.765996133E+02  0.000000000E+00  0.00000E+00  9.000E+00
#rwgt            1           1   2.1408333997741169E-002           4      269316           0
</event>
<event>
      5   9999  3.19816E-02  4.43161E+01 -1.00000E+00  1.42133E-01
      21    -1     0     0   511   501  0.000000000E+00  0.000000000E+00  2.801595309E+03  2.801595309E+03  0.000000000E+00  0.00000E+00  9.000E+00
      21    -1     0     0   501   502  0.000000000E+00  0.000000000E+00 -8.921000985E+01  8.921000985E+01  0.000000000E+00  0.00000E+00  9.000E+00
      25     1     1     2     0     0  3.330439179E+02 -3.040886652E+02  9.402729510E+02  1.050298239E+03  1.250000000E+02  0.00000E+00  9.000E+00
      25     1     1     2     0     0 -3.469922182E+02  2.620248638E+02  1.632383791E+03  1.693919263E+03  1.250000000E+02  0.00000E+00  9.000E+00
      21     1     1     2   511   502  1.394830037E+01  4.206380136E+01  1.397285573E+02  1.465878174E+02  1.907348633E-06  0.00000E+00  9.000E+00
#rwgt            1           1   6.4084647035263051E-002           4      269521           0
</event>
<event>
      5   9999  3.19816E-02  2.67748E+01 -1.00000E+00  1.56552E-01
      21    -1     0     0   502   501  0.000000000E+00  0.000000000E+00  8.773129833E+02  8.773129833E+02  0.000000000E+00  0.00000E+00  9.000E+00
      21    -1     0     0   512   502  0.000000000E+00  0.000000000E+00 -6.921398926E+02  6.921398926E+02  0.000000000E+00  0.00000E+00  9.000E+00
      25     1     1     2     0     0  7.012591387E+02 -8.379623121E+01  2.308003698E+02  7.534454185E+02  1.250000000E+02  0.00000E+00  9.000E+00
      25     1     1     2     0     0 -7.131089646E+02  5.978637275E+01  3.875511069E+01  7.274790474E+02  1.250000000E+02  0.00000E+00  9.000E+00
      21     1     1     2   512   501  1.184982595E+01  2.400985846E+01 -8.438238980E+01  8.852841006E+01  9.536743164E-07  0.00000E+00  9.000E+00
#rwgt            1           1   3.2106304417712915E-002           4      269683           0
</event>
<event>
      5   9999  3.19816E-02  5.71589E+01 -1.00000E+00  1.35839E-01
      21    -1     0     0   502   501  0.000000000E+00  0.000000000E+00  3.762708916E+01  3.762708916E+01  0.000000000E+00  0.00000E+00  9.000E+00
       2    -1     0     0   501     0  0.000000000E+00  0.000000000E+00 -2.016192210E+03  2.016192210E+03  0.000000000E+00  0.00000E+00  9.000E+00
      25     1     1     2     0     0 -1.450565468E+02 -1.018450922E+01 -3.184127072E+02  3.716944688E+02  1.250000000E+02  0.00000E+00  9.000E+00
      25     1     1     2     0     0  1.144799760E+02  5.847755704E+01 -7.898088688E+02  8.099063766E+02  1.250000000E+02  0.00000E+00  9.000E+00
       2     1     1     2   502     0  3.057657081E+01 -4.829304782E+01 -8.703435449E+02  8.722184539E+02  1.078959322E-05  0.00000E+00  9.000E+00
#rwgt            1           1   3.4165440122283348E-002           4      269839           0
</event>
<event>
      5   9999  3.19816E-02  2.51321E+02 -1.00000E+00  1.08152E-01
      21    -1     0     0   502   501  0.000000000E+00  0.000000000E+00  2.413918373E+03  2.413918373E+03  0.000000000E+00  0.00000E+00  9.000E+00
      -3    -1     0     0     0   502  0.000000000E+00  0.000000000E+00 -3.193879393E+02  3.193879393E+02  0.000000000E+00  0.00000E+00  9.000E+00
      25     1     1     2     0     0 -4.243123221E+02  3.347577545E+02  1.765994356E+03  1.851071249E+03  1.250000000E+02  0.00000E+00  9.000E+00
      25     1     1     2     0     0  3.504277981E+02 -9.454217649E+01  4.595703654E+02  5.988052986E+02  1.250000000E+02  0.00000E+00  9.000E+00
      -3     1     1     2     0   501  7.388452399E+01 -2.402155780E+02 -1.310342884E+02  2.834297648E+02  6.607249480E-06  0.00000E+00  9.000E+00
#rwgt            2           8   4.8840173715149432E-004           4      269947           0
</event>
<event>
      5   9999  3.19816E-02  5.22766E+01 -1.00000E+00  1.37981E-01
      21    -1     0     0   502   501  0.000000000E+00  0.000000000E+00  2.133704690E+03  2.133704690E+03  0.000000000E+00  0.00000E+00  9.000E+00
      21    -1     0     0   511   502  0.000000000E+00  0.000000000E+00 -2.973438559E+02  2.973438559E+02  0.000000000E+00  0.00000E+00  9.000E+00
      25     1     1     2     0     0  3.360596144E+02 -6.065663510E+02  4.643710955E+02  8.438745860E+02  1.250000000E+02  0.00000E+00  9.000E+00
      25     1     1     2     0     0 -3.881454568E+02  6.021048900E+02  1.343397022E+03  1.527588869E+03  1.250000000E+02  0.00000E+00  9.000E+00
      21     1     1     2   511   501  5.208584248E+01  4.461460989E+00  2.859271683E+01  5.958509106E+01  4.768371582E-07  0.00000E+00  9.000E+00
#rwgt            1           1   2.4994297987661174E-002           4      269966           0
</event>
<event>
      5   9999  3.46262E-02  7.48759E+01 -1.00000E+00  1.29757E-01
      21    -1     0     0   502   512  0.000000000E+00  0.000000000E+00  9.502342624E+02  9.502342624E+02  0.000000000E+00  0.00000E+00  9.000E+00
      21    -1     0     0   501   502  0.000000000E+00  0.000000000E+00 -4.354902883E+02  4.354902883E+02  0.000000000E+00  0.00000E+00  9.000E+00
      25     1     1     2     0     0 -3.025916264E+02  9.803281339E+01  6.215623517E+02  7.093214236E+02  1.250000000E+02  0.00000E+00  9.000E+00
      25     1     1     2     0     0  3.613872480E+02 -1.443952942E+02 -2.747690196E+02  4.925177744E+02  1.250000000E+02  0.00000E+00  9.000E+00
      21     1     1     2   501   512 -5.879562159E+01  4.636248083E+01  1.679506421E+02  1.838853527E+02  2.697398305E-06  0.00000E+00  9.000E+00
#rwgt            1           1   3.2622035537431572E-002           4      270095           0
</event>
<event>
      5   9999  3.19816E-02  6.75932E+01 -1.00000E+00  1.31995E-01
      21    -1     0     0   502   501  0.000000000E+00  0.000000000E+00  2.374281329E+02  2.374281329E+02  0.000000000E+00  0.00000E+00  9.000E+00
      21    -1     0     0   501   511  0.000000000E+00  0.000000000E+00 -2.253280662E+03  2.253280662E+03  0.000000000E+00  0.00000E+00  9.000E+00
      25     1     1     2     0     0 -9.385401244E+01  3.392327351E+02 -1.753813507E+02  4.126391188E+02  1.250000000E+02  0.00000E+00  9.000E+00
      25     1     1     2     0     0  1.584660110E+02 -3.590853394E+02 -2.411435628E+02  4.773143362E+02  1.250000000E+02  0.00000E+00  9.000E+00
      21     1     1     2   502   511 -6.461199861E+01  1.985260434E+01 -1.599327616E+03  1.600755340E+03  2.157918644E-05  0.00000E+00  9.000E+00
#rwgt            1           1   2.9741463540325194E-002           4      270181           0
</event>
<event>
      5   9999  3.19816E-02  2.25732E+02 -1.00000E+00  1.09767E-01
      21    -1     0     0   502   501  0.000000000E+00  0.000000000E+00  4.596728218E+02  4.596728218E+02  0.000000000E+00  0.00000E+00  9.000E+00
       2    -1     0     0   501     0  0.000000000E+00  0.000000000E+00 -1.669822180E+03  1.669822180E+03  0.000000000E+00  0.00000E+00  9.000E+00
      25     1     1     2     0     0 -1.706816831E+01 -4.507589203E+02 -5.818096181E+01  4.716831044E+02  1.250000000E+02  0.00000E+00  9.000E+00
      25     1     1     2     0     0  2.380533386E+02  4.968090098E+02 -8.988814671E+01  5.720082719E+02  1.250000000E+02  0.00000E+00  9.000E+00
       2     1     1     2   502     0 -2.209851703E+02 -4.605008951E+01 -1.062080250E+03  1.085803626E+03  1.525878906E-05  0.00000E+00  9.000E+00
#rwgt            1           1   3.3492291656693533E-002           4      270257           0
</event>
<event>
      5   9999  3.19816E-02  2.56124E+01 -1.00000E+00  1.57968E-01
      -1    -1     0     0     0   501  0.000000000E+00  0.000000000E+00  2.756308881E+02  2.756308881E+02  0.000000000E+00  0.00000E+00  9.000E+00
      21    -1     0     0   501   502  0.000000000E+00  0.000000000E+00 -1.454702574E+03  1.454702574E+03  0.000000000E+00  0.00000E+00  9.000E+00
      25     1     1     2     0     0  6.061464091E+01 -4.206804424E+02 -4.326406259E+02  6.192326546E+02  1.250000000E+02  0.00000E+00  9.000E+00
      25     1     1     2     0     0 -7.091744879E+01  3.972315939E+02 -8.794475430E+02  9.756409200E+02  1.250000000E+02  0.00000E+00  9.000E+00
      -1     1     1     2     0   502  1.030280787E+01  2.344884849E+01  1.330164831E+02  1.354598875E+02  4.264961200E-06  0.00000E+00  9.000E+00
#rwgt            1           1   3.0254458729665250E-002           4      270309           0
</event>
<event>
      5   9999  3.19816E-02  6.85073E+01 -1.00000E+00  1.31697E-01
       3    -1     0     0   502     0  0.000000000E+00  0.000000000E+00  3.794886157E+02  3.794886157E+02  0.000000000E+00  0.00000E+00  9.000E+00
      21    -1     0     0   501   502  0.000000000E+00  0.000000000E+00 -2.082244714E+02  2.082244714E+02  0.000000000E+00  0.00000E+00  9.000E+00
      25     1     1     2     0     0  7.018158011E+01 -1.660187516E+01 -4.969993337E+01  1.526307958E+02  1.250000000E+02  0.00000E+00  9.000E+00
      25     1     1     2     0     0 -1.279335758E+02  5.345233034E+01 -1.700142673E+01  1.874518604E+02  1.250000000E+02  0.00000E+00  9.000E+00
       3     1     1     2   501     0  5.775199573E+01 -3.685045518E+01  2.379655044E+02  2.476304309E+02  3.814697266E-06  0.00000E+00  9.000E+00
#rwgt            1           1   2.2898429746633898E-002           4      270442           0
</event>
<event>
      5   9999  3.19816E-02  5.28982E+01 -1.00000E+00  1.37694E-01
      21    -1     0     0   511   501  0.000000000E+00  0.000000000E+00  1.457052467E+02  1.457052467E+02  0.000000000E+00  0.00000E+00  9.000E+00
      21    -1     0     0   501   502  0.000000000E+00  0.000000000E+00 -9.992078220E+02  9.992078220E+02  0.000000000E+00  0.00000E+00  9.000E+00
      25     1     1     2     0     0 -6.646587770E+00  1.730679460E+02 -1.571073511E+02  2.651497895E+02  1.250000000E+02  0.00000E+00  9.000E+00
      25     1     1     2     0     0  3.481046874E+01 -2.178453303E+02 -7.575768796E+02  7.988842752E+02  1.250000000E+02  0.00000E+00  9.000E+00
      21     1     1     2   511   502 -2.816388097E+01  4.477738424E+01  6.118165544E+01  8.087900403E+01  2.023048729E-06  0.00000E+00  9.000E+00
#rwgt            1           1   2.7140103913994035E-002           4      270583           0
</event>
<event>
      5   9999  3.19816E-02  2.63813E+01 -1.00000E+00  1.57021E-01
      21    -1     0     0   502   501  0.000000000E+00  0.000000000E+00  3.506180421E+02  3.506180421E+02  0.000000000E+00  0.00000E+00  9.000E+00
       2    -1     0     0   501     0  0.000000000E+00  0.000000000E+00 -3.069197082E+02  3.069197082E+02  0.000000000E+00  0.00000E+00  9.000E+00
      25     1     1     2     0     0 -1.025675856E+02 -4.553222575E+01  2.874322228E+02  3.329197739E+02  1.250000000E+02  0.00000E+00  9.000E+00
      25     1     1     2     0     0  7.641778596E+01  4.901934276E+01 -1.134059622E+02  1.916467746E+02  1.250000000E+02  0.00000E+00  9.000E+00
       2     1     1     2   502     0  2.614979960E+01 -3.487117012E+00 -1.303279267E+02  1.329712017E+02  0.000000000E+00  0.00000E+00  9.000E+00
#rwgt            1           1   2.4042803024124402E-002           4      270684           0
</event>
<event>
      5   9999  3.19816E-02  6.11151E+01 -1.00000E+00  1.34277E-01
      21    -1     0     0   502   501  0.000000000E+00  0.000000000E+00  6.138511386E+02  6.138511386E+02  0.000000000E+00  0.00000E+00  9.000E+00
      21    -1     0     0   511   502  0.000000000E+00  0.000000000E+00 -2.029636563E+02  2.029636563E+02  0.000000000E+00  0.00000E+00  9.000E+00
      25     1     1     2     0     0  1.464592476E+02 -4.159530991E+01  3.514407932E+02  4.028847380E+02  1.250000000E+02  0.00000E+00  9.000E+00
      25     1     1     2     0     0 -8.586964636E+01  3.359781188E+01  2.043398256E+02  2.566752295E+02  1.250000000E+02  0.00000E+00  9.000E+00
      21     1     1     2   511   501 -6.058960124E+01  7.997498031E+00 -1.448931364E+02  1.572548274E+02  1.907348633E-06  0.00000E+00  9.000E+00
#rwgt            1           1   2.2758789882818792E-002           4      270832           0
</event>
<event>
      5   9999  3.19816E-02  6.71679E+01 -1.00000E+00  1.32136E-01
       2    -1     0     0   502     0  0.000000000E+00  0.000000000E+00  1.784304274E+03  1.784304274E+03  0.000000000E+00  0.00000E+00  9.000E+00
      21    -1     0     0   501   502  0.000000000E+00  0.000000000E+00 -1.184468933E+03  1.184468933E+03  0.000000000E+00  0.00000E+00  9.000E+00
      25     1     1     2     0     0  4.170011325E+02  2.137949503E+02 -3.904639213E+01  4.865674116E+02  1.250000000E+02  0.00000E+00  9.000E+00
      25     1     1     2     0     0 -3.870296579E+02 -2.739051318E+02 -8.556349130E+02  9.861805523E+02  1.250000000E+02  0.00000E+00  9.000E+00
       2     1     1     2   501     0 -2.997147466E+01  6.011018157E+01  1.494516646E+03  1.496025243E+03  3.051757812E-05  0.00000E+00  9.000E+00
#rwgt            1           1   2.2477327230395350E-002           4      270969           0
</event>
<event>
      5   9999  3.19816E-02  7.63913E+01 -1.00000E+00  1.29327E-01
      21    -1     0     0   502   501  0.000000000E+00  0.000000000E+00  1.459706648E+02  1.459706648E+02  0.000000000E+00  0.00000E+00  9.000E+00
      21    -1     0     0   511   502  0.000000000E+00  0.000000000E+00 -2.099312618E+03  2.099312618E+03  0.000000000E+00  0.00000E+00  9.000E+00
      25     1     1     2     0     0 -3.957239424E+02 -2.779602076E+02 -5.450504162E+02  7.392998525E+02  1.250000000E+02  0.00000E+00  9.000E+00
      25     1     1     2     0     0  3.648046835E+02  2.081058241E+02 -1.018296434E+03  1.108577069E+03  1.250000000E+02  0.00000E+00  9.000E+00
      21     1     1     2   511   501  3.091925886E+01  6.985438359E+01 -3.899951034E+02  3.974063614E+02  0.000000000E+00  0.00000E+00  9.000E+00
#rwgt            1           1   2.8476210527158752E-002           4      271078           0
</event>
<event>
      5   9999  3.19816E-02  9.12480E+01 -1.00000E+00  1.25644E-01
      21    -1     0     0   512   501  0.000000000E+00  0.000000000E+00  3.816365253E+02  3.816365253E+02  0.000000000E+00  0.00000E+00  9.000E+00
      21    -1     0     0   501   502  0.000000000E+00  0.000000000E+00 -8.699424104E+02  8.699424104E+02  0.000000000E+00  0.00000E+00  9.000E+00
      25     1     1     2     0     0  7.405642733E+00  4.668443867E+02 -2.752387183E+02  5.562192706E+02  1.250000000E+02  0.00000E+00  9.000E+00
      25     1     1     2     0     0  5.581446434E+01 -5.326426224E+02 -2.402623675E+02  6.001453348E+02  1.250000000E+02  0.00000E+00  9.000E+00
      21     1     1     2   512   502 -6.322010708E+01  6.579823569E+01  2.719520076E+01  9.521433035E+01  8.259061849E-07  0.00000E+00  9.000E+00
#rwgt            1           1   2.7369328452366969E-002           4      271174           0
</event>
<event>
      5   9999  3.19816E-02  8.82153E+01 -1.00000E+00  1.26328E-01
      21    -1     0     0   502   501  0.000000000E+00  0.000000000E+00  2.416474476E+02  2.416474476E+02  0.000000000E+00  0.00000E+00  9.000E+00
      -2    -1     0     0     0   502  0.000000000E+00  0.000000000E+00 -1.328384035E+03  1.328384035E+03  0.000000000E+00  0.00000E+00  9.000E+00
      25     1     1     2     0     0  8.108864879E+00  7.102362214E+01  1.737324598E+02  2.256503405E+02  1.250000000E+02  0.00000E+00  9.000E+00
      25     1     1     2     0     0 -5.796783999E+01 -1.437973929E+02 -2.070866104E+02  2.873113727E+02  1.250000000E+02  0.00000E+00  9.000E+00
      -2     1     1     2     0   501  4.985897511E+01  7.277377078E+01 -1.053382437E+03  1.057069770E+03  1.525878906E-05  0.00000E+00  9.000E+00
#rwgt            1           1   3.3909412933373302E-002           4      271251           0
</event>
<event>
      5   9999  3.19816E-02  3.31590E+01 -1.00000E+00  1.50080E-01
      21    -1     0     0   511   501  0.000000000E+00  0.000000000E+00  1.538299175E+02  1.538299175E+02  0.000000000E+00  0.00000E+00  9.000E+00
      21    -1     0     0   501   502  0.000000000E+00  0.000000000E+00 -1.397457450E+03  1.397457450E+03  0.000000000E+00  0.00000E+00  9.000E+00
      25     1     1     2     0     0  1.584768409E+02  1.028986721E+01  4.482845445E+01  2.070154120E+02  1.250000000E+02  0.00000E+00  9.000E+00
      25     1     1     2     0     0 -1.319329980E+02  9.583364636E+00 -1.297259749E+03  1.309964126E+03  1.250000000E+02  0.00000E+00  9.000E+00
      21     1     1     2   511   502 -2.654384293E+01 -1.987323185E+01  8.803761488E+00  3.430782940E+01  1.685873940E-07  0.00000E+00  9.000E+00
#rwgt            1           1   2.3509308448649142E-002           4      271327           0
</event>
<event>
      5   9999  3.19816E-02  1.30281E+02 -1.00000E+00  1.18872E-01
      21    -1     0     0   502   501  0.000000000E+00  0.000000000E+00  3.447262997E+02  3.447262997E+02  0.000000000E+00  0.00000E+00  9.000E+00
      21    -1     0     0   501   512  0.000000000E+00  0.000000000E+00 -6.671570800E+02  6.671570800E+02  0.000000000E+00  0.00000E+00  9.000E+00
      25     1     1     2     0     0  4.953722503E+01  2.436661308E+02 -3.004093827E+02  4.095093616E+02  1.250000000E+02  0.00000E+00  9.000E+00
      25     1     1     2     0     0 -1.727477705E+02 -2.860021100E+02  1.496556979E+02  3.868602164E+02  1.250000000E+02  0.00000E+00  9.000E+00
      21     1     1     2   502   512  1.232105455E+02  4.233597914E+01 -1.716770954E+02  2.155138017E+02  2.697398305E-06  0.00000E+00  9.000E+00
#rwgt            1           1   2.7923852190000324E-002           4      271492           0
</event>
<event>
      5   9999  3.19816E-02  3.50593E+01 -1.00000E+00  1.48483E-01
      21    -1     0     0   502   501  0.000000000E+00  0.000000000E+00  6.094277173E+02  6.094277173E+02  0.000000000E+00  0.00000E+00  9.000E+00
      21    -1     0     0   501   511  0.000000000E+00  0.000000000E+00 -3.370574554E+03  3.370574554E+03  0.000000000E+00  0.00000E+00  9.000E+00
      25     1     1     2     0     0 -1.034075503E+03 -4.648153130E+02 -1.212307038E+03  1.664535603E+03  1.250000000E+02  0.00000E+00  9.000E+00
      25     1     1     2     0     0  1.062086449E+03  4.858995349E+02 -5.175686352E+02  1.283599734E+03  1.250000000E+02  0.00000E+00  9.000E+00
      21     1     1     2   502   511 -2.801094689E+01 -2.108422198E+01 -1.031271163E+03  1.031866934E+03  0.000000000E+00  0.00000E+00  9.000E+00
#rwgt            1           1   6.8905538853454962E-002           4      271556           0
</event>
<event>
      5   9999  3.19816E-02  5.14854E+01 -1.00000E+00  1.38354E-01
      21    -1     0     0   502   501  0.000000000E+00  0.000000000E+00  3.638960061E+02  3.638960061E+02  0.000000000E+00  0.00000E+00  9.000E+00
      21    -1     0     0   501   512  0.000000000E+00  0.000000000E+00 -7.259657020E+02  7.259657020E+02  0.000000000E+00  0.00000E+00  9.000E+00
      25     1     1     2     0     0 -6.261348100E+01  1.247220914E+02  2.263964713E+02  2.938646122E+02  1.250000000E+02  0.00000E+00  9.000E+00
      25     1     1     2     0     0  1.331053896E+01 -1.395535247E+02  1.677476702E+01  1.885702774E+02  1.250000000E+02  0.00000E+00  9.000E+00
      21     1     1     2   502   512  4.930294204E+01  1.483143330E+01 -6.052409342E+02  6.074268186E+02  7.629394531E-06  0.00000E+00  9.000E+00
#rwgt            1           1   2.6780599729409944E-002           4      271722           0
</event>
<event>
      5   9999  3.19816E-02  6.16884E+01 -1.00000E+00  1.34063E-01
      21    -1     0     0   502   501  0.000000000E+00  0.000000000E+00  9.604850785E+02  9.604850785E+02  0.000000000E+00  0.00000E+00  9.000E+00
      21    -1     0     0   501   511  0.000000000E+00  0.000000000E+00 -7.318322046E+02  7.318322046E+02  0.000000000E+00  0.00000E+00  9.000E+00
      25     1     1     2     0     0 -2.085159717E+02  1.317812279E+02 -5.548438328E+02  6.199369978E+02  1.250000000E+02  0.00000E+00  9.000E+00
      25     1     1     2     0     0  2.702015788E+02 -1.311981714E+02  8.909420099E+02  9.484853812E+02  1.250000000E+02  0.00000E+00  9.000E+00
      21     1     1     2   502   511 -6.168560710E+01 -5.830565092E-01 -1.074453032E+02  1.238949041E+02  0.000000000E+00  0.00000E+00  9.000E+00
#rwgt            1           1   2.5852183349947693E-002           4      271835           0
</event>
<event>
      5   9999  3.19816E-02  3.14149E+01 -1.00000E+00  1.51663E-01
      21    -1     0     0   512   501  0.000000000E+00  0.000000000E+00  7.617441864E+02  7.617441864E+02  0.000000000E+00  0.00000E+00  9.000E+00
      21    -1     0     0   501   502  0.000000000E+00  0.000000000E+00 -1.670998618E+02  1.670998618E+02  0.000000000E+00  0.00000E+00  9.000E+00
      25     1     1     2     0     0  2.384435061E+02  1.486562190E+02  3.344651461E+02  4.543631928E+02  1.250000000E+02  0.00000E+00  9.000E+00
      25     1     1     2     0     0 -2.313954088E+02 -1.180421709E+02  9.083564533E+01  3.022480832E+02  1.250000000E+02  0.00000E+00  9.000E+00
      21     1     1     2   512   502 -7.048097220E+00 -3.061404816E+01  1.693435331E+02  1.722327722E+02  1.907348633E-06  0.00000E+00  9.000E+00
#rwgt            1           1   2.8585995184770497E-002           4      271971           0
</event>
<event>
      5   9999  3.19816E-02  1.00244E+02 -1.00000E+00  1.23780E-01
      21    -1     0     0   502   501  0.000000000E+00  0.000000000E+00  1.533426881E+03  1.533426881E+03  0.000000000E+00  0.00000E+00  9.000E+00
      21    -1     0     0   511   502  0.000000000E+00  0.000000000E+00 -4.108112523E+02  4.108112523E+02  0.000000000E+00  0.00000E+00  9.000E+00
      25     1     1     2     0     0 -7.097560212E+02  2.779502544E+02  6.300116169E+02  9.967695777E+02  1.250000000E+02  0.00000E+00  9.000E+00
      25     1     1     2     0     0  6.597927588E+02 -1.910446486E+02  4.780890996E+02  8.461788993E+02  1.250000000E+02  0.00000E+00  9.000E+00
      21     1     1     2   511   501  4.996326233E+01 -8.690560574E+01  1.451491248E+01  1.012896568E+02  1.261592536E-06  0.00000E+00  9.000E+00
#rwgt            1           1   2.0059697364691424E-002           4      272069           0
</event>
<event>
      5   9999  3.19816E-02  5.43755E+01 -1.00000E+00  1.37028E-01
      21    -1     0     0   502   501  0.000000000E+00  0.000000000E+00  4.990459274E+02  4.990459274E+02  0.000000000E+00  0.00000E+00  9.000E+00
      21    -1     0     0   512   502  0.000000000E+00  0.000000000E+00 -1.048409873E+02  1.048409873E+02  0.000000000E+00  0.00000E+00  9.000E+00
      25     1     1     2     0     0 -4.962537839E+01  1.169126152E+02  9.574990706E+01  2.022975098E+02  1.250000000E+02  0.00000E+00  9.000E+00
      25     1     1     2     0     0  1.301834759E+01 -1.571198311E+02  2.786999589E+02  3.437365063E+02  1.250000000E+02  0.00000E+00  9.000E+00
      21     1     1     2   512   501  3.660703080E+01  4.020721587E+01  1.975507421E+01  5.785289853E+01  1.118282261E-06  0.00000E+00  9.000E+00
#rwgt            1           1   3.0055290454437458E-002           4      272178           0
</event>
<event>
      5   9999  3.19816E-02  1.07703E+02 -1.00000E+00  1.22396E-01
      21    -1     0     0   502   501  0.000000000E+00  0.000000000E+00  1.920885589E+02  1.920885589E+02  0.000000000E+00  0.00000E+00  9.000E+00
       2    -1     0     0   501     0  0.000000000E+00  0.000000000E+00 -2.230042499E+03  2.230042499E+03  0.000000000E+00  0.00000E+00  9.000E+00
      25     1     1     2     0     0 -2.559393087E+02  2.588512044E+02 -2.698675302E+02  4.700663353E+02  1.250000000E+02  0.00000E+00  9.000E+00
      25     1     1     2     0     0  1.676656700E+02 -3.205576040E+02 -3.169637472E+02  4.969506730E+02  1.250000000E+02  0.00000E+00  9.000E+00
       2     1     1     2   502     0  8.827363868E+01  6.170639957E+01 -1.451122663E+03  1.455114049E+03  2.157918644E-05  0.00000E+00  9.000E+00
#rwgt            1           1   2.9063180692494889E-002           4      272242           0
</event>
<event>
      5   9999  3.19816E-02  3.33741E+01 -1.00000E+00  1.49893E-01
      21    -1     0     0   502   501  0.000000000E+00  0.000000000E+00  3.144554175E+02  3.144554175E+02  0.000000000E+00  0.00000E+00  9.000E+00
       1    -1     0     0   501     0  0.000000000E+00  0.000000000E+00 -1.018163018E+03  1.018163018E+03  0.000000000E+00  0.00000E+00  9.000E+00
      25     1     1     2     0     0 -1.721889022E+02  8.505885940E+01 -9.431905972E+01  2.478005501E+02  1.250000000E+02  0.00000E+00  9.000E+00
      25     1     1     2     0     0  1.411950398E+02 -9.743659557E+01  1.899135236E+02  2.848193741E+02  1.250000000E+02  0.00000E+00  9.000E+00
       1     1     1     2   502     0  3.099386235E+01  1.237773617E+01 -7.993020642E+02  7.999985111E+02  0.000000000E+00  0.00000E+00  9.000E+00
#rwgt            1           1   2.7148904008474133E-002           4      272302           0
</event>
<event>
      5   9999  3.19816E-02  1.54285E+02 -1.00000E+00  1.15911E-01
      21    -1     0     0   502   511  0.000000000E+00  0.000000000E+00  4.638896186E+02  4.638896186E+02  0.000000000E+00  0.00000E+00  9.000E+00
      21    -1     0     0   501   502  0.000000000E+00  0.000000000E+00 -5.577663227E+02  5.577663227E+02  0.000000000E+00  0.00000E+00  9.000E+00
      25     1     1     2     0     0  1.872158696E+02  8.724235040E+01 -3.292063121E+02  4.082435614E+02  1.250000000E+02  0.00000E+00  9.000E+00
      25     1     1     2     0     0 -9.065668375E+01 -2.075763336E+02 -7.284749515E+01  2.687718849E+02  1.250000000E+02  0.00000E+00  9.000E+00
      21     1     1     2   501   511 -9.655918581E+01  1.203339832E+02  3.081771031E+02  3.446404949E+02  5.394796609E-06  0.00000E+00  9.000E+00
#rwgt            1           1   2.8753136255394697E-002           4      272390           0
</event>
<event>
      5   9999  3.19816E-02  1.31409E+02 -1.00000E+00  1.18717E-01
      21    -1     0     0   502   501  0.000000000E+00  0.000000000E+00  1.789023815E+03  1.789023815E+03  0.000000000E+00  0.00000E+00  9.000E+00
      21    -1     0     0   512   502  0.000000000E+00  0.000000000E+00 -5.825264141E+02  5.825264141E+02  0.000000000E+00  0.00000E+00  9.000E+00
      25     1     1     2     0     0 -4.611859786E+02 -3.800899691E+02 -2.073462242E+02  6.448087687E+02  1.250000000E+02  0.00000E+00  9.000E+00
      25     1     1     2     0     0  5.889040346E+02  4.110175971E+02  1.418943434E+03  1.595233179E+03  1.250000000E+02  0.00000E+00  9.000E+00
      21     1     1     2   512   501 -1.277180560E+02 -3.092762794E+01 -5.099808783E+00  1.315082813E+02  2.939421655E-06  0.00000E+00  9.000E+00
#rwgt            1           1   3.0054725780000898E-002           4      272430           0
</event>
<event>
      5   9999  3.19816E-02  1.17650E+02 -1.00000E+00  1.20734E-01
      21    -1     0     0   502   501  0.000000000E+00  0.000000000E+00  7.204464744E+02  7.204464744E+02  0.000000000E+00  0.00000E+00  9.000E+00
      21    -1     0     0   511   502  0.000000000E+00  0.000000000E+00 -1.879783623E+03  1.879783623E+03  0.000000000E+00  0.00000E+00  9.000E+00
      25     1     1     2     0     0  7.947394317E+01  5.262660785E+02 -6.812748213E+01  5.509432338E+02  1.250000000E+02  0.00000E+00  9.000E+00
      25     1     1     2     0     0 -1.655709460E+02 -4.460856398E+02  3.496948098E+02  6.035872730E+02  1.250000000E+02  0.00000E+00  9.000E+00
      21     1     1     2   511   501  8.609700284E+01 -8.018043868E+01 -1.440904476E+03  1.445699590E+03  1.525878906E-05  0.00000E+00  9.000E+00
#rwgt            1           1   2.4712444160733451E-002           4      272574           0
</event>
<event>
      5   9999  3.19816E-02  4.73758E+01 -1.00000E+00  1.40425E-01
      21    -1     0     0   502   501  0.000000000E+00  0.000000000E+00  1.585550067E+03  1.585550067E+03  0.000000000E+00  0.00000E+00  9.000E+00
      21    -1     0     0   512   502  0.000000000E+00  0.000000000E+00 -3.056225271E+02  3.056225271E+02  0.000000000E+00  0.00000E+00  9.000E+00
      25     1     1     2     0     0  2.960940292E+02 -2.393542259E+02  1.073505917E+03  1.145863026E+03  1.250000000E+02  0.00000E+00  9.000E+00
      25     1     1     2     0     0 -2.559747121E+02  2.645515242E+02  3.930079165E+02  5.528026634E+02  1.250000000E+02  0.00000E+00  9.000E+00
      21     1     1     2   512   501 -4.011931702E+01 -2.519729835E+01 -1.865862938E+02  1.925069050E+02  4.672030912E-06  0.00000E+00  9.000E+00
#rwgt            1           1   2.4778019278280758E-002           4      272655           0
</event>
<event>
      5   9999  3.19816E-02  4.44305E+01 -1.00000E+00  1.42066E-01
      21    -1     0     0   502   501  0.000000000E+00  0.000000000E+00  5.800692598E+01  5.800692598E+01  0.000000000E+00  0.00000E+00  9.000E+00
       2    -1     0     0   501     0  0.000000000E+00  0.000000000E+00 -4.209439133E+03  4.209439133E+03  0.000000000E+00  0.00000E+00  9.000E+00
      25     1     1     2     0     0 -9.111977561E+01 -1.989205558E+02 -2.489716708E+03  2.502436111E+03  1.250000000E+02  0.00000E+00  9.000E+00
      25     1     1     2     0     0  1.050257328E+02  2.411187801E+02 -3.622184209E+02  4.647535423E+02  1.250000000E+02  0.00000E+00  9.000E+00
       2     1     1     2   502     0 -1.390595714E+01 -4.219822428E+01 -1.299497078E+03  1.300256406E+03  2.157918644E-05  0.00000E+00  9.000E+00
#rwgt            1           1   4.4027100900847181E-002           4      272771           0
</event>
<event>
      5   9999  3.19816E-02  5.50123E+01 -1.00000E+00  1.36749E-01
      21    -1     0     0   502   501  0.000000000E+00  0.000000000E+00  4.708676197E+02  4.708676197E+02  0.000000000E+00  0.00000E+00  9.000E+00
       2    -1     0     0   501     0  0.000000000E+00  0.000000000E+00 -1.547317147E+03  1.547317147E+03  0.000000000E+00  0.00000E+00  9.000E+00
      25     1     1     2     0     0  4.669501370E+02  3.565393323E+01  4.209077582E+00  4.847229619E+02  1.250000000E+02  0.00000E+00  9.000E+00
      25     1     1     2     0     0 -5.169172370E+02 -5.866787496E+01 -9.154252677E+01  5.428170812E+02  1.250000000E+02  0.00000E+00  9.000E+00
       2     1     1     2   502     0  4.996709994E+01  2.301394174E+01 -9.891160780E+02  9.906447236E+02  0.000000000E+00  0.00000E+00  9.000E+00
#rwgt            1           1   2.9977981702765853E-002           4      272899           0
</event>
<event>
      5   9999  3.19816E-02  1.99498E+02 -1.00000E+00  1.11688E-01
      21    -1     0     0   502   501  0.000000000E+00  0.000000000E+00  9.900699032E+02  9.900699032E+02  0.000000000E+00  0.00000E+00  9.000E+00
      21    -1     0     0   501   511  0.000000000E+00  0.000000000E+00 -3.259447474E+02  3.259447474E+02  0.000000000E+00  0.00000E+00  9.000E+00
      25     1     1     2     0     0  2.812560078E+02 -1.431435869E+02  2.311561592E+02  4.106740780E+02  1.250000000E+02  0.00000E+00  9.000E+00
      25     1     1     2     0     0 -1.393697238E+02  2.833850896E+02  5.698568553E+02  6.633949536E+02  1.250000000E+02  0.00000E+00  9.000E+00
      21     1     1     2   502   511 -1.418862840E+02 -1.402415027E+02 -1.368878587E+02  2.419456189E+02  3.303624740E-06  0.00000E+00  9.000E+00
#rwgt            1           1   2.9246101088520601E-002           4      273069           0
</event>
<event>
      5   9999  3.19816E-02  2.30176E+01 -1.00000E+00  1.61486E-01
      21    -1     0     0   502   512  0.000000000E+00  0.000000000E+00  9.001884747E+01  9.001884747E+01  0.000000000E+00  0.00000E+00  9.000E+00
      21    -1     0     0   501   502  0.000000000E+00  0.000000000E+00 -5.594996275E+02  5.594996275E+02  0.000000000E+00  0.00000E+00  9.000E+00
      25     1     1     2     0     0  9.404586064E+01  4.585537337E+01 -4.207665639E+02  4.512392275E+02  1.250000000E+02  0.00000E+00  9.000E+00
      25     1     1     2     0     0 -1.101499646E+02 -2.940951258E+01 -4.311048294E+01  1.745893693E+02  1.250000000E+02  0.00000E+00  9.000E+00
      21     1     1     2   501   512  1.610410396E+01 -1.644586078E+01 -5.603733204E+00  2.368987816E+01  4.298152060E-07  0.00000E+00  9.000E+00
#rwgt            1           1   3.2549035737387377E-002           4      273099           0
</event>
<event>
      5   9999  3.19816E-02  8.88187E+01 -1.00000E+00  1.26189E-01
      21    -1     0     0   502   501  0.000000000E+00  0.000000000E+00  9.297595892E+02  9.297595892E+02  0.000000000E+00  0.00000E+00  9.000E+00
      21    -1     0     0   501   511  0.000000000E+00  0.000000000E+00 -2.896519363E+02  2.896519363E+02  0.000000000E+00  0.00000E+00  9.000E+00
      25     1     1     2     0     0 -2.666255901E+02 -7.801506452E+01  6.071021120E+01  3.106224160E+02  1.250000000E+02  0.00000E+00  9.000E+00
      25     1     1     2     0     0  2.545921827E+02  1.660148165E+02  6.915857343E+02  7.656983262E+02  1.250000000E+02  0.00000E+00  9.000E+00
      21     1     1     2   502   511  1.203340737E+01 -8.799975199E+01 -1.121882926E+02  1.430907832E+02  1.907348633E-06  0.00000E+00  9.000E+00
#rwgt            1           1   2.7396385981753802E-002           4      273209           0
</event>
<event>
      5   9999  3.19816E-02  1.73542E+02 -1.00000E+00  1.13938E-01
      21    -1     0     0   502   501  0.000000000E+00  0.000000000E+00  5.930785113E+02  5.930785113E+02  0.000000000E+00  0.00000E+00  9.000E+00
      21    -1     0     0   512   502  0.000000000E+00  0.000000000E+00 -2.489502106E+03  2.489502106E+03  0.000000000E+00  0.00000E+00  9.000E+00
      25     1     1     2     0     0 -2.538603521E+02 -1.003487417E+03 -5.239683639E+02  1.166876137E+03  1.250000000E+02  0.00000E+00  9.000E+00
      25     1     1     2     0     0  1.398375541E+02  1.134314699E+03 -1.090525714E+03  1.584643717E+03  1.250000000E+02  0.00000E+00  9.000E+00
      21     1     1     2   512   501  1.140227979E+02 -1.308272821E+02 -2.819295176E+02  3.310607634E+02  5.394796609E-06  0.00000E+00  9.000E+00
#rwgt            2          11   5.8740207464451381E-003           4      273283           0
</event>
<event>
      5   9999  3.19816E-02  1.67403E+02 -1.00000E+00  1.14535E-01
      21    -1     0     0   502   501  0.000000000E+00  0.000000000E+00  1.571924128E+03  1.571924128E+03  0.000000000E+00  0.00000E+00  9.000E+00
      21    -1     0     0   501   511  0.000000000E+00  0.000000000E+00 -1.182502690E+02  1.182502690E+02  0.000000000E+00  0.00000E+00  9.000E+00
      25     1     1     2     0     0  1.144650696E+02 -2.716198597E+02  6.839363311E+02  7.551645551E+02  1.250000000E+02  0.00000E+00  9.000E+00
      25     1     1     2     0     0  3.383914020E+01  1.939685211E+02  7.252045042E+02  7.617843839E+02  1.250000000E+02  0.00000E+00  9.000E+00
      21     1     1     2   502   511 -1.483042098E+02  7.765133862E+01  4.453302355E+01  1.732254578E+02  1.430511475E-06  0.00000E+00  9.000E+00
#rwgt            1           1   2.7037717801917084E-002           4      273318           0
</event>
<event>
      5   9999  3.19816E-02  2.14794E+02 -1.00000E+00  1.10531E-01
       2    -1     0     0   502     0  0.000000000E+00  0.000000000E+00  1.941580578E+03  1.941580578E+03  0.000000000E+00  0.00000E+00  9.000E+00
      21    -1     0     0   501   502  0.000000000E+00  0.000000000E+00 -1.414520907E+02  1.414520907E+02  0.000000000E+00  0.00000E+00  9.000E+00
      25     1     1     2     0     0  2.150083015E+02 -3.796415741E+02  3.997857705E+02  6.048222522E+02  1.250000000E+02  0.00000E+00  9.000E+00
      25     1     1     2     0     0 -1.057914701E+02  1.946867870E+02  8.566365239E+02  8.936139627E+02  1.250000000E+02  0.00000E+00  9.000E+00
       2     1     1     2   501     0 -1.092168313E+02  1.849547871E+02  5.437061934E+02  5.845964542E+02  0.000000000E+00  0.00000E+00  9.000E+00
#rwgt            1           1   2.6561798823447304E-002           4      273371           0
</event>
<event>
      5   9999  3.19816E-02  2.31152E+02 -1.00000E+00  1.09406E-01
      21    -1     0     0   502   501  0.000000000E+00  0.000000000E+00  9.755238591E+02  9.755238591E+02  0.000000000E+00  0.00000E+00  9.000E+00
       2    -1     0     0   501     0  0.000000000E+00  0.000000000E+00 -1.265157705E+03  1.265157705E+03  0.000000000E+00  0.00000E+00  9.000E+00
      25     1     1     2     0     0 -3.843658861E+02  2.519754225E+02  1.937067854E+02  5.141751322E+02  1.250000000E+02  0.00000E+00  9.000E+00
      25     1     1     2     0     0  1.843466475E+02 -3.678356072E+02  5.326434264E+02  6.845587923E+02  1.250000000E+02  0.00000E+00  9.000E+00
       2     1     1     2   502     0  2.000192386E+02  1.158601848E+02 -1.015984058E+03  1.041947640E+03  1.078959322E-05  0.00000E+00  9.000E+00
#rwgt            2          13   3.2145389855282053E-003           4      273524           0
</event>
<event>
      5   9999  3.19816E-02  7.40884E+00 -1.00000E+00  2.12127E-01
      21    -1     0     0   502   501  0.000000000E+00  0.000000000E+00  5.285753993E+01  5.285753993E+01  0.000000000E+00  0.00000E+00  9.000E+00
      21    -1     0     0   501   511  0.000000000E+00  0.000000000E+00 -2.030517761E+03  2.030517761E+03  0.000000000E+00  0.00000E+00  9.000E+00
      25     1     1     2     0     0  9.016788028E+01  8.690916658E+01 -1.765816653E+03  1.774659658E+03  1.250000000E+02  0.00000E+00  9.000E+00
      25     1     1     2     0     0 -9.724259025E+01 -8.910901764E+01 -1.226990005E+02  2.192637295E+02  1.250000000E+02  0.00000E+00  9.000E+00
      21     1     1     2   502   511  7.074709968E+00  2.199851053E+00 -8.914456825E+01  8.945191398E+01  9.536743164E-07  0.00000E+00  9.000E+00
#rwgt            1           1   2.5529968640996357E-002           4      273543           0
</event>
<event>
      5   9999  3.19816E-02  8.01329E+00 -1.00000E+00  2.07576E-01
      21    -1     0     0   502   501  0.000000000E+00  0.000000000E+00  3.307637060E+02  3.307637060E+02  0.000000000E+00  0.00000E+00  9.000E+00
       2    -1     0     0   501     0  0.000000000E+00  0.000000000E+00 -1.554972419E+02  1.554972419E+02  0.000000000E+00  0.00000E+00  9.000E+00
      25     1     1     2     0     0  6.477555427E+00 -5.146185926E+01  1.733023012E+01  1.364390654E+02  1.250000000E+02  0.00000E+00  9.000E+00
      25     1     1     2     0     0 -4.888387501E-01  5.678615265E+01  2.350944820E+02  2.722486393E+02  1.250000000E+02  0.00000E+00  9.000E+00
       2     1     1     2   502     0 -5.988716677E+00 -5.324293397E+00 -7.715824805E+01  7.757324326E+01  2.132480600E-06  0.00000E+00  9.000E+00
#rwgt            1           1   1.9505750515318280E-002           4      273872           0
</event>
<event>
      5   9999  3.19816E-02  1.84821E+01 -1.00000E+00  1.69248E-01
      21    -1     0     0   502   501  0.000000000E+00  0.000000000E+00  3.831121058E+02  3.831121058E+02  0.000000000E+00  0.00000E+00  9.000E+00
      21    -1     0     0   501   511  0.000000000E+00  0.000000000E+00 -1.510369368E+02  1.510369368E+02  0.000000000E+00  0.00000E+00  9.000E+00
      25     1     1     2     0     0 -7.033636245E+00 -3.940407058E+01 -7.647230378E+01  1.519051219E+02  1.250000000E+02  0.00000E+00  9.000E+00
      25     1     1     2     0     0  2.027281777E+00  5.719517791E+01  3.278571498E+02  3.555147098E+02  1.250000000E+02  0.00000E+00  9.000E+00
      21     1     1     2   502   511  5.006354468E+00 -1.779110733E+01 -1.930967707E+01  2.672921087E+01  0.000000000E+00  0.00000E+00  9.000E+00
#rwgt            1           1   3.1432880013180779E-002           4      274063           0
</event>
<event>
      5   9999  3.19816E-02  1.50961E+02 -1.00000E+00  1.16284E-01
      21    -1     0     0   502   512  0.000000000E+00  0.000000000E+00  3.166233903E+03  3.166233903E+03  0.000000000E+00  0.00000E+00  9.000E+00
      21    -1     0     0   501   502  0.000000000E+00  0.000000000E+00 -1.196943626E+02  1.196943626E+02  0.000000000E+00  0.00000E+00  9.000E+00
      25     1     1     2     0     0 -3.578002121E+02  2.688315549E+02  1.212257416E+03  1.298262085E+03  1.250000000E+02  0.00000E+00  9.000E+00
      25     1     1     2     0     0  5.062586144E+02 -2.414604035E+02  1.133929447E+03  1.271228501E+03  1.250000000E+02  0.00000E+00  9.000E+00
      21     1     1     2   501   512 -1.484584023E+02 -2.737115143E+01  7.003526766E+02  7.164376796E+02  1.078959322E-05  0.00000E+00  9.000E+00
#rwgt            2          11   5.0521422300174685E-003           4      274197           0
</event>
<event>
      5   9999  3.19816E-02  1.02891E+02 -1.00000E+00  1.23274E-01
      21    -1     0     0   502   501  0.000000000E+00  0.000000000E+00  2.869609764E+02  2.869609764E+02  0.000000000E+00  0.00000E+00  9.000E+00
      21    -1     0     0   501   511  0.000000000E+00  0.000000000E+00 -3.500270001E+02  3.500270001E+02  0.000000000E+00  0.00000E+00  9.000E+00
      25     1     1     2     0     0 -1.069691647E+02 -5.338053424E+01  1.109100575E+02  2.054700087E+02  1.250000000E+02  0.00000E+00  9.000E+00
      25     1     1     2     0     0  6.326408103E+01  1.465275301E+02  2.818909349E+01  2.046760514E+02  1.250000000E+02  0.00000E+00  9.000E+00
      21     1     1     2   502   511  4.370508363E+01 -9.314699584E+01 -2.021651747E+02  2.268419164E+02  2.697398305E-06  0.00000E+00  9.000E+00
#rwgt            1           1   3.0976616865327343E-002           4      274232           0
</event>
<event>
      5   9999  3.19816E-02  2.31574E+01 -1.00000E+00  1.61282E-01
      21    -1     0     0   512   501  0.000000000E+00  0.000000000E+00  1.284337523E+02  1.284337523E+02  0.000000000E+00  0.00000E+00  9.000E+00
      21    -1     0     0   501   502  0.000000000E+00  0.000000000E+00 -1.893117862E+03  1.893117862E+03  0.000000000E+00  0.00000E+00  9.000E+00
      25     1     1     2     0     0 -2.297546737E+01 -2.465067171E+02 -5.679372015E+01  2.830970864E+02  1.250000000E+02  0.00000E+00  9.000E+00
      25     1     1     2     0     0  6.486519787E+00  2.302468936E+02 -1.687101059E+03  1.707334381E+03  1.250000000E+02  0.00000E+00  9.000E+00
      21     1     1     2   512   502  1.648894758E+01  1.625982352E+01 -2.078933077E+01  3.112014664E+01  3.371747881E-07  0.00000E+00  9.000E+00
#rwgt            1           1   2.9482552192233277E-002           4      274302           0
</event>
<event>
      5   9999  3.19816E-02  6.48081E+02 -1.00000E+00  9.57535E-02
       2    -1     0     0   502     0  0.000000000E+00  0.000000000E+00  1.847509530E+03  1.847509530E+03  0.000000000E+00  0.00000E+00  9.000E+00
      21    -1     0     0   501   502  0.000000000E+00  0.000000000E+00 -1.033223710E+03  1.033223710E+03  0.000000000E+00  0.00000E+00  9.000E+00
      25     1     1     2     0     0 -1.437166396E+02 -3.352740424E+01 -3.790563179E+01  1.970796698E+02  1.250000000E+02  0.00000E+00  9.000E+00
      25     1     1     2     0     0  7.768369461E+02 -1.049178184E+02 -6.639155233E+02  1.034839220E+03  1.250000000E+02  0.00000E+00  9.000E+00
       2     1     1     2   501     0 -6.331203065E+02  1.384452227E+02  1.516106975E+03  1.648814350E+03  2.157918644E-05  0.00000E+00  9.000E+00
#rwgt            2          18   3.0754318256819547E-003           4      274526           0
</event>
<event>
      5   9999  3.19816E-02  9.20161E+01 -1.00000E+00  1.25475E-01
      21    -1     0     0   511   501  0.000000000E+00  0.000000000E+00  1.052180536E+03  1.052180536E+03  0.000000000E+00  0.00000E+00  9.000E+00
      21    -1     0     0   501   502  0.000000000E+00  0.000000000E+00 -1.489791021E+03  1.489791021E+03  0.000000000E+00  0.00000E+00  9.000E+00
      25     1     1     2     0     0  3.863199404E+02  6.509392800E+01 -3.906629403E+02  5.672061783E+02  1.250000000E+02  0.00000E+00  9.000E+00
      25     1     1     2     0     0 -3.554154644E+02  2.157710867E+01 -9.732770748E+02  1.043876903E+03  1.250000000E+02  0.00000E+00  9.000E+00
      21     1     1     2   511   502 -3.090447602E+01 -8.667103667E+01  9.263295299E+02  9.308884752E+02  1.078959322E-05  0.00000E+00  9.000E+00
#rwgt            1           1   3.5236620481355709E-002           4      274575           0
</event>
<event>
      5   9999  3.19816E-02  5.10274E+01 -1.00000E+00  1.38573E-01
      21    -1     0     0   502   512  0.000000000E+00  0.000000000E+00  6.148058529E+01  6.148058529E+01  0.000000000E+00  0.00000E+00  9.000E+00
      21    -1     0     0   501   502  0.000000000E+00  0.000000000E+00 -1.840088347E+03  1.840088347E+03  0.000000000E+00  0.00000E+00  9.000E+00
      25     1     1     2     0     0 -2.414088827E+02  1.338200552E+02 -1.016568621E+03  1.060765203E+03  1.250000000E+02  0.00000E+00  9.000E+00
      25     1     1     2     0     0  2.300539714E+02 -8.407203808E+01 -7.311581140E+02  7.811594747E+02  1.250000000E+02  0.00000E+00  9.000E+00
      21     1     1     2   501   512  1.135491138E+01 -4.974801711E+01 -3.088102664E+01  5.964425391E+01  1.877309769E-06  0.00000E+00  9.000E+00
#rwgt            1           1   3.1731376843038173E-002           4      274728           0
</event>
<event>
      5   9999  3.19816E-02  4.85052E+01 -1.00000E+00  1.39832E-01
      21    -1     0     0   511   501  0.000000000E+00  0.000000000E+00  2.438782384E+03  2.438782384E+03  0.000000000E+00  0.00000E+00  9.000E+00
      21    -1     0     0   501   502  0.000000000E+00  0.000000000E+00 -2.169471376E+01  2.169471376E+01  0.000000000E+00  0.00000E+00  9.000E+00
      25     1     1     2     0     0  1.143387046E+02 -2.357744918E+01  4.510482253E+02  4.823885747E+02  1.250000000E+02  0.00000E+00  9.000E+00
      25     1     1     2     0     0 -1.098830021E+02 -2.472267842E+01  1.607823310E+03  1.616603316E+03  1.250000000E+02  0.00000E+00  9.000E+00
      21     1     1     2   511   502 -4.455702509E+00  4.830012759E+01  3.582161350E+02  3.614852071E+02  6.607249480E-06  0.00000E+00  9.000E+00
#rwgt            2          11   3.1977184542837937E-003           4      274840           0
</event>
<event>
      5   9999  3.19816E-02  4.67903E+00 -1.00000E+00  2.48393E-01
      21    -1     0     0   512   501  0.000000000E+00  0.000000000E+00  9.570402614E+02  9.570402614E+02  0.000000000E+00  0.00000E+00  9.000E+00
      21    -1     0     0   501   502  0.000000000E+00  0.000000000E+00 -3.020820084E+02  3.020820084E+02  0.000000000E+00  0.00000E+00  9.000E+00
      25     1     1     2     0     0  2.180467602E+01 -2.636119859E+02 -1.986779238E+02  3.536447941E+02  1.250000000E+02  0.00000E+00  9.000E+00
      25     1     1     2     0     0 -2.648165107E+01  2.637506106E+02  8.062972815E+02  8.579079022E+02  1.250000000E+02  0.00000E+00  9.000E+00
      21     1     1     2   512   502  4.676975052E+00 -1.386247646E-01  4.733889527E+01  4.756957344E+01  6.743495762E-07  0.00000E+00  9.000E+00
#rwgt            1           1   2.5646429511112855E-002           4      274860           0
</event>
<event>
      5   9999  3.19816E-02  1.68785E+01 -1.00000E+00  1.72688E-01
      21    -1     0     0   502   501  0.000000000E+00  0.000000000E+00  2.327049194E+02  2.327049194E+02  0.000000000E+00  0.00000E+00  9.000E+00
       1    -1     0     0   501     0  0.000000000E+00  0.000000000E+00 -9.644303830E+02  9.644303830E+02  0.000000000E+00  0.00000E+00  9.000E+00
      25     1     1     2     0     0 -8.565642341E+01 -1.006692075E+02 -1.086420361E+02  2.118947952E+02  1.250000000E+02  0.00000E+00  9.000E+00
      25     1     1     2     0     0  1.024369331E+02  9.885296540E+01  1.314076692E+02  2.305606418E+02  1.250000000E+02  0.00000E+00  9.000E+00
       1     1     1     2   502     0 -1.678050968E+01  1.816242122E+00 -7.544910967E+02  7.546798654E+02  1.078959322E-05  0.00000E+00  9.000E+00
#rwgt            1           1   2.3252668652695558E-002           4      275324           0
</event>
<event>
      5   9999  3.19816E-02  1.80542E+01 -1.00000E+00  1.70122E-01
      21    -1     0     0   502   501  0.000000000E+00  0.000000000E+00  2.241974525E+02  2.241974525E+02  0.000000000E+00  0.00000E+00  9.000E+00
      21    -1     0     0   511   502  0.000000000E+00  0.000000000E+00 -1.059565267E+03  1.059565267E+03  0.000000000E+00  0.00000E+00  9.000E+00
      25     1     1     2     0     0 -3.438091550E+02 -2.739784734E+02 -5.893455579E+02  7.458030072E+02  1.250000000E+02  0.00000E+00  9.000E+00
      25     1     1     2     0     0  3.536280826E+02  2.588277739E+02 -2.193485145E+02  5.057503418E+02  1.250000000E+02  0.00000E+00  9.000E+00
      21     1     1     2   511   501 -9.818927605E+00  1.515069953E+01 -2.667374206E+01  3.220937055E+01  4.768371582E-07  0.00000E+00  9.000E+00
#rwgt            1           1   2.8320482662733938E-002           4      275460           0
</event>
<event>
      5   9999  3.19816E-02  3.14514E+02 -1.00000E+00  1.04930E-01
      21    -1     0     0   502   512  0.000000000E+00  0.000000000E+00  2.590593857E+02  2.590593857E+02  0.000000000E+00  0.00000E+00  9.000E+00
      21    -1     0     0   501   502  0.000000000E+00  0.000000000E+00 -1.610834156E+03  1.610834156E+03  0.000000000E+00  0.00000E+00  9.000E+00
      25     1     1     2     0     0  5.213340660E+01 -1.521218386E+02 -9.279388216E+02  9.500286325E+02  1.250000000E+02  0.00000E+00  9.000E+00
      25     1     1     2     0     0  1.247338842E+01  4.599289189E+02 -3.636821121E+02  5.996497932E+02  1.250000000E+02  0.00000E+00  9.000E+00
      21     1     1     2   501   512 -6.460679502E+01 -3.078070803E+02 -6.015383691E+01  3.202151163E+02  7.417845338E-06  0.00000E+00  9.000E+00
#rwgt            1           1   2.3871917135115713E-002           4      275717           0
</event>
<event>
      5   9999  3.19816E-02  2.56590E+01 -1.00000E+00  1.57909E-01
      21    -1     0     0   502   511  0.000000000E+00  0.000000000E+00  4.382651643E+02  4.382651643E+02  0.000000000E+00  0.00000E+00  9.000E+00
      21    -1     0     0   501   502  0.000000000E+00  0.000000000E+00 -1.408103903E+02  1.408103903E+02  0.000000000E+00  0.00000E+00  9.000E+00
      25     1     1     2     0     0  2.327478847E+01 -1.632125824E+02  1.512164118E+01  2.074457203E+02  1.250000000E+02  0.00000E+00  9.000E+00
      25     1     1     2     0     0 -1.106913982E+00  1.761342800E+02  2.533949825E+02  3.329542416E+02  1.250000000E+02  0.00000E+00  9.000E+00
      21     1     1     2   501   511 -2.216787449E+01 -1.292169760E+01  2.893815031E+01  3.867559271E+01  5.840038640E-07  0.00000E+00  9.000E+00
#rwgt            1           1   2.6273081454869611E-002           4      275755           0
</event>
<event>
      5   9999  3.19816E-02  1.58874E+02 -1.00000E+00  1.15413E-01
      21    -1     0     0   502   501  0.000000000E+00  0.000000000E+00  1.118909045E+03  1.118909045E+03  0.000000000E+00  0.00000E+00  9.000E+00
      21    -1     0     0   501   512  0.000000000E+00  0.000000000E+00 -1.527339427E+02  1.527339427E+02  0.000000000E+00  0.00000E+00  9.000E+00
      25     1     1     2     0     0  1.745926366E+02  1.339500917E+01  7.392159531E+01  2.274893784E+02  1.250000000E+02  0.00000E+00  9.000E+00
      25     1     1     2     0     0 -9.389475544E+01  1.234579123E+02  8.590534258E+02  8.818479855E+02  1.250000000E+02  0.00000E+00  9.000E+00
      21     1     1     2   502   512 -8.069788116E+01 -1.368529215E+02  3.320008134E+01  1.623056239E+02  1.784161275E-06  0.00000E+00  9.000E+00
#rwgt            1           1   2.7134767521610287E-002           4      275867           0
</event>
<event>
      5   9999  3.19816E-02  8.99021E+01 -1.00000E+00  1.25944E-01
      21    -1     0     0   502   501  0.000000000E+00  0.000000000E+00  2.384684482E+02  2.384684482E+02  0.000000000E+00  0.00000E+00  9.000E+00
      21    -1     0     0   501   511  0.000000000E+00  0.000000000E+00 -2.158011381E+02  2.158011381E+02  0.000000000E+00  0.00000E+00  9.000E+00
      25     1     1     2     0     0 -1.299088298E+01 -1.460510730E+02 -6.636644857E+00  1.927919190E+02  1.250000000E+02  0.00000E+00  9.000E+00
      25     1     1     2     0     0 -5.971086845E+01  9.316592660E+01  3.781644320E+01  1.711734824E+02  1.250000000E+02  0.00000E+00  9.000E+00
      21     1     1     2   502   511  7.270175143E+01  5.288514640E+01 -8.512488181E+00  9.030418498E+01  1.305872339E-06  0.00000E+00  9.000E+00
#rwgt            1           1   2.4803163924466829E-002           4      275905           0
</event>
<event>
      5   9999  3.19816E-02  2.37962E+01 -1.00000E+00  1.60373E-01
       2    -1     0     0   502     0  0.000000000E+00  0.000000000E+00  4.736938799E+02  4.736938799E+02  0.000000000E+00  0.00000E+00  9.000E+00
      21    -1     0     0   501   502  0.000000000E+00  0.000000000E+00 -1.333585425E+02  1.333585425E+02  0.000000000E+00  0.00000E+00  9.000E+00
      25     1     1     2     0     0  1.677764961E+02  7.988841954E+00  3.156177987E+02  3.787510648E+02  1.250000000E+02  0.00000E+00  9.000E+00
      25     1     1     2     0     0 -1.444662376E+02 -3.204581968E+00 -3.872360320E+00  1.911040511E+02  1.250000000E+02  0.00000E+00  9.000E+00
       2     1     1     2   501     0 -2.331025843E+01 -4.784259986E+00  2.858989894E+01  3.719730653E+01  0.000000000E+00  0.00000E+00  9.000E+00
#rwgt            1           1   2.6119724198483005E-002           4      275975           0
</event>
<event>
      5   9999  3.51287E-02  4.66411E+02 -1.00000E+00  9.97176E-02
       1    -1     0     0   502     0  0.000000000E+00  0.000000000E+00  3.429174005E+03  3.429174005E+03  0.000000000E+00  0.00000E+00  9.000E+00
      21    -1     0     0   501   502  0.000000000E+00  0.000000000E+00 -1.734342230E+02  1.734342230E+02  0.000000000E+00  0.00000E+00  9.000E+00
      25     1     1     2     0     0 -6.734417725E+02 -4.674274415E+00  1.021566462E+03  1.229946628E+03  1.250000000E+02  0.00000E+00  9.000E+00
      25     1     1     2     0     0  2.175576076E+02 -9.385913016E+01  4.096632788E+02  4.894791629E+02  1.250000000E+02  0.00000E+00  9.000E+00
       1     1     1     2   501     0  4.558841649E+02  9.853340457E+01  1.824510041E+03  1.883182438E+03  2.157918644E-05  0.00000E+00  9.000E+00
#rwgt            1           1   3.3815996361888201E-002           4      276066           0
</event>
<event>
      5   9999  3.19816E-02  2.52507E+02 -1.00000E+00  1.08082E-01
      21    -1     0     0   502   501  0.000000000E+00  0.000000000E+00  4.836552699E+02  4.836552699E+02  0.000000000E+00  0.00000E+00  9.000E+00
      -3    -1     0     0     0   502  0.000000000E+00  0.000000000E+00 -4.323742282E+02  4.323742282E+02  0.000000000E+00  0.00000E+00  9.000E+00
      25     1     1     2     0     0 -7.179210069E+01  2.840414128E+02  1.824954874E+02  3.671011207E+02  1.250000000E+02  0.00000E+00  9.000E+00
      25     1     1     2     0     0  4.975280240E+01 -3.249820961E+01 -2.375619129E+02  2.749402434E+02  1.250000000E+02  0.00000E+00  9.000E+00
      -3     1     1     2     0   501  2.203929829E+01 -2.515432032E+02  1.063474673E+02  2.739881340E+02  2.697398305E-06  0.00000E+00  9.000E+00
#rwgt            1           1   2.6963993376272040E-002           4      276110           0
</event>
<event>
      5   9999  3.19816E-02  3.28100E+01 -1.00000E+00  1.50387E-01
      21    -1     0     0   502   501  0.000000000E+00  0.000000000E+00  7.324969278E+02  7.324969278E+02  0.000000000E+00  0.00000E+00  9.000E+00
      21    -1     0     0   501   511  0.000000000E+00  0.000000000E+00 -5.896670630E+02  5.896670630E+02  0.000000000E+00  0.00000E+00  9.000E+00
      25     1     1     2     0     0 -4.872711181E+01 -4.188532658E+02  4.183562906E+02  6.070085466E+02  1.250000000E+02  0.00000E+00  9.000E+00
      25     1     1     2     0     0  2.337030892E+01  4.396746758E+02 -2.063417099E+01  4.581601913E+02  1.250000000E+02  0.00000E+00  9.000E+00
      21     1     1     2   502   511  2.535680289E+01 -2.082140991E+01 -2.548922547E+02  2.569952531E+02  4.672030912E-06  0.00000E+00  9.000E+00
#rwgt            1           1   3.0003804038245041E-002           4      276158           0
</event>
<event>
      5   9999  3.19816E-02  5.81079E+02 -1.00000E+00  9.70326E-02
      21    -1     0     0   502   501  0.000000000E+00  0.000000000E+00  6.333142221E+02  6.333142221E+02  0.000000000E+00  0.00000E+00  9.000E+00
       1    -1     0     0   501     0  0.000000000E+00  0.000000000E+00 -4.323248859E+03  4.323248859E+03  0.000000000E+00  0.00000E+00  9.000E+00
      25     1     1     2     0     0 -8.615539132E+02  8.313056355E+02 -1.432703137E+03  1.871258262E+03  1.250000000E+02  0.00000E+00  9.000E+00
      25     1     1     2     0     0  6.452997986E+02 -1.370644732E+03 -1.694431156E+03  2.276356903E+03  1.250000000E+02  0.00000E+00  9.000E+00
       1     1     1     2   502     0  2.162541146E+02  5.393390960E+02 -5.628003442E+02  8.089479155E+02  7.629394531E-06  0.00000E+00  9.000E+00
#rwgt            2          12   2.4739360159054158E-003           4      276314           0
</event>
<event>
      5   9999  3.19816E-02  3.90326E+02 -1.00000E+00  1.02006E-01
      21    -1     0     0   511   501  0.000000000E+00  0.000000000E+00  1.947889589E+03  1.947889589E+03  0.000000000E+00  0.00000E+00  9.000E+00
      21    -1     0     0   501   502  0.000000000E+00  0.000000000E+00 -1.673084112E+03  1.673084112E+03  0.000000000E+00  0.00000E+00  9.000E+00
      25     1     1     2     0     0  4.738927709E+02  7.356586506E+02  6.135989481E+02  1.076056075E+03  1.250000000E+02  0.00000E+00  9.000E+00
      25     1     1     2     0     0 -8.472374613E+02 -6.217822950E+02 -1.199620733E+03  1.599731053E+03  1.250000000E+02  0.00000E+00  9.000E+00
      21     1     1     2   511   502  3.733446905E+02 -1.138763555E+02  8.608272619E+02  9.451865726E+02  0.000000000E+00  0.00000E+00  9.000E+00
#rwgt            2          11   2.0765921890182996E-003           4      276528           0
</event>
<event>
      5   9999  3.19816E-02  8.37416E+01 -1.00000E+00  1.27396E-01
      21    -1     0     0   502   501  0.000000000E+00  0.000000000E+00  4.178778550E+01  4.178778550E+01  0.000000000E+00  0.00000E+00  9.000E+00
      21    -1     0     0   501   512  0.000000000E+00  0.000000000E+00 -2.739853928E+03  2.739853928E+03  0.000000000E+00  0.00000E+00  9.000E+00
      25     1     1     2     0     0  1.966137124E+02 -1.336548147E+02 -7.532035089E+02  7.996631086E+02  1.250000000E+02  0.00000E+00  9.000E+00
      25     1     1     2     0     0 -1.650543190E+02  2.112219918E+02 -1.598742501E+03  1.625872148E+03  1.250000000E+02  0.00000E+00  9.000E+00
      21     1     1     2   502   512 -3.155939345E+01 -7.756717708E+01 -3.461201330E+02  3.561064571E+02  3.814697266E-06  0.00000E+00  9.000E+00
#rwgt            1           1   8.2982928309522502E-002           4      276563           0
</event>
<event>
      5   9999  3.19816E-02  6.12457E+02 -1.00000E+00  9.64119E-02
      21    -1     0     0   511   501  0.000000000E+00  0.000000000E+00  4.317204436E+02  4.317204436E+02  0.000000000E+00  0.00000E+00  9.000E+00
      21    -1     0     0   501   502  0.000000000E+00  0.000000000E+00 -1.679516731E+03  1.679516731E+03  0.000000000E+00  0.00000E+00  9.000E+00
      25     1     1     2     0     0 -6.914844308E+02 -2.550949823E+02 -9.016310118E+02  1.171233388E+03  1.250000000E+02  0.00000E+00  9.000E+00
      25     1     1     2     0     0  8.058903593E+01  2.113905876E+02 -6.753218620E+01  2.671444729E+02  1.250000000E+02  0.00000E+00  9.000E+00
      21     1     1     2   511   502  6.108953949E+02  4.370439477E+01 -2.786330895E+02  6.728593138E+02  6.607249480E-06  0.00000E+00  9.000E+00
#rwgt            2          11   1.8221339570872281E-003           4      276633           0
</event>
<event>
      5   9999  3.19816E-02  2.30997E+01 -1.00000E+00  1.61366E-01
      21    -1     0     0   502   501  0.000000000E+00  0.000000000E+00  1.417410363E+03  1.417410363E+03  0.000000000E+00  0.00000E+00  9.000E+00
      21    -1     0     0   501   512  0.000000000E+00  0.000000000E+00 -1.836129185E+01  1.836129185E+01  0.000000000E+00  0.00000E+00  9.000E+00
      25     1     1     2     0     0  6.551584518E+01 -6.564664231E+01  6.882056043E+02  7.055875293E+02  1.250000000E+02  0.00000E+00  9.000E+00
      25     1     1     2     0     0 -4.491932987E+01  5.518811586E+01  6.151765185E+02  6.317678555E+02  1.250000000E+02  0.00000E+00  9.000E+00
      21     1     1     2   502   512 -2.059651531E+01  1.045852645E+01  9.566694824E+01  9.841627002E+01  1.348699152E-06  0.00000E+00  9.000E+00
#rwgt            1           1   4.6548457201697625E-002           4      276653           0
</event>
<event>
      5   9999  3.19816E-02  1.11725E+02 -1.00000E+00  1.21700E-01
      21    -1     0     0   502   511  0.000000000E+00  0.000000000E+00  2.517779643E+03  2.517779643E+03  0.000000000E+00  0.00000E+00  9.000E+00
      21    -1     0     0   501   502  0.000000000E+00  0.000000000E+00 -1.478824896E+03  1.478824896E+03  0.000000000E+00  0.00000E+00  9.000E+00
      25     1     1     2     0     0 -7.441078431E+02  9.694447599E+02  5.115499008E+02  1.330724587E+03  1.250000000E+02  0.00000E+00  9.000E+00
      25     1     1     2     0     0  8.078356883E+02 -1.061212313E+03 -6.459901502E+02  1.487177981E+03  1.250000000E+02  0.00000E+00  9.000E+00
      21     1     1     2   501   511 -6.372784519E+01  9.176755281E+01  1.173394996E+03  1.178701972E+03  2.157918644E-05  0.00000E+00  9.000E+00
#rwgt            1           1   5.3053577068826130E-002           4      276712           0
</event>
<event>
      5   9999  3.19816E-02  1.75543E+02 -1.00000E+00  1.13750E-01
      21    -1     0     0   502   501  0.000000000E+00  0.000000000E+00  6.252743758E+02  6.252743758E+02  0.000000000E+00  0.00000E+00  9.000E+00
      21    -1     0     0   512   502  0.000000000E+00  0.000000000E+00 -3.374002550E+02  3.374002550E+02  0.000000000E+00  0.00000E+00  9.000E+00
      25     1     1     2     0     0  9.087801210E+01  1.867869200E+02 -1.291378664E+01  2.427754775E+02  1.250000000E+02  0.00000E+00  9.000E+00
      25     1     1     2     0     0  8.006861926E+01 -1.468781051E+02  4.457475643E+02  4.922398324E+02  1.250000000E+02  0.00000E+00  9.000E+00
      21     1     1     2   512   501 -1.709466314E+02 -3.990881491E+01 -1.449596569E+02  2.276593209E+02  3.814697266E-06  0.00000E+00  9.000E+00
#rwgt            1           1   2.6781367894413089E-002           4      276851           0
</event>
<event>
      5   9999  3.19816E-02  2.29159E+01 -1.00000E+00  1.61635E-01
      21    -1     0     0   502   501  0.000000000E+00  0.000000000E+00  1.235856576E+03  1.235856576E+03  0.000000000E+00  0.00000E+00  9.000E+00
      21    -1     0     0   511   502  0.000000000E+00  0.000000000E+00 -4.232030271E+02  4.232030271E+02  0.000000000E+00  0.00000E+00  9.000E+00
      25     1     1     2     0     0  4.840199515E+02 -7.175330198E-01 -1.614697256E+02  5.253316101E+02  1.250000000E+02  0.00000E+00  9.000E+00
      25     1     1     2     0     0 -5.047385087E+02  1.050933131E+01  9.805364863E+02  1.109931624E+03  1.250000000E+02  0.00000E+00  9.000E+00
      21     1     1     2   511   501  2.071855719E+01 -9.791798295E+00 -6.413211517E+00  2.379636964E+01  3.475518164E-07  0.00000E+00  9.000E+00
#rwgt            1           1   1.5580205948911638E-002           4      276909           0
</event>
<event>
      5   9999  3.19816E-02  2.81202E+01 -1.00000E+00  1.55018E-01
      21    -1     0     0   512   501  0.000000000E+00  0.000000000E+00  9.028911092E+02  9.028911092E+02  0.000000000E+00  0.00000E+00  9.000E+00
      21    -1     0     0   501   502  0.000000000E+00  0.000000000E+00 -1.840425296E+03  1.840425296E+03  0.000000000E+00  0.00000E+00  9.000E+00
      25     1     1     2     0     0  4.854755342E+02  1.197361922E+02 -1.113609650E+03  1.227100119E+03  1.250000000E+02  0.00000E+00  9.000E+00
      25     1     1     2     0     0 -5.131550130E+02 -1.246952686E+02 -5.598805987E+02  7.797231959E+02  1.250000000E+02  0.00000E+00  9.000E+00
      21     1     1     2   512   502  2.767947882E+01  4.959076398E+00  7.359560622E+02  7.364930899E+02  1.078959322E-05  0.00000E+00  9.000E+00
#rwgt            1           1   2.7879351508798767E-002           4      277105           0
</event>
<event>
      5   9999  3.19816E-02  1.13844E+02 -1.00000E+00  1.21347E-01
      21    -1     0     0   511   501  0.000000000E+00  0.000000000E+00  1.474974255E+02  1.474974255E+02  0.000000000E+00  0.00000E+00  9.000E+00
      21    -1     0     0   501   502  0.000000000E+00  0.000000000E+00 -1.069015611E+03  1.069015611E+03  0.000000000E+00  0.00000E+00  9.000E+00
      25     1     1     2     0     0  1.515671848E+02  2.735936500E+02 -7.306230543E+02  8.045254156E+02  1.250000000E+02  0.00000E+00  9.000E+00
      25     1     1     2     0     0 -5.688123485E+01 -2.103878733E+02 -1.303482263E+02  2.830445057E+02  1.250000000E+02  0.00000E+00  9.000E+00
      21     1     1     2   511   502 -9.468594995E+01 -6.320577671E+01 -6.054690527E+01  1.289431156E+02  3.234066955E-06  0.00000E+00  9.000E+00
#rwgt            1           1   2.7886252333635141E-002           4      277301           0
</event>
<event>
      5   9999  3.19816E-02  9.75189E+01 -1.00000E+00  1.24321E-01
      21    -1     0     0   502   512  0.000000000E+00  0.000000000E+00  1.011604701E+03  1.011604701E+03  0.000000000E+00  0.00000E+00  9.000E+00
      21    -1     0     0   501   502  0.000000000E+00  0.000000000E+00 -5.244401316E+02  5.244401316E+02  0.000000000E+00  0.00000E+00  9.000E+00
      25     1     1     2     0     0  9.150128434E+01 -5.290257792E+02 -8.784828330E+01  5.581962746E+02  1.250000000E+02  0.00000E+00  9.000E+00
      25     1     1     2     0     0 -2.399303127E+01  4.586513114E+02  9.162677194E+01  4.847237939E+02  1.250000000E+02  0.00000E+00  9.000E+00
      21     1     1     2   501   512 -6.750825307E+01  7.037446775E+01  4.833860807E+02  4.931247640E+02  9.344061824E-06  0.00000E+00  9.000E+00
#rwgt            1           1   2.6655792383126813E-002           4      277353           0
</event>
<event>
      5   9999  3.19816E-02  7.43224E+00 -1.00000E+00  2.11940E-01
      21    -1     0     0   502   501  0.000000000E+00  0.000000000E+00  2.840923851E+02  2.840923851E+02  0.000000000E+00  0.00000E+00  9.000E+00
      21    -1     0     0   511   502  0.000000000E+00  0.000000000E+00 -2.849446235E+02  2.849446235E+02  0.000000000E+00  0.00000E+00  9.000E+00
      25     1     1     2     0     0  4.052358814E+01 -1.599375105E+02  1.734675952E+02  2.700706852E+02  1.250000000E+02  0.00000E+00  9.000E+00
      25     1     1     2     0     0 -4.273360608E+01  1.528414541E+02 -1.020794355E+02  2.263446096E+02  1.250000000E+02  0.00000E+00  9.000E+00
      21     1     1     2   511   501  2.210017944E+00  7.096056402E+00 -7.224039807E+01  7.262171376E+01  1.907348633E-06  0.00000E+00  9.000E+00
#rwgt            1           1   2.7370361301378342E-002           4      277455           0
</event>
<event>
      5   9999  3.19816E-02  6.71459E+01 -1.00000E+00  1.32143E-01
      21    -1     0     0   512   501  0.000000000E+00  0.000000000E+00  1.842970198E+03  1.842970198E+03  0.000000000E+00  0.00000E+00  9.000E+00
      21    -1     0     0   501   502  0.000000000E+00  0.000000000E+00 -1.025816697E+02  1.025816697E+02  0.000000000E+00  0.00000E+00  9.000E+00
      25     1     1     2     0     0  1.792213125E+02 -1.330212328E+02  1.101057560E+02  2.785017141E+02  1.250000000E+02  0.00000E+00  9.000E+00
      25     1     1     2     0     0 -1.409258487E+02  1.881757860E+02  1.064398100E+03  1.097195761E+03  1.250000000E+02  0.00000E+00  9.000E+00
      21     1     1     2   512   502 -3.829546383E+01 -5.515455315E+01  5.658846722E+02  5.698543933E+02  0.000000000E+00  0.00000E+00  9.000E+00
#rwgt            2          11   1.1979385175627105E-003           4      277866           0
</event>
<event>
      5   9999  3.19816E-02  1.89607E+02 -1.00000E+00  1.12498E-01
      21    -1     0     0   502   501  0.000000000E+00  0.000000000E+00  8.239093456E+02  8.239093456E+02  0.000000000E+00  0.00000E+00  9.000E+00
      21    -1     0     0   511   502  0.000000000E+00  0.000000000E+00 -3.643437994E+02  3.643437994E+02  0.000000000E+00  0.00000E+00  9.000E+00
      25     1     1     2     0     0 -2.550125089E+02  4.253696521E+02  3.226140953E+02  6.047111501E+02  1.250000000E+02  0.00000E+00  9.000E+00
      25     1     1     2     0     0  2.529056214E+02 -2.357743589E+02  1.413133317E+02  3.938848301E+02  1.250000000E+02  0.00000E+00  9.000E+00
      21     1     1     2   511   501  2.106887560E+00 -1.895952931E+02 -4.361880730E+00  1.896571648E+02  2.168003735E-06  0.00000E+00  9.000E+00
#rwgt            1           1   2.9052972873954037E-002           4      277886           0
</event>
<event>
      5   9999  3.19816E-02  2.89718E+02 -1.00000E+00  1.06086E-01
      21    -1     0     0   502   501  0.000000000E+00  0.000000000E+00  4.554595227E+02  4.554595227E+02  0.000000000E+00  0.00000E+00  9.000E+00
      21    -1     0     0   501   512  0.000000000E+00  0.000000000E+00 -3.847927517E+02  3.847927517E+02  0.000000000E+00  0.00000E+00  9.000E+00
      25     1     1     2     0     0 -2.563954034E+01  4.260536301E+01  1.835791116E+02  2.275937021E+02  1.250000000E+02  0.00000E+00  9.000E+00
      25     1     1     2     0     0 -2.632798009E+02 -6.409755344E+01  8.490672662E+00  2.985328147E+02  1.250000000E+02  0.00000E+00  9.000E+00
      21     1     1     2   502   512  2.889193412E+02  2.149219043E+01 -1.214030133E+02  3.141257576E+02  7.008046368E-06  0.00000E+00  9.000E+00
#rwgt            1           1   2.8691001757084948E-002           4      277942           0
</event>
<event>
      5   9999  3.19816E-02  2.25179E+01 -1.00000E+00  1.62229E-01
      21    -1     0     0   502   501  0.000000000E+00  0.000000000E+00  1.234830475E+02  1.234830475E+02  0.000000000E+00  0.00000E+00  9.000E+00
      21    -1     0     0   511   502  0.000000000E+00  0.000000000E+00 -1.021997159E+03  1.021997159E+03  0.000000000E+00  0.00000E+00  9.000E+00
      25     1     1     2     0     0  1.705965114E+02  1.464231608E+02 -3.525609737E+02  4.364254253E+02  1.250000000E+02  0.00000E+00  9.000E+00
      25     1     1     2     0     0 -1.833722267E+02 -1.278803157E+02 -1.205971952E+02  2.831032182E+02  1.250000000E+02  0.00000E+00  9.000E+00
      21     1     1     2   511   501  1.277571531E+01 -1.854284507E+01 -4.253559431E+02  4.259515634E+02  5.394796609E-06  0.00000E+00  9.000E+00
#rwgt            1           1   3.3488226835468315E-002           4      277976           0
</event>
<event>
      5   9999  3.19816E-02  5.90641E+01 -1.00000E+00  1.35069E-01
      21    -1     0     0   502   501  0.000000000E+00  0.000000000E+00  6.943417198E+02  6.943417198E+02  0.000000000E+00  0.00000E+00  9.000E+00
      21    -1     0     0   512   502  0.000000000E+00  0.000000000E+00 -9.097946673E+01  9.097946673E+01  0.000000000E+00  0.00000E+00  9.000E+00
      25     1     1     2     0     0  1.171882032E+02  2.366559187E+00  9.115265066E+01  1.940940012E+02  1.250000000E+02  0.00000E+00  9.000E+00
      25     1     1     2     0     0 -6.165915598E+01  1.776040873E+01  5.132690671E+02  5.321535670E+02  1.250000000E+02  0.00000E+00  9.000E+00
      21     1     1     2   512   501 -5.552904722E+01 -2.012696792E+01 -1.059464655E+00  5.907361837E+01  9.771344847E-08  0.00000E+00  9.000E+00
#rwgt            1           1   2.6107702170363324E-002           4      278085           0
</event>
<event>
      5   9999  3.19816E-02  4.42472E+01 -1.00000E+00  1.42174E-01
      21    -1     0     0   502   501  0.000000000E+00  0.000000000E+00  1.808088210E+02  1.808088210E+02  0.000000000E+00  0.00000E+00  9.000E+00
      21    -1     0     0   511   502  0.000000000E+00  0.000000000E+00 -1.643131199E+02  1.643131199E+02  0.000000000E+00  0.00000E+00  9.000E+00
      25     1     1     2     0     0 -5.727646042E+00 -3.727607754E+01 -2.808089177E+01  1.335509205E+02  1.250000000E+02  0.00000E+00  9.000E+00
      25     1     1     2     0     0 -3.021543877E+01  6.308130184E+01  7.117227171E+01  1.599459773E+02  1.250000000E+02  0.00000E+00  9.000E+00
      21     1     1     2   511   501  3.594308481E+01 -2.580522430E+01 -2.659567880E+01  5.162504313E+01  6.743495762E-07  0.00000E+00  9.000E+00
#rwgt            1           1   3.0988297184557968E-002           4      278207           0
</event>
<event>
      5   9999  3.19816E-02  1.31389E+01 -1.00000E+00  1.82981E-01
      21    -1     0     0   502   501  0.000000000E+00  0.000000000E+00  1.180003804E+03  1.180003804E+03  0.000000000E+00  0.00000E+00  9.000E+00
      21    -1     0     0   512   502  0.000000000E+00  0.000000000E+00 -1.614395916E+03  1.614395916E+03  0.000000000E+00  0.00000E+00  9.000E+00
      25     1     1     2     0     0  1.121804009E+03 -4.234214086E+02  4.521417001E+02  1.287550791E+03  1.250000000E+02  0.00000E+00  9.000E+00
      25     1     1     2     0     0 -1.108871314E+03  4.257400942E+02 -8.443585532E+02  1.462674463E+03  1.250000000E+02  0.00000E+00  9.000E+00
      21     1     1     2   512   501 -1.293269487E+01 -2.318685549E+00 -4.217525919E+01  4.417446533E+01  4.768371582E-07  0.00000E+00  9.000E+00
#rwgt            1           1   6.0669414572264303E-002           4      278289           0
</event>
<event>
      5   9999  3.19816E-02  3.28113E+01 -1.00000E+00  1.50386E-01
      21    -1     0     0   511   501  0.000000000E+00  0.000000000E+00  5.328699143E+02  5.328699143E+02  0.000000000E+00  0.00000E+00  9.000E+00
      21    -1     0     0   501   502  0.000000000E+00  0.000000000E+00 -2.510452907E+02  2.510452907E+02  0.000000000E+00  0.00000E+00  9.000E+00
      25     1     1     2     0     0 -1.544770753E+02  1.555809795E+02  1.021157376E+02  2.722521475E+02  1.250000000E+02  0.00000E+00  9.000E+00
      25     1     1     2     0     0  1.464195274E+02 -1.873875889E+02 -5.536972172E+01  2.743056554E+02  1.250000000E+02  0.00000E+00  9.000E+00
      21     1     1     2   511   502  8.057547933E+00  3.180660946E+01  2.350786078E+02  2.373574021E+02  3.814697266E-06  0.00000E+00  9.000E+00
#rwgt            1           1   2.9349109168664168E-002           4      278653           0
</event>
<event>
      5   9999  3.19816E-02  3.74115E+01 -1.00000E+00  1.46665E-01
      21    -1     0     0   502   512  0.000000000E+00  0.000000000E+00  1.741499692E+03  1.741499692E+03  0.000000000E+00  0.00000E+00  9.000E+00
      21    -1     0     0   501   502  0.000000000E+00  0.000000000E+00 -5.831542699E+01  5.831542699E+01  0.000000000E+00  0.00000E+00  9.000E+00
      25     1     1     2     0     0  1.038115355E+02  3.778108468E+01  1.006456404E+02  1.948301573E+02  1.250000000E+02  0.00000E+00  9.000E+00
      25     1     1     2     0     0 -9.046405965E+01 -2.831590188E+00  5.359211918E+02  5.576991015E+02  1.250000000E+02  0.00000E+00  9.000E+00
      21     1     1     2   501   512 -1.334747586E+01 -3.494949450E+01  1.046617433E+03  1.047285861E+03  1.525878906E-05  0.00000E+00  9.000E+00
#rwgt            1           1   2.4699436675071549E-002           4      278792           0
</event>
<event>
      5   9999  3.19816E-02  2.00547E+02 -1.00000E+00  1.11605E-01
      21    -1     0     0   502   501  0.000000000E+00  0.000000000E+00  6.917266390E+02  6.917266390E+02  0.000000000E+00  0.00000E+00  9.000E+00
       2    -1     0     0   501     0  0.000000000E+00  0.000000000E+00 -1.282118848E+03  1.282118848E+03  0.000000000E+00  0.00000E+00  9.000E+00
      25     1     1     2     0     0  8.135074117E+01 -4.406900078E+02  4.458779840E+02  6.444049990E+02  1.250000000E+02  0.00000E+00  9.000E+00
      25     1     1     2     0     0 -1.393509228E+02  2.487130504E+02 -4.077990166E+01  3.139504125E+02  1.250000000E+02  0.00000E+00  9.000E+00
       2     1     1     2   502     0  5.800018165E+01  1.919769574E+02 -9.954902916E+02  1.015490076E+03  1.078959322E-05  0.00000E+00  9.000E+00
#rwgt            1           1   2.8679433917082855E-002           4      278890           0
</event>
<event>
      5   9999  3.19816E-02  2.20051E+02 -1.00000E+00  1.10158E-01
      21    -1     0     0   511   501  0.000000000E+00  0.000000000E+00  5.753534828E+02  5.753534828E+02  0.000000000E+00  0.00000E+00  9.000E+00
      21    -1     0     0   501   502  0.000000000E+00  0.000000000E+00 -1.669092862E+03  1.669092862E+03  0.000000000E+00  0.00000E+00  9.000E+00
      25     1     1     2     0     0 -1.470376842E+02  2.931016258E+01 -9.101379755E+02  9.308358076E+02  1.250000000E+02  0.00000E+00  9.000E+00
      25     1     1     2     0     0  3.632137789E+02 -7.042621839E+01 -6.723904934E+02  7.775719111E+02  1.250000000E+02  0.00000E+00  9.000E+00
      21     1     1     2   511   502 -2.161760946E+02  4.111605582E+01  4.887890899E+02  5.360386258E+02  1.321449896E-05  0.00000E+00  9.000E+00
#rwgt            1           1   2.7169495531103174E-002           4      278947           0
</event>
<event>
      5   9999  3.19816E-02  1.59731E+02 -1.00000E+00  1.15322E-01
      21    -1     0     0   502   512  0.000000000E+00  0.000000000E+00  4.484855509E+02  4.484855509E+02  0.000000000E+00  0.00000E+00  9.000E+00
      21    -1     0     0   501   502  0.000000000E+00  0.000000000E+00 -2.515230756E+02  2.515230756E+02  0.000000000E+00  0.00000E+00  9.000E+00
      25     1     1     2     0     0  1.795456607E+01 -1.139288140E+02  5.847642908E+01  1.798516996E+02  1.250000000E+02  0.00000E+00  9.000E+00
      25     1     1     2     0     0  3.891505824E+01  2.631935904E+02 -2.065329894E+01  2.946808554E+02  1.250000000E+02  0.00000E+00  9.000E+00
      21     1     1     2   501   512 -5.686962431E+01 -1.492647764E+02  1.591393451E+02  2.254760715E+02  2.697398305E-06  0.00000E+00  9.000E+00
#rwgt            1           1   2.7975059067721946E-002           4      278983           0
</event>
<event>
      5   9999  3.19816E-02  1.92512E+01 -1.00000E+00  1.67748E-01
      21    -1     0     0   502   511  0.000000000E+00  0.000000000E+00  9.056259843E+02  9.056259843E+02  0.000000000E+00  0.00000E+00  9.000E+00
      21    -1     0     0   501   502  0.000000000E+00  0.000000000E+00 -8.535323835E+01  8.535323835E+01  0.000000000E+00  0.00000E+00  9.000E+00
      25     1     1     2     0     0  1.951871949E+01 -1.352963064E+02  5.229624464E+01  1.924732920E+02  1.250000000E+02  0.00000E+00  9.000E+00
      25     1     1     2     0     0 -1.705305764E+01  1.543889403E+02  7.053557263E+02  7.329928050E+02  1.250000000E+02  0.00000E+00  9.000E+00
      21     1     1     2   501   511 -2.465661844E+00 -1.909263396E+01  6.262077505E+01  6.551312562E+01  6.743495762E-07  0.00000E+00  9.000E+00
#rwgt            1           1   2.5890706675202373E-002           4      279045           0
</event>
<event>
      5   9999  3.19816E-02  7.63556E+01 -1.00000E+00  1.29337E-01
       2    -1     0     0   502     0  0.000000000E+00  0.000000000E+00  5.525624038E+02  5.525624038E+02  0.000000000E+00  0.00000E+00  9.000E+00
      21    -1     0     0   501   502  0.000000000E+00  0.000000000E+00 -1.780225344E+02  1.780225344E+02  0.000000000E+00  0.00000E+00  9.000E+00
      25     1     1     2     0     0 -2.567150198E+02  1.888356122E+01  1.635123601E+02  3.295762161E+02  1.250000000E+02  0.00000E+00  9.000E+00
      25     1     1     2     0     0  1.861214237E+02 -4.798202657E+01  6.845845699E+01  2.392802114E+02  1.250000000E+02  0.00000E+00  9.000E+00
       2     1     1     2   501     0  7.059359610E+01  2.909846535E+01  1.425690523E+02  1.617285107E+02  0.000000000E+00  0.00000E+00  9.000E+00
#rwgt            1           1   2.3098126971525818E-002           4      279145           0
</event>
<event>
      5   9999  3.19816E-02  2.38007E+01 -1.00000E+00  1.60367E-01
      21    -1     0     0   502   511  0.000000000E+00  0.000000000E+00  6.084655737E+02  6.084655737E+02  0.000000000E+00  0.00000E+00  9.000E+00
      21    -1     0     0   501   502  0.000000000E+00  0.000000000E+00 -6.079470112E+02  6.079470112E+02  0.000000000E+00  0.00000E+00  9.000E+00
      25     1     1     2     0     0 -2.303994650E+02 -2.728382231E+02 -4.657823854E+02  6.000856939E+02  1.250000000E+02  0.00000E+00  9.000E+00
      25     1     1     2     0     0  2.068219020E+02  2.760898599E+02  3.859515614E+02  5.325265417E+02  1.250000000E+02  0.00000E+00  9.000E+00
      21     1     1     2   501   511  2.357756302E+01 -3.251636783E+00  8.034938655E+01  8.380034927E+01  0.000000000E+00  0.00000E+00  9.000E+00
#rwgt            1           1   2.4616220777165253E-002           4      279209           0
</event>
<event>
      5   9999  3.19816E-02  2.90594E+01 -1.00000E+00  1.54007E-01
      21    -1     0     0   502   501  0.000000000E+00  0.000000000E+00  1.042791248E+03  1.042791248E+03  0.000000000E+00  0.00000E+00  9.000E+00
      21    -1     0     0   512   502  0.000000000E+00  0.000000000E+00 -6.343731247E+01  6.343731247E+01  0.000000000E+00  0.00000E+00  9.000E+00
      25     1     1     2     0     0  7.166707930E+01  1.449865674E+02  7.987380001E+02  8.244784217E+02  1.250000000E+02  0.00000E+00  9.000E+00
      25     1     1     2     0     0 -4.595539721E+01 -1.314456370E+02  1.585840863E+02  2.452830334E+02  1.250000000E+02  0.00000E+00  9.000E+00
      21     1     1     2   512   501 -2.571168210E+01 -1.354093046E+01  2.203184868E+01  3.646710504E+01  5.331201500E-07  0.00000E+00  9.000E+00
#rwgt            1           1   2.7690818356563975E-002           4      279373           0
</event>
<event>
      5   9999  3.19816E-02  1.89020E+01 -1.00000E+00  1.68418E-01
      21    -1     0     0   502   511  0.000000000E+00  0.000000000E+00  2.338634324E+02  2.338634324E+02  0.000000000E+00  0.00000E+00  9.000E+00
      21    -1     0     0   501   502  0.000000000E+00  0.000000000E+00 -1.463718456E+02  1.463718456E+02  0.000000000E+00  0.00000E+00  9.000E+00
      25     1     1     2     0     0 -2.290661696E+00  7.702301862E+01  9.775349096E+01  1.764044714E+02  1.250000000E+02  0.00000E+00  9.000E+00
      25     1     1     2     0     0  2.031539492E+01 -8.271448610E+01 -5.042422515E+01  1.594427921E+02  1.250000000E+02  0.00000E+00  9.000E+00
      21     1     1     2   501   511 -1.802473322E+01  5.691467481E+00  4.016232099E+01  4.438801457E+01  0.000000000E+00  0.00000E+00  9.000E+00
#rwgt            1           1   2.8370071736542834E-002           4      279523           0
</event>
<event>
      5   9999  3.19816E-02  6.60399E+02 -1.00000E+00  9.55363E-02
      21    -1     0     0   502   501  0.000000000E+00  0.000000000E+00  5.733025162E+02  5.733025162E+02  0.000000000E+00  0.00000E+00  9.000E+00
       2    -1     0     0   501     0  0.000000000E+00  0.000000000E+00 -1.945617618E+03  1.945617618E+03  0.000000000E+00  0.00000E+00  9.000E+00
      25     1     1     2     0     0  6.062165572E+02 -2.907747030E+02 -2.285950968E+02  7.210611350E+02  1.250000000E+02  0.00000E+00  9.000E+00
      25     1     1     2     0     0  3.718559019E+01  4.396366011E+02  2.087934651E+01  4.590468999E+02  1.250000000E+02  0.00000E+00  9.000E+00
       2     1     1     2   502     0 -6.434021474E+02 -1.488618981E+02 -1.164599352E+03  1.338812100E+03  2.642899792E-05  0.00000E+00  9.000E+00
#rwgt            2          13   1.3544606635732994E-003           4      279655           0
</event>
<event>
      5   9999  3.19816E-02  4.39904E+01 -1.00000E+00  1.42325E-01
      21    -1     0     0   502   501  0.000000000E+00  0.000000000E+00  5.774640825E+02  5.774640825E+02  0.000000000E+00  0.00000E+00  9.000E+00
      -4    -1     0     0     0   502  0.000000000E+00  0.000000000E+00 -1.195138677E+02  1.195138677E+02  0.000000000E+00  0.00000E+00  9.000E+00
      25     1     1     2     0     0 -5.249280844E+01  4.716460728E+01  4.051036744E+02  4.297836458E+02  1.250000000E+02  0.00000E+00  9.000E+00
      25     1     1     2     0     0  2.662920607E+01 -1.158051222E+01  1.272731572E+02  1.807392581E+02  1.250000000E+02  0.00000E+00  9.000E+00
      -4     1     1     2     0   501  2.586360238E+01 -3.558409505E+01 -7.442661684E+01  8.645504637E+01  1.348699152E-06  0.00000E+00  9.000E+00
#rwgt            1           1   4.4312882606729602E-002           4      279689           0
</event>
<event>
      5   9999  3.19816E-02  8.19708E+01 -1.00000E+00  1.27840E-01
      21    -1     0     0   502   511  0.000000000E+00  0.000000000E+00  3.081191808E+02  3.081191808E+02  0.000000000E+00  0.00000E+00  9.000E+00
      21    -1     0     0   501   502  0.000000000E+00  0.000000000E+00 -4.436116865E+02  4.436116865E+02  0.000000000E+00  0.00000E+00  9.000E+00
      25     1     1     2     0     0  1.518950987E+02 -1.350508786E+02 -3.155370718E+02  3.956001826E+02  1.250000000E+02  0.00000E+00  9.000E+00
      25     1     1     2     0     0 -1.773096348E+02  5.711939272E+01  1.191316480E+02  2.540052778E+02  1.250000000E+02  0.00000E+00  9.000E+00
      21     1     1     2   501   511  2.541453603E+01  7.793148588E+01  6.091291813E+01  1.021254069E+02  2.611744678E-06  0.00000E+00  9.000E+00
#rwgt            1           1   2.5778167409868671E-002           4      279782           0
</event>
<event>
      5   9999  3.19816E-02  3.95327E+02 -1.00000E+00  1.01839E-01
       2    -1     0     0   502     0  0.000000000E+00  0.000000000E+00  4.358161122E+02  4.358161122E+02  0.000000000E+00  0.00000E+00  9.000E+00
      21    -1     0     0   501   502  0.000000000E+00  0.000000000E+00 -7.253098089E+02  7.253098089E+02  0.000000000E+00  0.00000E+00  9.000E+00
      25     1     1     2     0     0 -2.703853804E+02  3.425427246E+02 -1.798038089E+02  4.882603627E+02  1.250000000E+02  0.00000E+00  9.000E+00
      25     1     1     2     0     0  2.078237107E+02  4.780216622E+01 -1.255058009E+02  2.772227405E+02  1.250000000E+02  0.00000E+00  9.000E+00
       2     1     1     2   501     0  6.256166972E+01 -3.903448908E+02  1.581591305E+01  3.956428179E+02  6.399662748E-06  0.00000E+00  9.000E+00
#rwgt            2          18   2.9360986922543774E-004           4      279945           0
</event>
<event>
      5   9999  3.19816E-02  2.41977E+01 -1.00000E+00  1.59819E-01
      21    -1     0     0   502   501  0.000000000E+00  0.000000000E+00  1.756168419E+02  1.756168419E+02  0.000000000E+00  0.00000E+00  9.000E+00
      21    -1     0     0   501   511  0.000000000E+00  0.000000000E+00 -7.124953471E+02  7.124953471E+02  0.000000000E+00  0.00000E+00  9.000E+00
      25     1     1     2     0     0 -4.304486972E+01 -2.828418470E+02 -3.560357613E+02  4.735386305E+02  1.250000000E+02  0.00000E+00  9.000E+00
      25     1     1     2     0     0  1.912505612E+01  2.864983123E+02 -9.780519999E+01  3.280821663E+02  1.250000000E+02  0.00000E+00  9.000E+00
      21     1     1     2   502   511  2.391981360E+01 -3.656465315E+00 -8.303754390E+01  8.649139217E+01  0.000000000E+00  0.00000E+00  9.000E+00
#rwgt            1           1   2.8165215070129306E-002           4      279994           0
</event>
<event>
      5   9999  3.19816E-02  2.03386E+01 -1.00000E+00  1.65770E-01
      21    -1     0     0   502   501  0.000000000E+00  0.000000000E+00  1.380016333E+02  1.380016333E+02  0.000000000E+00  0.00000E+00  9.000E+00
      21    -1     0     0   501   512  0.000000000E+00  0.000000000E+00 -2.321235057E+03  2.321235057E+03  0.000000000E+00  0.00000E+00  9.000E+00
      25     1     1     2     0     0 -8.884135086E+01  2.859022661E+02 -8.854165520E+01  3.362997414E+02  1.250000000E+02  0.00000E+00  9.000E+00
      25     1     1     2     0     0  1.080487452E+02 -2.792138358E+02 -1.945817324E+03  1.972679639E+03  1.250000000E+02  0.00000E+00  9.000E+00
      21     1     1     2   502   512 -1.920739434E+01 -6.688430257E+00 -1.488744447E+02  1.502573105E+02  0.000000000E+00  0.00000E+00  9.000E+00
#rwgt            1           1   3.2547292948059380E-002           4      280157           0
</event>
<event>
      5   9999  3.19816E-02  4.30682E+01 -1.00000E+00  1.42877E-01
       2    -1     0     0   502     0  0.000000000E+00  0.000000000E+00  6.447520954E+02  6.447520954E+02  0.000000000E+00  0.00000E+00  9.000E+00
      21    -1     0     0   501   502  0.000000000E+00  0.000000000E+00 -7.258236520E+02  7.258236520E+02  0.000000000E+00  0.00000E+00  9.000E+00
      25     1     1     2     0     0 -6.934744968E+01  4.029261844E+02  2.439829582E+01  4.282275746E+02  1.250000000E+02  0.00000E+00  9.000E+00
      25     1     1     2     0     0  1.041207615E+02 -3.775158306E+02 -4.416871347E+02  6.033836758E+02  1.250000000E+02  0.00000E+00  9.000E+00
       2     1     1     2   501     0 -3.477331178E+01 -2.541035373E+01  3.362172822E+02  3.389644969E+02  0.000000000E+00  0.00000E+00  9.000E+00
#rwgt            1           1   2.5698527024929394E-002           4      280385           0
</event>
<event>
      5   9999  3.19816E-02  4.02264E+01 -1.00000E+00  1.44688E-01
      21    -1     0     0   502   511  0.000000000E+00  0.000000000E+00  1.372750782E+02  1.372750782E+02  0.000000000E+00  0.00000E+00  9.000E+00
      21    -1     0     0   501   502  0.000000000E+00  0.000000000E+00 -4.167143044E+02  4.167143044E+02  0.000000000E+00  0.00000E+00  9.000E+00
      25     1     1     2     0     0 -1.469096441E+02  4.060125736E+01 -1.857076829E+02  2.708195877E+02  1.250000000E+02  0.00000E+00  9.000E+00
      25     1     1     2     0     0  1.143962421E+02 -1.691493066E+01 -1.410117463E+02  2.210925772E+02  1.250000000E+02  0.00000E+00  9.000E+00
      21     1     1     2   501   511  3.251340196E+01 -2.368632670E+01  4.728020291E+01  6.207721777E+01  9.536743164E-07  0.00000E+00  9.000E+00
#rwgt            1           1   2.7622124163003851E-002           4      280516           0
</event>
<event>
      5   9999  3.47828E-02  3.65143E+01 -1.00000E+00  1.47339E-01
      21    -1     0     0   512   501  0.000000000E+00  0.000000000E+00  3.043037574E+02  3.043037574E+02  0.000000000E+00  0.00000E+00  9.000E+00
      21    -1     0     0   501   502  0.000000000E+00  0.000000000E+00 -3.778967518E+02  3.778967518E+02  0.000000000E+00  0.00000E+00  9.000E+00
      25     1     1     2     0     0 -7.178832798E+01 -1.153137106E+02  2.224037321E+02  2.890315484E+02  1.250000000E+02  0.00000E+00  9.000E+00
      25     1     1     2     0     0  5.154892886E+01  1.457054875E+02 -2.961249944E+02  3.566544455E+02  1.250000000E+02  0.00000E+00  9.000E+00
      21     1     1     2   512   502  2.023939912E+01 -3.039177688E+01  1.282678239E-01  3.651451535E+01  5.738035515E-07  0.00000E+00  9.000E+00
#rwgt            1           1   3.3512855086371071E-002           4      280624           0
</event>
<event>
      5   9999  3.19816E-02  2.94821E+01 -1.00000E+00  1.53567E-01
      21    -1     0     0   502   511  0.000000000E+00  0.000000000E+00  3.204574829E+03  3.204574829E+03  0.000000000E+00  0.00000E+00  9.000E+00
      21    -1     0     0   501   502  0.000000000E+00  0.000000000E+00 -9.015723831E+01  9.015723831E+01  0.000000000E+00  0.00000E+00  9.000E+00
      25     1     1     2     0     0 -3.063380247E+01 -1.671546623E+02  4.275416442E+01  2.152487621E+02  1.250000000E+02  0.00000E+00  9.000E+00
      25     1     1     2     0     0  3.533318483E+01  1.380494665E+02  2.601894479E+03  2.608790135E+03  1.250000000E+02  0.00000E+00  9.000E+00
      21     1     1     2   501   511 -4.699382361E+00  2.910519584E+01  4.697689481E+02  4.706931710E+02  0.000000000E+00  0.00000E+00  9.000E+00
#rwgt            1           1   6.9922295269669629E-002           4      280748           0
</event>
<event>
      5   9999  3.19816E-02  5.06499E+01 -1.00000E+00  1.38756E-01
      21    -1     0     0   502   501  0.000000000E+00  0.000000000E+00  2.972944370E+02  2.972944370E+02  0.000000000E+00  0.00000E+00  9.000E+00
      21    -1     0     0   512   502  0.000000000E+00  0.000000000E+00 -1.027009597E+03  1.027009597E+03  0.000000000E+00  0.00000E+00  9.000E+00
      25     1     1     2     0     0 -2.293001101E+02  4.040959683E+02 -5.188672351E+02  7.076159267E+02  1.250000000E+02  0.00000E+00  9.000E+00
      25     1     1     2     0     0  2.784820019E+02 -3.919901341E+02 -1.175687032E+02  5.105446999E+02  1.250000000E+02  0.00000E+00  9.000E+00
      21     1     1     2   512   501 -4.918189174E+01 -1.210583420E+01 -9.327922127E+01  1.061434069E+02  0.000000000E+00  0.00000E+00  9.000E+00
#rwgt            1           1   2.8978449672772941E-002           4      280896           0
</event>
<event>
      5   9999  3.19816E-02  2.51657E+02 -1.00000E+00  1.08132E-01
       2    -1     0     0   502     0  0.000000000E+00  0.000000000E+00  1.651020249E+03  1.651020249E+03  0.000000000E+00  0.00000E+00  9.000E+00
      21    -1     0     0   501   502  0.000000000E+00  0.000000000E+00 -2.769339023E+02  2.769339023E+02  0.000000000E+00  0.00000E+00  9.000E+00
      25     1     1     2     0     0 -2.306827100E+02 -4.117977486E+02  9.164439050E+02  1.038405667E+03  1.250000000E+02  0.00000E+00  9.000E+00
      25     1     1     2     0     0  4.654573939E+01  2.402603806E+02 -8.809817239E+01  2.885790088E+02  1.250000000E+02  0.00000E+00  9.000E+00
       2     1     1     2   501     0  1.841369706E+02  1.715373680E+02  5.457406145E+02  6.009694758E+02  0.000000000E+00  0.00000E+00  9.000E+00
#rwgt            1           1   2.6246522636536696E-002           4      280994           0
</event>
<event>
      5   9999  3.19816E-02  3.55554E+01 -1.00000E+00  1.48086E-01
      21    -1     0     0   511   501  0.000000000E+00  0.000000000E+00  8.746429780E+01  8.746429780E+01  0.000000000E+00  0.00000E+00  9.000E+00
      21    -1     0     0   501   502  0.000000000E+00  0.000000000E+00 -3.096676481E+02  3.096676481E+02  0.000000000E+00  0.00000E+00  9.000E+00
      25     1     1     2     0     0  2.799877847E+01  5.385354307E+00 -2.612761635E+01  1.308456571E+02  1.250000000E+02  0.00000E+00  9.000E+00
      25     1     1     2     0     0 -3.223687022E+01 -4.068728334E+01 -1.846425525E+02  2.289378584E+02  1.250000000E+02  0.00000E+00  9.000E+00
      21     1     1     2   511   502  4.238091748E+00  3.530192903E+01 -1.143318144E+01  3.734843039E+01  5.057621821E-07  0.00000E+00  9.000E+00
#rwgt            1           1   3.1920703854734660E-002           4      281037           0
</event>
<event>
      5   9999  3.19816E-02  7.61024E+01 -1.00000E+00  1.29408E-01
      21    -1     0     0   502   501  0.000000000E+00  0.000000000E+00  7.114621298E+02  7.114621298E+02  0.000000000E+00  0.00000E+00  9.000E+00
      21    -1     0     0   501   512  0.000000000E+00  0.000000000E+00 -1.092097793E+03  1.092097793E+03  0.000000000E+00  0.00000E+00  9.000E+00
      25     1     1     2     0     0  6.657100619E+02  1.890335132E+00 -1.522630287E+02  6.942495876E+02  1.250000000E+02  0.00000E+00  9.000E+00
      25     1     1     2     0     0 -6.967280708E+02  6.760394422E+01  1.471623007E+02  7.261418875E+02  1.250000000E+02  0.00000E+00  9.000E+00
      21     1     1     2   502   512  3.101800890E+01 -6.949427935E+01 -3.755349349E+02  3.831684474E+02  5.394796609E-06  0.00000E+00  9.000E+00
#rwgt            1           1   2.7567504277785034E-002           4      281164           0
</event>
<event>
      5   9999  3.19816E-02  3.93776E+01 -1.00000E+00  1.45264E-01
      21    -1     0     0   502   501  0.000000000E+00  0.000000000E+00  7.401834069E+01  7.401834069E+01  0.000000000E+00  0.00000E+00  9.000E+00
      21    -1     0     0   511   502  0.000000000E+00  0.000000000E+00 -1.977119164E+03  1.977119164E+03  0.000000000E+00  0.00000E+00  9.000E+00
      25     1     1     2     0     0 -1.606007974E+02 -2.585944784E+02 -1.076542460E+03  1.125714168E+03  1.250000000E+02  0.00000E+00  9.000E+00
      25     1     1     2     0     0  1.389783738E+02  2.256845263E+02 -3.937556338E+02  4.908329583E+02  1.250000000E+02  0.00000E+00  9.000E+00
      21     1     1     2   511   501  2.162242358E+01  3.290995213E+01 -4.328027295E+02  4.345903782E+02  7.629394531E-06  0.00000E+00  9.000E+00
#rwgt            1           1   2.8653450819466162E-002           4      281280           0
</event>
<event>
      5   9999  3.19816E-02  1.71036E+01 -1.00000E+00  1.72177E-01
      21    -1     0     0   502   501  0.000000000E+00  0.000000000E+00  1.016305093E+02  1.016305093E+02  0.000000000E+00  0.00000E+00  9.000E+00
      21    -1     0     0   501   512  0.000000000E+00  0.000000000E+00 -1.154535685E+03  1.154535685E+03  0.000000000E+00  0.00000E+00  9.000E+00
      25     1     1     2     0     0  1.877147941E+02  5.875953467E+00 -9.321684622E+02  9.590799824E+02  1.250000000E+02  0.00000E+00  9.000E+00
      25     1     1     2     0     0 -2.035718867E+02 -1.228574839E+01 -7.888348173E+01  2.518730958E+02  1.250000000E+02  0.00000E+00  9.000E+00
      21     1     1     2   502   512  1.585709259E+01  6.409794922E+00 -4.185323133E+01  4.521311567E+01  0.000000000E+00  0.00000E+00  9.000E+00
#rwgt            1           1   2.5654090141158815E-002           4      281390           0
</event>
<event>
      5   9999  3.19816E-02  3.50450E+01 -1.00000E+00  1.48494E-01
      21    -1     0     0   502   501  0.000000000E+00  0.000000000E+00  4.213716560E+02  4.213716560E+02  0.000000000E+00  0.00000E+00  9.000E+00
      21    -1     0     0   501   511  0.000000000E+00  0.000000000E+00 -7.843575923E+02  7.843575923E+02  0.000000000E+00  0.00000E+00  9.000E+00
      25     1     1     2     0     0 -2.365712518E+02 -3.037267058E+02  2.345720746E+02  4.678300195E+02  1.250000000E+02  0.00000E+00  9.000E+00
      25     1     1     2     0     0  2.504078717E+02  2.715288774E+02 -5.794816910E+02  6.984669381E+02  1.250000000E+02  0.00000E+00  9.000E+00
      21     1     1     2   502   511 -1.383661990E+01  3.219782845E+01 -1.807631993E+01  3.943229069E+01  3.371747881E-07  0.00000E+00  9.000E+00
#rwgt            1           1   3.0931504587956973E-002           4      281553           0
</event>
<event>
      5   9999  3.19816E-02  9.26129E+01 -1.00000E+00  1.25346E-01
      21    -1     0     0   502   501  0.000000000E+00  0.000000000E+00  5.504735952E+02  5.504735952E+02  0.000000000E+00  0.00000E+00  9.000E+00
      21    -1     0     0   501   512  0.000000000E+00  0.000000000E+00 -4.885723371E+02  4.885723371E+02  0.000000000E+00  0.00000E+00  9.000E+00
      25     1     1     2     0     0  6.389703229E+01  2.733588751E+02  3.478778672E+02  4.641679824E+02  1.250000000E+02  0.00000E+00  9.000E+00
      25     1     1     2     0     0 -1.539761109E+02 -2.518436882E+02 -5.397282412E+01  3.250722255E+02  1.250000000E+02  0.00000E+00  9.000E+00
      21     1     1     2   502   512  9.007907866E+01 -2.151518691E+01 -2.320037851E+02  2.498057245E+02  3.814697266E-06  0.00000E+00  9.000E+00
#rwgt            1           1   2.5493512905386959E-002           4      281674           0
</event>
<event>
      5   9999  3.19816E-02  1.53452E+02 -1.00000E+00  1.16003E-01
      21    -1     0     0   502   501  0.000000000E+00  0.000000000E+00  8.203749987E+02  8.203749987E+02  0.000000000E+00  0.00000E+00  9.000E+00
      21    -1     0     0   501   511  0.000000000E+00  0.000000000E+00 -2.255965866E+02  2.255965866E+02  0.000000000E+00  0.00000E+00  9.000E+00
      25     1     1     2     0     0 -1.318246165E+02 -2.573267691E+01  3.608658880E+02  4.048321742E+02  1.250000000E+02  0.00000E+00  9.000E+00
      25     1     1     2     0     0  2.117950283E+01  1.320581727E+02  3.846782419E+02  4.260167627E+02  1.250000000E+02  0.00000E+00  9.000E+00
      21     1     1     2   502   511  1.106451137E+02 -1.063254958E+02 -1.507657177E+02  2.151226484E+02  3.303624740E-06  0.00000E+00  9.000E+00
#rwgt            2          11   2.4621743766334209E-002           4      281824           0
</event>
<event>
      5   9999  3.19816E-02  2.03690E+01 -1.00000E+00  1.65717E-01
      21    -1     0     0   502   501  0.000000000E+00  0.000000000E+00  1.481748691E+03  1.481748691E+03  0.000000000E+00  0.00000E+00  9.000E+00
      21    -1     0     0   501   512  0.000000000E+00  0.000000000E+00 -1.994294805E+02  1.994294805E+02  0.000000000E+00  0.00000E+00  9.000E+00
      25     1     1     2     0     0 -2.487007741E+02 -3.237768368E+02  3.591462588E+02  5.579377656E+02  1.250000000E+02  0.00000E+00  9.000E+00
      25     1     1     2     0     0  2.609780153E+02  3.400300201E+02  9.723770039E+02  1.069986905E+03  1.250000000E+02  0.00000E+00  9.000E+00
      21     1     1     2   502   512 -1.227724123E+01 -1.625318332E+01 -4.920405216E+01  5.325350100E+01  2.023048729E-06  0.00000E+00  9.000E+00
#rwgt            1           1   2.7159585293569634E-002           4      281844           0
</event>
<event>
      5   9999  3.19816E-02  7.63484E+01 -1.00000E+00  1.29339E-01
      21    -1     0     0   502   501  0.000000000E+00  0.000000000E+00  2.169253738E+02  2.169253738E+02  0.000000000E+00  0.00000E+00  9.000E+00
      21    -1     0     0   511   502  0.000000000E+00  0.000000000E+00 -2.463349620E+03  2.463349620E+03  0.000000000E+00  0.00000E+00  9.000E+00
      25     1     1     2     0     0 -3.886903835E+02  3.926338319E+02 -1.499851478E+03  1.603253254E+03  1.250000000E+02  0.00000E+00  9.000E+00
      25     1     1     2     0     0  4.136625818E+02 -4.647827825E+02 -4.689714846E+02  7.891128055E+02  1.250000000E+02  0.00000E+00  9.000E+00
      21     1     1     2   511   501 -2.497219835E+01  7.214895065E+01 -2.776012841E+02  2.879089348E+02  3.814697266E-06  0.00000E+00  9.000E+00
#rwgt            1           1   3.4493791236533650E-002           4      282010           0
</event>
<event>
      5   9999  3.19816E-02  7.62233E+01 -1.00000E+00  1.29374E-01
      21    -1     0     0   512   501  0.000000000E+00  0.000000000E+00  6.703704394E+02  6.703704394E+02  0.000000000E+00  0.00000E+00  9.000E+00
      21    -1     0     0   501   502  0.000000000E+00  0.000000000E+00 -9.137642143E+02  9.137642143E+02  0.000000000E+00  0.00000E+00  9.000E+00
      25     1     1     2     0     0  3.364205457E+02  5.813922440E+02  1.059541058E+01  6.833249503E+02  1.250000000E+02  0.00000E+00  9.000E+00
      25     1     1     2     0     0 -3.629248616E+02 -6.528591257E+02 -2.967592727E+02  8.134067612E+02  1.250000000E+02  0.00000E+00  9.000E+00
      21     1     1     2   512   502  2.650431584E+01  7.146688168E+01  4.277008729E+01  8.740294218E+01  9.536743164E-07  0.00000E+00  9.000E+00
#rwgt            1           1   3.2325593178099868E-002           4      282170           0
</event>
<event>
      5   9999  3.19816E-02  1.57508E+02 -1.00000E+00  1.15559E-01
      21    -1     0     0   511   501  0.000000000E+00  0.000000000E+00  1.084869027E+03  1.084869027E+03  0.000000000E+00  0.00000E+00  9.000E+00
      21    -1     0     0   501   502  0.000000000E+00  0.000000000E+00 -3.705119434E+03  3.705119434E+03  0.000000000E+00  0.00000E+00  9.000E+00
      25     1     1     2     0     0  1.016643977E+03 -1.108925099E+03 -1.753798432E+03  2.314025452E+03  1.250000000E+02  0.00000E+00  9.000E+00
      25     1     1     2     0     0 -1.141722914E+03  1.204653573E+03 -1.236709976E+03  2.073595431E+03  1.250000000E+02  0.00000E+00  9.000E+00
      21     1     1     2   511   502  1.250789374E+02 -9.572847488E+01  3.702580004E+02  4.023675787E+02  5.394796609E-06  0.00000E+00  9.000E+00
#rwgt            2          11   4.2809610343858620E-002           4      282395           0
</event>
<event>
      5   9999  3.19816E-02  3.03913E+01 -1.00000E+00  1.52650E-01
       2    -1     0     0   502     0  0.000000000E+00  0.000000000E+00  1.518437244E+03  1.518437244E+03  0.000000000E+00  0.00000E+00  9.000E+00
      21    -1     0     0   501   502  0.000000000E+00  0.000000000E+00 -1.359127249E+02  1.359127249E+02  0.000000000E+00  0.00000E+00  9.000E+00
      25     1     1     2     0     0  2.317005065E+02  6.098404151E+01  4.002111750E+02  4.829059563E+02  1.250000000E+02  0.00000E+00  9.000E+00
      25     1     1     2     0     0 -2.132169303E+02 -3.685960878E+01  7.121605029E+01  2.598399814E+02  1.250000000E+02  0.00000E+00  9.000E+00
       2     1     1     2   501     0 -1.848357618E+01 -2.412443273E+01  9.110972940E+02  9.116040313E+02  1.078959322E-05  0.00000E+00  9.000E+00
#rwgt            1           1   2.7443449227348725E-002           4      282430           0
</event>
<event>
      5   9999  3.19816E-02  4.88489E+01 -1.00000E+00  1.39655E-01
      21    -1     0     0   502   501  0.000000000E+00  0.000000000E+00  4.430784491E+02  4.430784491E+02  0.000000000E+00  0.00000E+00  9.000E+00
       1    -1     0     0   501     0  0.000000000E+00  0.000000000E+00 -3.876365563E+02  3.876365563E+02  0.000000000E+00  0.00000E+00  9.000E+00
      25     1     1     2     0     0  1.438209962E+01 -8.411836531E+01  3.879619346E+02  4.164399199E+02  1.250000000E+02  0.00000E+00  9.000E+00
      25     1     1     2     0     0 -5.946288319E+01  6.530516586E+01 -1.152830350E+02  1.916136147E+02  1.250000000E+02  0.00000E+00  9.000E+00
       1     1     1     2   502     0  4.508078356E+01  1.881319945E+01 -2.172370067E+02  2.226614709E+02  2.697398305E-06  0.00000E+00  9.000E+00
#rwgt            2          12   1.3321572037549654E-004           4      282624           0
</event>
<event>
      5   9999  3.19816E-02  4.85902E+01 -1.00000E+00  1.39788E-01
      21    -1     0     0   502   501  0.000000000E+00  0.000000000E+00  4.096237753E+02  4.096237753E+02  0.000000000E+00  0.00000E+00  9.000E+00
      21    -1     0     0   501   511  0.000000000E+00  0.000000000E+00 -2.170215540E+02  2.170215540E+02  0.000000000E+00  0.00000E+00  9.000E+00
      25     1     1     2     0     0 -1.560022436E+02  1.997359927E+02  1.775783311E+02  3.337517498E+02  1.250000000E+02  0.00000E+00  9.000E+00
      25     1     1     2     0     0  1.143266995E+02 -1.747528275E+02  5.887462949E+00  2.434518580E+02  1.250000000E+02  0.00000E+00  9.000E+00
      21     1     1     2   502   511  4.167554415E+01 -2.498316522E+01  9.136427233E+00  4.944172152E+01  1.192092896E-07  0.00000E+00  9.000E+00
#rwgt            1           1   2.9177119152313209E-002           4      282658           0
</event>
<event>
      5   9999  3.61560E-02  1.97803E+02 -1.00000E+00  1.11823E-01
      21    -1     0     0   502   512  0.000000000E+00  0.000000000E+00  7.521040345E+02  7.521040345E+02  0.000000000E+00  0.00000E+00  9.000E+00
      21    -1     0     0   501   502  0.000000000E+00  0.000000000E+00 -3.824312832E+02  3.824312832E+02  0.000000000E+00  0.00000E+00  9.000E+00
      25     1     1     2     0     0 -6.534951219E+00  2.659529723E+01 -7.953113978E+01  1.506659139E+02  1.250000000E+02  0.00000E+00  9.000E+00
      25     1     1     2     0     0  2.005443163E+02 -6.515083388E+01 -1.929396446E+02  3.119508942E+02  1.250000000E+02  0.00000E+00  9.000E+00
      21     1     1     2   501   512 -1.940093651E+02  3.855553666E+01  6.421435357E+02  6.719185096E+02  1.078959322E-05  0.00000E+00  9.000E+00
#rwgt            1           1   9.4075800264166343E-002           4      282716           0
</event>
<event>
      5   9999  3.19816E-02  1.35413E+01 -1.00000E+00  1.81674E-01
      21    -1     0     0   511   501  0.000000000E+00  0.000000000E+00  8.800280011E+02  8.800280011E+02  0.000000000E+00  0.00000E+00  9.000E+00
      21    -1     0     0   501   502  0.000000000E+00  0.000000000E+00 -1.952718966E+02  1.952718966E+02  0.000000000E+00  0.00000E+00  9.000E+00
      25     1     1     2     0     0  2.711181050E+02 -2.653534918E+02  3.519005801E+02  5.323312134E+02  1.250000000E+02  0.00000E+00  9.000E+00
      25     1     1     2     0     0 -2.837435763E+02  2.702489599E+02  3.051767969E+02  5.121550495E+02  1.250000000E+02  0.00000E+00  9.000E+00
      21     1     1     2   511   502  1.262547129E+01 -4.895468040E+00  2.767872744E+01  3.081363473E+01  0.000000000E+00  0.00000E+00  9.000E+00
#rwgt            1           1   2.8827271111922972E-002           4      282752           0
</event>
<event>
      5   9999  3.19816E-02  2.97408E+02 -1.00000E+00  1.05715E-01
      21    -1     0     0   502   501  0.000000000E+00  0.000000000E+00  3.492392195E+03  3.492392195E+03  0.000000000E+00  0.00000E+00  9.000E+00
      21    -1     0     0   501   512  0.000000000E+00  0.000000000E+00 -8.901630499E+01  8.901630499E+01  0.000000000E+00  0.00000E+00  9.000E+00
      25     1     1     2     0     0 -3.725075383E+01  1.887557524E+02  1.611918025E+03  1.628164940E+03  1.250000000E+02  0.00000E+00  9.000E+00
      25     1     1     2     0     0  2.028298144E+02  5.829712484E+01  1.552426242E+03  1.571684041E+03  1.250000000E+02  0.00000E+00  9.000E+00
      21     1     1     2   502   512 -1.655790606E+02 -2.470528772E+02  2.390316227E+02  3.815595185E+02  3.814697266E-06  0.00000E+00  9.000E+00
#rwgt            2          11   6.3677852538129966E-003           4      282957           0
</event>
<event>
      5   9999  3.19816E-02  1.28663E+02 -1.00000E+00  1.19097E-01
      21    -1     0     0   502   501  0.000000000E+00  0.000000000E+00  3.510039184E+02  3.510039184E+02  0.000000000E+00  0.00000E+00  9.000E+00
      21    -1     0     0   501   511  0.000000000E+00  0.000000000E+00 -3.193259821E+02  3.193259821E+02  0.000000000E+00  0.00000E+00  9.000E+00
      25     1     1     2     0     0  1.349745205E+02 -1.127322024E+02  2.425942322E+02  3.246592555E+02  1.250000000E+02  0.00000E+00  9.000E+00
      25     1     1     2     0     0 -1.714720295E+01  6.105048130E+01 -1.427741070E+02  2.000765690E+02  1.250000000E+02  0.00000E+00  9.000E+00
      21     1     1     2   502   511 -1.178273175E+02  5.168172113E+01 -6.814218895E+01  1.455940760E+02  3.303624740E-06  0.00000E+00  9.000E+00
#rwgt            1           1   2.6799426609705919E-002           4      283007           0
</event>
<event>
      5   9999  3.19816E-02  3.50303E+01 -1.00000E+00  1.48506E-01
      21    -1     0     0   502   501  0.000000000E+00  0.000000000E+00  2.792930929E+03  2.792930929E+03  0.000000000E+00  0.00000E+00  9.000E+00
       1    -1     0     0   501     0  0.000000000E+00  0.000000000E+00 -3.241358309E+03  3.241358309E+03  0.000000000E+00  0.00000E+00  9.000E+00
      25     1     1     2     0     0 -4.232283961E+02  3.081230624E+02  4.464422625E+02  6.992837696E+02  1.250000000E+02  0.00000E+00  9.000E+00
      25     1     1     2     0     0  4.327258990E+02 -3.418413086E+02  2.183961883E+03  2.255974666E+03  1.250000000E+02  0.00000E+00  9.000E+00
       1     1     1     2   502     0 -9.497502978E+00  3.371824623E+01 -3.078831526E+03  3.079030803E+03  6.103515625E-05  0.00000E+00  9.000E+00
#rwgt            1           1   8.7239832651751947E-002           4      283041           0
</event>
<event>
      5   9999  3.19816E-02  2.80805E+01 -1.00000E+00  1.55062E-01
      21    -1     0     0   502   511  0.000000000E+00  0.000000000E+00  1.253356499E+03  1.253356499E+03  0.000000000E+00  0.00000E+00  9.000E+00
      21    -1     0     0   501   502  0.000000000E+00  0.000000000E+00 -5.193545923E+02  5.193545923E+02  0.000000000E+00  0.00000E+00  9.000E+00
      25     1     1     2     0     0  1.652359495E+01  5.349209194E+02 -2.174331470E+02  5.910292654E+02  1.250000000E+02  0.00000E+00  9.000E+00
      25     1     1     2     0     0  5.451165382E+00 -5.524029796E+02  5.853351847E+02  8.145066271E+02  1.250000000E+02  0.00000E+00  9.000E+00
      21     1     1     2   501   511 -2.197476033E+01  1.748206016E+01  3.660998690E+02  3.671751988E+02  5.394796609E-06  0.00000E+00  9.000E+00
#rwgt            1           1   3.0688253537177568E-002           4      283216           0
</event>
<event>
      5   9999  3.19816E-02  8.94084E+00 -1.00000E+00  2.01551E-01
      21    -1     0     0   502   501  0.000000000E+00  0.000000000E+00  1.598399984E+03  1.598399984E+03  0.000000000E+00  0.00000E+00  9.000E+00
      21    -1     0     0   501   512  0.000000000E+00  0.000000000E+00 -4.018041041E+01  4.018041041E+01  0.000000000E+00  0.00000E+00  9.000E+00
      25     1     1     2     0     0 -4.686559684E+01  1.484490341E+02  9.057875673E+02  9.275287689E+02  1.250000000E+02  0.00000E+00  9.000E+00
      25     1     1     2     0     0  4.911187900E+01 -1.571030989E+02  6.645745620E+02  6.959724914E+02  1.250000000E+02  0.00000E+00  9.000E+00
      21     1     1     2   502   512 -2.246282161E+00  8.654064734E+00 -1.214255588E+01  1.507913403E+01  1.130918620E-06  0.00000E+00  9.000E+00
#rwgt            1           1   2.6145022229010051E-002           4      283461           0
</event>
<event>
      5   9999  3.19816E-02  4.55753E+01 -1.00000E+00  1.41411E-01
      21    -1     0     0   502   501  0.000000000E+00  0.000000000E+00  9.315228313E+02  9.315228313E+02  0.000000000E+00  0.00000E+00  9.000E+00
      21    -1     0     0   511   502  0.000000000E+00  0.000000000E+00 -1.522102560E+02  1.522102560E+02  0.000000000E+00  0.00000E+00  9.000E+00
      25     1     1     2     0     0 -2.716927309E+02  1.359696156E+02  3.117751299E+02  4.529165574E+02  1.250000000E+02  0.00000E+00  9.000E+00
      25     1     1     2     0     0  2.274922707E+02 -1.470795375E+02  4.947438068E+02  5.777383127E+02  1.250000000E+02  0.00000E+00  9.000E+00
      21     1     1     2   511   501  4.420046020E+01  1.110992191E+01 -2.720636136E+01  5.307821724E+01  3.371747881E-07  0.00000E+00  9.000E+00
#rwgt            1           1   3.0016164898168343E-002           4      283622           0
</event>
<event>
      5   9999  3.19816E-02  1.26796E+02 -1.00000E+00  1.19362E-01
       2    -1     0     0   502     0  0.000000000E+00  0.000000000E+00  2.673919510E+03  2.673919510E+03  0.000000000E+00  0.00000E+00  9.000E+00
      21    -1     0     0   501   502  0.000000000E+00  0.000000000E+00 -1.167169001E+03  1.167169001E+03  0.000000000E+00  0.00000E+00  9.000E+00
      25     1     1     2     0     0 -8.062156083E+02 -8.589892308E+02 -6.308183870E+02  1.342163531E+03  1.250000000E+02  0.00000E+00  9.000E+00
      25     1     1     2     0     0  6.831257673E+02  8.285585589E+02  1.500756653E+03  1.849612292E+03  1.250000000E+02  0.00000E+00  9.000E+00
       2     1     1     2   501     0  1.230898410E+02  3.043067188E+01  6.368122429E+02  6.493126885E+02  7.629394531E-06  0.00000E+00  9.000E+00
#rwgt            2          18   4.1461560081482102E-003           4      283961           0
</event>
<event>
      5   9999  3.19816E-02  3.75669E+01 -1.00000E+00  1.46551E-01
      21    -1     0     0   502   501  0.000000000E+00  0.000000000E+00  1.602944244E+02  1.602944244E+02  0.000000000E+00  0.00000E+00  9.000E+00
      21    -1     0     0   511   502  0.000000000E+00  0.000000000E+00 -3.606284900E+02  3.606284900E+02  0.000000000E+00  0.00000E+00  9.000E+00
      25     1     1     2     0     0 -8.287670753E+01 -5.791649657E+01  7.426328420E+01  1.770957498E+02  1.250000000E+02  0.00000E+00  9.000E+00
      25     1     1     2     0     0  4.560904935E+01  5.318409551E+01 -1.268403881E+02  1.913693221E+02  1.250000000E+02  0.00000E+00  9.000E+00
      21     1     1     2   511   501  3.726765819E+01  4.732401062E+00 -1.477569618E+02  1.524578424E+02  1.907348633E-06  0.00000E+00  9.000E+00
#rwgt            1           1   2.5166123390710376E-002           4      283980           0
</event>
<event>
      5   9999  3.19816E-02  3.56054E+01 -1.00000E+00  1.48046E-01
      21    -1     0     0   502   501  0.000000000E+00  0.000000000E+00  7.663300972E+01  7.663300972E+01  0.000000000E+00  0.00000E+00  9.000E+00
      21    -1     0     0   512   502  0.000000000E+00  0.000000000E+00 -3.575352407E+03  3.575352407E+03  0.000000000E+00  0.00000E+00  9.000E+00
      25     1     1     2     0     0 -2.157560230E+02  3.483653999E+02 -2.015024170E+03  2.060062261E+03  1.250000000E+02  0.00000E+00  9.000E+00
      25     1     1     2     0     0  2.358377961E+02 -3.777672583E+02 -9.457782105E+02  1.052829042E+03  1.250000000E+02  0.00000E+00  9.000E+00
      21     1     1     2   512   501 -2.008177307E+01  2.940185840E+01 -5.379170169E+02  5.390941142E+02  1.078959322E-05  0.00000E+00  9.000E+00
#rwgt            1           1   4.1250002366580253E-002           4      284044           0
</event>
<event>
      5   9999  3.19816E-02  1.56325E+01 -1.00000E+00  1.75710E-01
      21    -1     0     0   502   501  0.000000000E+00  0.000000000E+00  2.641123200E+02  2.641123200E+02  0.000000000E+00  0.00000E+00  9.000E+00
      21    -1     0     0   501   511  0.000000000E+00  0.000000000E+00 -7.621162427E+02  7.621162427E+02  0.000000000E+00  0.00000E+00  9.000E+00
      25     1     1     2     0     0 -6.518839521E+01 -1.124500684E+02 -3.917090398E+00  1.803743007E+02  1.250000000E+02  0.00000E+00  9.000E+00
      25     1     1     2     0     0  4.982092306E+01  1.153161289E+02  1.311224288E+02  2.204495981E+02  1.250000000E+02  0.00000E+00  9.000E+00
      21     1     1     2   502   511  1.536747215E+01 -2.866060458E+00 -6.252092611E+02  6.254046640E+02  7.629394531E-06  0.00000E+00  9.000E+00
#rwgt            1           1   2.3476273676215666E-002           4      284197           0
</event>
<event>
      5   9999  3.19816E-02  2.21257E+02 -1.00000E+00  1.10074E-01
      21    -1     0     0   502   501  0.000000000E+00  0.000000000E+00  4.410783164E+02  4.410783164E+02  0.000000000E+00  0.00000E+00  9.000E+00
       2    -1     0     0   501     0  0.000000000E+00  0.000000000E+00 -1.579085048E+03  1.579085048E+03  0.000000000E+00  0.00000E+00  9.000E+00
      25     1     1     2     0     0  4.116327331E+02  9.217039504E+01 -3.648380398E+02  5.715493714E+02  1.250000000E+02  0.00000E+00  9.000E+00
      25     1     1     2     0     0 -1.913935126E+02 -1.133730597E+02  2.762852238E+02  3.760896864E+02  1.250000000E+02  0.00000E+00  9.000E+00
       2     1     1     2   502     0 -2.202392205E+02  2.120266464E+01 -1.049453915E+03  1.072524306E+03  2.642899792E-05  0.00000E+00  9.000E+00
#rwgt            1           1   2.9790789720157192E-002           4      284338           0
</event>
<event>
      5   9999  3.19816E-02  5.41873E+01 -1.00000E+00  1.37112E-01
      21    -1     0     0   502   501  0.000000000E+00  0.000000000E+00  1.484379361E+02  1.484379361E+02  0.000000000E+00  0.00000E+00  9.000E+00
      21    -1     0     0   511   502  0.000000000E+00  0.000000000E+00 -7.620404033E+02  7.620404033E+02  0.000000000E+00  0.00000E+00  9.000E+00
      25     1     1     2     0     0  1.556142286E+02 -4.253989903E+00 -5.076930482E+02  5.455374558E+02  1.250000000E+02  0.00000E+00  9.000E+00
      25     1     1     2     0     0 -1.687130386E+02  5.683429139E+01  2.909565872E+01  2.194670441E+02  1.250000000E+02  0.00000E+00  9.000E+00
      21     1     1     2   511   501  1.309881002E+01 -5.258030149E+01 -1.350050778E+02  1.454738394E+02  1.907348633E-06  0.00000E+00  9.000E+00
#rwgt            1           1   2.7541016561224648E-002           4      284394           0
</event>
<event>
      5   9999  3.19816E-02  7.89125E+01 -1.00000E+00  1.28638E-01
      21    -1     0     0   502   512  0.000000000E+00  0.000000000E+00  1.407723833E+02  1.407723833E+02  0.000000000E+00  0.00000E+00  9.000E+00
      21    -1     0     0   501   502  0.000000000E+00  0.000000000E+00 -5.619990440E+02  5.619990440E+02  0.000000000E+00  0.00000E+00  9.000E+00
      25     1     1     2     0     0 -6.415666460E+01 -1.442053711E+02 -4.089332725E+02  4.558099253E+02  1.250000000E+02  0.00000E+00  9.000E+00
      25     1     1     2     0     0 -6.706618653E+00  1.094838386E+02  4.146456087E+00  1.663546896E+02  1.250000000E+02  0.00000E+00  9.000E+00
      21     1     1     2   501   512  7.086328325E+01  3.472153251E+01 -1.643984431E+01  8.060681245E+01  9.830249847E-07  0.00000E+00  9.000E+00
#rwgt            1           1   3.0425769098768526E-002           4      284474           0
</event>
<event>
      5   9999  3.19816E-02  3.66094E+02 -1.00000E+00  1.02857E-01
      21    -1     0     0   502   501  0.000000000E+00  0.000000000E+00  6.175139332E+02  6.175139332E+02  0.000000000E+00  0.00000E+00  9.000E+00
      21    -1     0     0   501   511  0.000000000E+00  0.000000000E+00 -9.187596175E+02  9.187596175E+02  0.000000000E+00  0.00000E+00  9.000E+00
      25     1     1     2     0     0  6.231918113E+02 -2.927209178E+02  2.868742574E+01  7.003581497E+02  1.250000000E+02  0.00000E+00  9.000E+00
      25     1     1     2     0     0 -2.908152232E+02  1.392587956E+02 -4.135005618E+00  3.458447693E+02  1.250000000E+02  0.00000E+00  9.000E+00
      21     1     1     2   502   511 -3.323765881E+02  1.534621222E+02 -3.257981044E+02  4.900706318E+02  6.607249480E-06  0.00000E+00  9.000E+00
#rwgt            1           1   3.3343824494355072E-002           4      284544           0
</event>
<event>
      5   9999  3.19816E-02  1.48419E+02 -1.00000E+00  1.16576E-01
      21    -1     0     0   512   501  0.000000000E+00  0.000000000E+00  3.543841264E+02  3.543841264E+02  0.000000000E+00  0.00000E+00  9.000E+00
      21    -1     0     0   501   502  0.000000000E+00  0.000000000E+00 -2.282895683E+02  2.282895683E+02  0.000000000E+00  0.00000E+00  9.000E+00
      25     1     1     2     0     0 -8.569978925E+01  2.233903300E+01 -3.288767967E+01  1.566846698E+02  1.250000000E+02  0.00000E+00  9.000E+00
      25     1     1     2     0     0  1.094648383E+02 -1.688434215E+02  5.065810279E+01  2.422434627E+02  1.250000000E+02  0.00000E+00  9.000E+00
      21     1     1     2   512   502 -2.376504907E+01  1.465043885E+02  1.083241350E+02  1.837455623E+02  2.336015456E-06  0.00000E+00  9.000E+00
#rwgt            1           1   3.1602133595550995E-002           4      284582           0
</event>
<event>
      5   9999  3.19816E-02  8.38098E+01 -1.00000E+00  1.27379E-01
      21    -1     0     0   502   501  0.000000000E+00  0.000000000E+00  2.264584108E+02  2.264584108E+02  0.000000000E+00  0.00000E+00  9.000E+00
       2    -1     0     0   501     0  0.000000000E+00  0.000000000E+00 -1.724600111E+03  1.724600111E+03  0.000000000E+00  0.00000E+00  9.000E+00
      25     1     1     2     0     0 -4.235055036E+02  2.531341825E+02 -8.629877319E+02  1.001901518E+03  1.250000000E+02  0.00000E+00  9.000E+00
      25     1     1     2     0     0  4.122651977E+02 -3.361868082E+02 -6.645244389E+02  8.603498667E+02  1.250000000E+02  0.00000E+00  9.000E+00
       2     1     1     2   502     0  1.124030587E+01  8.305262566E+01  2.937047050E+01  8.880713734E+01  1.507891493E-06  0.00000E+00  9.000E+00
#rwgt            1           1   3.1054613341799261E-002           4      284655           0
</event>
<event>
      5   9999  3.19816E-02  7.73915E+01 -1.00000E+00  1.29050E-01
      21    -1     0     0   511   501  0.000000000E+00  0.000000000E+00  3.919076248E+02  3.919076248E+02  0.000000000E+00  0.00000E+00  9.000E+00
      21    -1     0     0   501   502  0.000000000E+00  0.000000000E+00 -2.985362424E+02  2.985362424E+02  0.000000000E+00  0.00000E+00  9.000E+00
      25     1     1     2     0     0  7.017000192E+01 -1.697063540E+02 -4.984839387E+01  2.276706791E+02  1.250000000E+02  0.00000E+00  9.000E+00
      25     1     1     2     0     0 -3.867592380E+01  2.403998811E+02 -2.774756412E+01  2.751051749E+02  1.250000000E+02  0.00000E+00  9.000E+00
      21     1     1     2   511   502 -3.149407812E+01 -7.069352715E+01  1.709673404E+02  1.876680133E+02  1.907348633E-06  0.00000E+00  9.000E+00
#rwgt            1           1   2.8840627418795641E-002           4      284751           0
</event>
<event>
      5   9999  3.19816E-02  1.56306E+01 -1.00000E+00  1.75715E-01
      21    -1     0     0   502   501  0.000000000E+00  0.000000000E+00  1.528229434E+02  1.528229434E+02  0.000000000E+00  0.00000E+00  9.000E+00
       1    -1     0     0   501     0  0.000000000E+00  0.000000000E+00 -1.150616324E+03  1.150616324E+03  0.000000000E+00  0.00000E+00  9.000E+00
      25     1     1     2     0     0 -1.882491398E+01  9.094272062E+01  6.273087118E+01  1.678842399E+02  1.250000000E+02  0.00000E+00  9.000E+00
      25     1     1     2     0     0  1.126007073E+01 -7.726464760E+01 -1.075477761E+02  1.824503743E+02  1.250000000E+02  0.00000E+00  9.000E+00
       1     1     1     2   502     0  7.564843247E+00 -1.367807303E+01 -9.529764759E+02  9.531046533E+02  1.078959322E-05  0.00000E+00  9.000E+00
#rwgt            1           1   2.5432806178866004E-002           4      284880           0
</event>
<event>
      5   9999  3.19816E-02  1.09040E+02 -1.00000E+00  1.22161E-01
       1    -1     0     0   502     0  0.000000000E+00  0.000000000E+00  9.984165176E+02  9.984165176E+02  0.000000000E+00  0.00000E+00  9.000E+00
      21    -1     0     0   501   502  0.000000000E+00  0.000000000E+00 -3.037058817E+02  3.037058817E+02  0.000000000E+00  0.00000E+00  9.000E+00
      25     1     1     2     0     0 -3.139309870E+02 -2.791433525E+01  3.093928755E+01  3.404616193E+02  1.250000000E+02  0.00000E+00  9.000E+00
      25     1     1     2     0     0  2.054779964E+02  1.661424013E+01 -4.440339125E+01  2.451405743E+02  1.250000000E+02  0.00000E+00  9.000E+00
       1     1     1     2   501     0  1.084529906E+02  1.130009512E+01  7.081747396E+02  7.165202057E+02  7.629394531E-06  0.00000E+00  9.000E+00
#rwgt            1           1   2.7096196521908221E-002           4      285047           0
</event>
<event>
      5   9999  3.19816E-02  1.72441E+01 -1.00000E+00  1.71863E-01
      21    -1     0     0   502   501  0.000000000E+00  0.000000000E+00  1.536530500E+03  1.536530500E+03  0.000000000E+00  0.00000E+00  9.000E+00
      21    -1     0     0   511   502  0.000000000E+00  0.000000000E+00 -2.037941931E+02  2.037941931E+02  0.000000000E+00  0.00000E+00  9.000E+00
      25     1     1     2     0     0 -1.952015316E+02  1.520945710E+02 -6.990004711E+01  2.859150452E+02  1.250000000E+02  0.00000E+00  9.000E+00
      25     1     1     2     0     0  1.873364749E+02 -1.674406232E+02  1.408507996E+03  1.436193264E+03  1.250000000E+02  0.00000E+00  9.000E+00
      21     1     1     2   511   501  7.865056656E+00  1.534605215E+01 -5.871642527E+00  1.821638325E+01  2.528810911E-07  0.00000E+00  9.000E+00
#rwgt            1           1   3.0160098612014196E-002           4      285100           0
</event>
<event>
      5   9999  3.19816E-02  1.23908E+02 -1.00000E+00  1.19780E-01
      21    -1     0     0   502   501  0.000000000E+00  0.000000000E+00  1.839953034E+02  1.839953034E+02  0.000000000E+00  0.00000E+00  9.000E+00
      21    -1     0     0   512   502  0.000000000E+00  0.000000000E+00 -8.718034843E+02  8.718034843E+02  0.000000000E+00  0.00000E+00  9.000E+00
      25     1     1     2     0     0  2.042534584E+02  1.980150282E+02 -5.435385704E+02  6.260899330E+02  1.250000000E+02  0.00000E+00  9.000E+00
      25     1     1     2     0     0 -1.711565822E+02 -7.860895276E+01  1.659094632E+01  2.266587801E+02  1.250000000E+02  0.00000E+00  9.000E+00
      21     1     1     2   512   501 -3.309687620E+01 -1.194060754E+02 -1.608605568E+02  2.030500746E+02  1.907348633E-06  0.00000E+00  9.000E+00
#rwgt            1           1   2.5668862160416115E-002           4      285338           0
</event>
<event>
      5   9999  3.19816E-02  1.38527E+02 -1.00000E+00  1.17780E-01
       1    -1     0     0   502     0  0.000000000E+00  0.000000000E+00  5.353907694E+02  5.353907694E+02  0.000000000E+00  0.00000E+00  9.000E+00
      21    -1     0     0   501   502  0.000000000E+00  0.000000000E+00 -1.641541509E+03  1.641541509E+03  0.000000000E+00  0.00000E+00  9.000E+00
      25     1     1     2     0     0 -3.555629687E+01  1.334589058E+02 -1.135282323E+03  1.150463595E+03  1.250000000E+02  0.00000E+00  9.000E+00
      25     1     1     2     0     0  1.569749303E+02 -6.677108838E+01 -4.663101395E+02  5.120250513E+02  1.250000000E+02  0.00000E+00  9.000E+00
       1     1     1     2   501     0 -1.214186334E+02 -6.668781745E+01  4.954417232E+02  5.144436321E+02  9.344061824E-06  0.00000E+00  9.000E+00
#rwgt            1           1   3.3409730402745717E-002           4      285404           0
</event>
<event>
      5   9999  3.19816E-02  1.45618E+02 -1.00000E+00  1.16906E-01
      21    -1     0     0   502   511  0.000000000E+00  0.000000000E+00  4.734742520E+02  4.734742520E+02  0.000000000E+00  0.00000E+00  9.000E+00
      21    -1     0     0   501   502  0.000000000E+00  0.000000000E+00 -4.116876836E+02  4.116876836E+02  0.000000000E+00  0.00000E+00  9.000E+00
      25     1     1     2     0     0  3.345636589E+02  2.391330610E+01 -1.658508090E+02  3.945075144E+02  1.250000000E+02  0.00000E+00  9.000E+00
      25     1     1     2     0     0 -2.280373267E+02 -1.231937096E+02  1.331456733E+02  3.170654235E+02  1.250000000E+02  0.00000E+00  9.000E+00
      21     1     1     2   501   511 -1.065263322E+02  9.928040351E+01  9.449170418E+01  1.735889977E+02  1.907348633E-06  0.00000E+00  9.000E+00
#rwgt            1           1   2.8573528075230104E-002           4      285437           0
</event>
<event>
      5   9999  3.19816E-02  6.51050E+01 -1.00000E+00  1.32835E-01
      21    -1     0     0   502   512  0.000000000E+00  0.000000000E+00  6.059803326E+02  6.059803326E+02  0.000000000E+00  0.00000E+00  9.000E+00
      21    -1     0     0   501   502  0.000000000E+00  0.000000000E+00 -9.806291797E+02  9.806291797E+02  0.000000000E+00  0.00000E+00  9.000E+00
      25     1     1     2     0     0  4.024763616E+02 -1.978441812E+02 -4.590333375E+02  6.538089527E+02  1.250000000E+02  0.00000E+00  9.000E+00
      25     1     1     2     0     0 -3.776707235E+02  1.376500278E+02 -3.164969216E+02  5.266668842E+02  1.250000000E+02  0.00000E+00  9.000E+00
      21     1     1     2   501   512 -2.480563817E+01  6.019415343E+01  4.008814120E+02  4.061336754E+02  0.000000000E+00  0.00000E+00  9.000E+00
#rwgt            1           1   2.4370545001032196E-002           4      285523           0
</event>
<event>
      5   9999  3.19816E-02  2.46759E+02 -1.00000E+00  1.08424E-01
      21    -1     0     0   502   501  0.000000000E+00  0.000000000E+00  2.624332258E+02  2.624332258E+02  0.000000000E+00  0.00000E+00  9.000E+00
      21    -1     0     0   511   502  0.000000000E+00  0.000000000E+00 -1.342292989E+03  1.342292989E+03  0.000000000E+00  0.00000E+00  9.000E+00
      25     1     1     2     0     0  9.467935729E+01 -6.673000845E+01  1.806270702E+02  2.483308543E+02  1.250000000E+02  0.00000E+00  9.000E+00
      25     1     1     2     0     0  1.334032226E+02  1.609024119E+02 -7.655821529E+02  8.033847390E+02  1.250000000E+02  0.00000E+00  9.000E+00
      21     1     1     2   511   501 -2.280825799E+02 -9.417240343E+01 -4.949046801E+02  5.530106213E+02  7.629394531E-06  0.00000E+00  9.000E+00
#rwgt            1           1   2.8010441651917441E-002           4      285615           0
</event>
<event>
      5   9999  3.19816E-02  9.44461E+01 -1.00000E+00  1.24954E-01
      21    -1     0     0   512   501  0.000000000E+00  0.000000000E+00  1.780296720E+02  1.780296720E+02  0.000000000E+00  0.00000E+00  9.000E+00
      21    -1     0     0   501   502  0.000000000E+00  0.000000000E+00 -1.474897259E+03  1.474897259E+03  0.000000000E+00  0.00000E+00  9.000E+00
      25     1     1     2     0     0  1.924161441E+02 -3.942739926E+02 -9.711065888E+02  1.072916101E+03  1.250000000E+02  0.00000E+00  9.000E+00
      25     1     1     2     0     0 -2.052519969E+02  3.007042206E+02 -2.507875052E+02  4.594244043E+02  1.250000000E+02  0.00000E+00  9.000E+00
      21     1     1     2   512   502  1.283585276E+01  9.356977200E+01 -7.497349299E+01  1.205864254E+02  1.348699152E-06  0.00000E+00  9.000E+00
#rwgt            1           1   2.4701981525126229E-002           4      285676           0
</event>
<event>
      5   9999  3.19816E-02  2.08320E+01 -1.00000E+00  1.64922E-01
      21    -1     0     0   511   501  0.000000000E+00  0.000000000E+00  1.349620994E+03  1.349620994E+03  0.000000000E+00  0.00000E+00  9.000E+00
      21    -1     0     0   501   502  0.000000000E+00  0.000000000E+00 -6.774690289E+02  6.774690289E+02  0.000000000E+00  0.00000E+00  9.000E+00
      25     1     1     2     0     0 -1.306213048E+02 -5.767011686E+01 -3.665580303E+02  4.127681640E+02  1.250000000E+02  0.00000E+00  9.000E+00
      25     1     1     2     0     0  1.472793930E+02  7.017933831E+01 -2.510185176E+02  3.244251151E+02  1.250000000E+02  0.00000E+00  9.000E+00
      21     1     1     2   511   502 -1.665808819E+01 -1.250922145E+01  1.289728513E+03  1.289896744E+03  1.525878906E-05  0.00000E+00  9.000E+00
#rwgt            1           1   2.5092343346811145E-002           4      285783           0
</event>
<event>
      5   9999  3.19816E-02  9.03869E+01 -1.00000E+00  1.25835E-01
      21    -1     0     0   502   501  0.000000000E+00  0.000000000E+00  1.768225605E+02  1.768225605E+02  0.000000000E+00  0.00000E+00  9.000E+00
      21    -1     0     0   512   502  0.000000000E+00  0.000000000E+00 -1.359861276E+03  1.359861276E+03  0.000000000E+00  0.00000E+00  9.000E+00
      25     1     1     2     0     0 -1.054302018E+02 -2.171366204E+02 -8.166533599E+01  2.838275295E+02  1.250000000E+02  0.00000E+00  9.000E+00
      25     1     1     2     0     0  1.957238851E+02  2.130324523E+02 -2.653999422E+02  4.120106725E+02  1.250000000E+02  0.00000E+00  9.000E+00
      21     1     1     2   512   501 -9.029368321E+01  4.104168188E+00 -8.359734368E+02  8.408456341E+02  1.525878906E-05  0.00000E+00  9.000E+00
#rwgt            1           1   2.7197882369114742E-002           4      285877           0
</event>
<event>
      5   9999  3.19816E-02  1.11503E+01 -1.00000E+00  1.90445E-01
      21    -1     0     0   502   501  0.000000000E+00  0.000000000E+00  2.232971402E+02  2.232971402E+02  0.000000000E+00  0.00000E+00  9.000E+00
      21    -1     0     0   501   511  0.000000000E+00  0.000000000E+00 -1.621633712E+02  1.621633712E+02  0.000000000E+00  0.00000E+00  9.000E+00
      25     1     1     2     0     0 -1.062969334E+02  6.847819732E+01 -2.408595335E+01  1.794252900E+02  1.250000000E+02  0.00000E+00  9.000E+00
      25     1     1     2     0     0  1.065949986E+02 -5.733190602E+01  8.733833854E+01  1.946854554E+02  1.250000000E+02  0.00000E+00  9.000E+00
      21     1     1     2   502   511 -2.980652571E-01 -1.114629130E+01 -2.118616249E+00  1.134976597E+01  2.421152116E-07  0.00000E+00  9.000E+00
#rwgt            1           1   2.8949081014232415E-002           4      285950           0
</event>
<event>
      5   9999  3.19816E-02  6.03457E+01 -1.00000E+00  1.34570E-01
      21    -1     0     0   502   512  0.000000000E+00  0.000000000E+00  1.901988019E+02  1.901988019E+02  0.000000000E+00  0.00000E+00  9.000E+00
      21    -1     0     0   501   502  0.000000000E+00  0.000000000E+00 -1.887801622E+03  1.887801622E+03  0.000000000E+00  0.00000E+00  9.000E+00
      25     1     1     2     0     0 -1.560690458E+02  4.198032524E+02 -1.449399093E+03  1.522161308E+03  1.250000000E+02  0.00000E+00  9.000E+00
      25     1     1     2     0     0  1.292361396E+02 -3.657514770E+02 -2.730607918E+02  4.905744782E+02  1.250000000E+02  0.00000E+00  9.000E+00
      21     1     1     2   501   512  2.683290624E+01 -5.405177543E+01  2.485706432E+01  6.526463768E+01  1.066240300E-06  0.00000E+00  9.000E+00
#rwgt            1           1   3.0566206685053433E-002           4      286113           0
</event>
<event>
      5   9999  3.19816E-02  3.09431E+01 -1.00000E+00  1.52112E-01
      21    -1     0     0   511   501  0.000000000E+00  0.000000000E+00  4.160791910E+02  4.160791910E+02  0.000000000E+00  0.00000E+00  9.000E+00
      21    -1     0     0   501   502  0.000000000E+00  0.000000000E+00 -9.404057521E+02  9.404057521E+02  0.000000000E+00  0.00000E+00  9.000E+00
      25     1     1     2     0     0 -3.784965095E+02  3.166664685E+02 -5.003054301E+02  7.137701195E+02  1.250000000E+02  0.00000E+00  9.000E+00
      25     1     1     2     0     0  3.926647195E+02 -3.441752953E+02 -1.128621680E+02  5.486393030E+02  1.250000000E+02  0.00000E+00  9.000E+00
      21     1     1     2   511   502 -1.416820999E+01  2.750882679E+01  8.884103699E+01  9.407552062E+01  2.132480600E-06  0.00000E+00  9.000E+00
#rwgt            1           1   3.0911784188349143E-002           4      286254           0
</event>
<event>
      5   9999  3.19816E-02  2.09478E+02 -1.00000E+00  1.10921E-01
      21    -1     0     0   502   501  0.000000000E+00  0.000000000E+00  1.663291229E+02  1.663291229E+02  0.000000000E+00  0.00000E+00  9.000E+00
       2    -1     0     0   501     0  0.000000000E+00  0.000000000E+00 -2.590314186E+03  2.590314186E+03  0.000000000E+00  0.00000E+00  9.000E+00
      25     1     1     2     0     0 -3.969306634E+02 -4.188824016E+01 -1.926568188E+02  4.604891161E+02  1.250000000E+02  0.00000E+00  9.000E+00
      25     1     1     2     0     0  2.162409471E+02  1.478709663E+02 -8.307676863E+02  8.800147263E+02  1.250000000E+02  0.00000E+00  9.000E+00
       2     1     1     2   502     0  1.806897163E+02 -1.059827261E+02 -1.400560558E+03  1.416139466E+03  2.642899792E-05  0.00000E+00  9.000E+00
#rwgt            1           1   2.8765606056432358E-002           4      286436           0
</event>
<event>
      5   9999  3.19816E-02  8.26714E+01 -1.00000E+00  1.27663E-01
      21    -1     0     0   502   501  0.000000000E+00  0.000000000E+00  1.307754986E+03  1.307754986E+03  0.000000000E+00  0.00000E+00  9.000E+00
      21    -1     0     0   501   511  0.000000000E+00  0.000000000E+00 -8.308271735E+02  8.308271735E+02  0.000000000E+00  0.00000E+00  9.000E+00
      25     1     1     2     0     0 -8.281513666E+02 -8.234793448E+01  7.673980994E+02  1.138920854E+03  1.250000000E+02  0.00000E+00  9.000E+00
      25     1     1     2     0     0  8.647204699E+02  8.204451225E+00 -2.610405946E+02  9.119078879E+02  1.250000000E+02  0.00000E+00  9.000E+00
      21     1     1     2   502   511 -3.656910328E+01  7.414348325E+01 -2.942969274E+01  8.775341725E+01  1.685873940E-06  0.00000E+00  9.000E+00
#rwgt            1           1   3.4973217395909230E-002           4      286514           0
</event>
<event>
      5   9999  3.19816E-02  6.55016E+01 -1.00000E+00  1.32698E-01
      21    -1     0     0   502   501  0.000000000E+00  0.000000000E+00  3.938710032E+01  3.938710032E+01  0.000000000E+00  0.00000E+00  9.000E+00
       1    -1     0     0   501     0  0.000000000E+00  0.000000000E+00 -1.301330460E+03  1.301330460E+03  0.000000000E+00  0.00000E+00  9.000E+00
      25     1     1     2     0     0 -1.984720617E+01 -9.580793448E+01 -2.949366066E+02  3.349412990E+02  1.250000000E+02  0.00000E+00  9.000E+00
      25     1     1     2     0     0  2.141560872E+01  1.612907689E+02 -6.335103298E+02  6.659081606E+02  1.250000000E+02  0.00000E+00  9.000E+00
       1     1     1     2   502     0 -1.568402544E+00 -6.548283441E+01 -3.334964234E+02  3.398681007E+02  3.814697266E-06  0.00000E+00  9.000E+00
#rwgt            1           1   3.2061407351937327E-002           4      286715           0
</event>
<event>
      5   9999  3.19816E-02  7.61454E+01 -1.00000E+00  1.29396E-01
      21    -1     0     0   502   501  0.000000000E+00  0.000000000E+00  6.827539240E+02  6.827539240E+02  0.000000000E+00  0.00000E+00  9.000E+00
      21    -1     0     0   501   511  0.000000000E+00  0.000000000E+00 -4.713025496E+02  4.713025496E+02  0.000000000E+00  0.00000E+00  9.000E+00
      25     1     1     2     0     0  1.348632355E+02  3.666113838E+02 -1.879376633E+02  4.511513762E+02  1.250000000E+02  0.00000E+00  9.000E+00
      25     1     1     2     0     0 -2.097430940E+02 -3.804363997E+02  4.270718388E+02  6.218837313E+02  1.250000000E+02  0.00000E+00  9.000E+00
      21     1     1     2   502   511  7.487985851E+01  1.382501595E+01 -2.768280116E+01  8.102136605E+01  1.651812370E-06  0.00000E+00  9.000E+00
#rwgt            1           1   2.2618460073878195E-002           4      286807           0
</event>
<event>
      5   9999  3.19816E-02  4.88459E+01 -1.00000E+00  1.39657E-01
      21    -1     0     0   502   501  0.000000000E+00  0.000000000E+00  6.455067560E+02  6.455067560E+02  0.000000000E+00  0.00000E+00  9.000E+00
      21    -1     0     0   501   512  0.000000000E+00  0.000000000E+00 -4.712972290E+02  4.712972290E+02  0.000000000E+00  0.00000E+00  9.000E+00
      25     1     1     2     0     0  2.277672040E+02 -1.806075474E+01 -8.721324515E+01  2.746547655E+02  1.250000000E+02  0.00000E+00  9.000E+00
      25     1     1     2     0     0 -2.575570855E+02  5.677107169E+01  5.106542333E+02  5.881762940E+02  1.250000000E+02  0.00000E+00  9.000E+00
      21     1     1     2   502   512  2.978988154E+01 -3.871031696E+01 -2.492314611E+02  2.539729255E+02  2.697398305E-06  0.00000E+00  9.000E+00
#rwgt            1           1   2.7781095915042235E-002           4      286879           0
</event>
<event>
      5   9999  3.19816E-02  3.09027E+01 -1.00000E+00  1.52151E-01
      21    -1     0     0   502   511  0.000000000E+00  0.000000000E+00  9.639525839E+01  9.639525839E+01  0.000000000E+00  0.00000E+00  9.000E+00
      21    -1     0     0   501   502  0.000000000E+00  0.000000000E+00 -3.323434423E+03  3.323434423E+03  0.000000000E+00  0.00000E+00  9.000E+00
      25     1     1     2     0     0 -3.316788884E+01  2.364642213E+02 -2.495106518E+03  2.509620882E+03  1.250000000E+02  0.00000E+00  9.000E+00
      25     1     1     2     0     0  1.676688110E+01 -2.626555370E+02 -7.913232091E+02  8.432594385E+02  1.250000000E+02  0.00000E+00  9.000E+00
      21     1     1     2   501   511  1.640100773E+01  2.619131565E+01  5.939056207E+01  6.694936097E+01  5.046370146E-06  0.00000E+00  9.000E+00
#rwgt            1           1   1.5272013134738055E-002           4      287032           0
</event>
<event>
      5   9999  3.19816E-02  5.43037E+01 -1.00000E+00  1.37060E-01
      21    -1     0     0   502   501  0.000000000E+00  0.000000000E+00  2.631080970E+02  2.631080970E+02  0.000000000E+00  0.00000E+00  9.000E+00
       2    -1     0     0   501     0  0.000000000E+00  0.000000000E+00 -1.018611284E+03  1.018611284E+03  0.000000000E+00  0.00000E+00  9.000E+00
      25     1     1     2     0     0  2.488542144E+02  5.607969901E+00 -5.602682633E+00  2.785969480E+02  1.250000000E+02  0.00000E+00  9.000E+00
      25     1     1     2     0     0 -3.029194116E+02 -1.069179362E+01 -8.864794860E+01  3.396438475E+02  1.250000000E+02  0.00000E+00  9.000E+00
       2     1     1     2   502     0  5.406519716E+01  5.083823722E+00 -6.612525556E+02  6.634785853E+02  7.629394531E-06  0.00000E+00  9.000E+00
#rwgt            1           1   2.7351788254152756E-002           4      287228           0
</event>
<event>
      5   9999  3.19816E-02  1.71369E+02 -1.00000E+00  1.14146E-01
      21    -1     0     0   502   501  0.000000000E+00  0.000000000E+00  1.896069838E+02  1.896069838E+02  0.000000000E+00  0.00000E+00  9.000E+00
       2    -1     0     0   501     0  0.000000000E+00  0.000000000E+00 -1.117825391E+03  1.117825391E+03  0.000000000E+00  0.00000E+00  9.000E+00
      25     1     1     2     0     0  8.370630812E+01 -2.046138836E+02 -5.019076139E+02  5.625031914E+02  1.250000000E+02  0.00000E+00  9.000E+00
      25     1     1     2     0     0 -1.834236099E+02  3.439833824E+02 -3.985134138E+02  5.713201634E+02  1.250000000E+02  0.00000E+00  9.000E+00
       2     1     1     2   502     0  9.971730175E+01 -1.393694989E+02 -2.779737927E+01  1.736090199E+02  3.286373318E-06  0.00000E+00  9.000E+00
#rwgt            2          13   1.9413958387995507E-004           4      287323           0
</event>
<event>
      5   9999  3.19816E-02  6.43679E+01 -1.00000E+00  1.33093E-01
      21    -1     0     0   502   501  0.000000000E+00  0.000000000E+00  1.433145424E+03  1.433145424E+03  0.000000000E+00  0.00000E+00  9.000E+00
      -3    -1     0     0     0   502  0.000000000E+00  0.000000000E+00 -4.900637164E+02  4.900637164E+02  0.000000000E+00  0.00000E+00  9.000E+00
      25     1     1     2     0     0 -2.243370442E+02  2.991608746E+02  1.149083135E+02  4.106741516E+02  1.250000000E+02  0.00000E+00  9.000E+00
      25     1     1     2     0     0  2.405148914E+02 -3.614626346E+02  1.123150025E+03  1.210617044E+03  1.250000000E+02  0.00000E+00  9.000E+00
      -3     1     1     2     0   501 -1.617784715E+01  6.230175999E+01 -2.949766313E+02  3.019179442E+02  6.607249480E-06  0.00000E+00  9.000E+00
#rwgt            1           1   2.8675633092705256E-002           4      287342           0
</event>
<event>
      5   9999  3.19816E-02  1.67714E+01 -1.00000E+00  1.72935E-01
      21    -1     0     0   502   501  0.000000000E+00  0.000000000E+00  2.618920362E+02  2.618920362E+02  0.000000000E+00  0.00000E+00  9.000E+00
      21    -1     0     0   511   502  0.000000000E+00  0.000000000E+00 -4.831212671E+02  4.831212671E+02  0.000000000E+00  0.00000E+00  9.000E+00
      25     1     1     2     0     0 -1.890163552E+02  1.973868877E+01 -3.863475008E+02  4.483371385E+02  1.250000000E+02  0.00000E+00  9.000E+00
      25     1     1     2     0     0  1.762728370E+02 -3.064199571E+01  1.726533727E+02  2.782898346E+02  1.250000000E+02  0.00000E+00  9.000E+00
      21     1     1     2   511   501  1.274351829E+01  1.090330693E+01 -7.535102783E+00  1.838633010E+01  3.371747881E-07  0.00000E+00  9.000E+00
#rwgt            1           1   2.7660656161361385E-002           4      287483           0
</event>
<event>
      5   9999  3.19816E-02  3.05515E+01 -1.00000E+00  1.52492E-01
      21    -1     0     0   502   501  0.000000000E+00  0.000000000E+00  1.217608366E+03  1.217608366E+03  0.000000000E+00  0.00000E+00  9.000E+00
      21    -1     0     0   512   502  0.000000000E+00  0.000000000E+00 -1.100260907E+02  1.100260907E+02  0.000000000E+00  0.00000E+00  9.000E+00
      25     1     1     2     0     0 -1.171060454E+02  2.066721411E+02  1.794450974E+02  3.228819331E+02  1.250000000E+02  0.00000E+00  9.000E+00
      25     1     1     2     0     0  1.023325739E+02 -2.334142209E+02  9.317096819E+02  9.739928571E+02  1.250000000E+02  0.00000E+00  9.000E+00
      21     1     1     2   512   501  1.477347149E+01  2.674207987E+01 -3.572504044E+00  3.075966646E+01  4.749708608E-07  0.00000E+00  9.000E+00
#rwgt            1           1   2.6534807661970253E-002           4      287629           0
</event>
<event>
      5   9999  3.19816E-02  6.21274E+01 -1.00000E+00  1.33900E-01
      21    -1     0     0   502   501  0.000000000E+00  0.000000000E+00  4.353045447E+02  4.353045447E+02  0.000000000E+00  0.00000E+00  9.000E+00
      21    -1     0     0   501   511  0.000000000E+00  0.000000000E+00 -1.445315427E+02  1.445315427E+02  0.000000000E+00  0.00000E+00  9.000E+00
      25     1     1     2     0     0  1.436664172E+02 -1.407628972E+02  1.097460336E+02  2.610046447E+02  1.250000000E+02  0.00000E+00  9.000E+00
      25     1     1     2     0     0 -8.308887421E+01  1.269726888E+02  1.592274226E+02  2.529905073E+02  1.250000000E+02  0.00000E+00  9.000E+00
      21     1     1     2   502   511 -6.057754301E+01  1.379020843E+01  2.179954586E+01  6.584093533E+01  4.129530925E-07  0.00000E+00  9.000E+00
#rwgt            1           1   2.6218575024189526E-002           4      287779           0
</event>
<event>
      5   9999  3.19816E-02  1.13892E+02 -1.00000E+00  1.21339E-01
      21    -1     0     0   502   512  0.000000000E+00  0.000000000E+00  6.983355714E+02  6.983355714E+02  0.000000000E+00  0.00000E+00  9.000E+00
      21    -1     0     0   501   502  0.000000000E+00  0.000000000E+00 -1.195094847E+03  1.195094847E+03  0.000000000E+00  0.00000E+00  9.000E+00
      25     1     1     2     0     0 -1.784950360E+02  2.770976613E+02 -6.254506591E+02  7.179534238E+02  1.250000000E+02  0.00000E+00  9.000E+00
      25     1     1     2     0     0  8.147140796E+01 -3.367442489E+02 -4.523748363E+02  5.833543280E+02  1.250000000E+02  0.00000E+00  9.000E+00
      21     1     1     2   501   512  9.702362803E+01  5.964658751E+01  5.810662201E+02  5.921226663E+02  7.629394531E-06  0.00000E+00  9.000E+00
#rwgt            1           1   2.6320309922229675E-002           4      287840           0
</event>
<event>
      5   9999  3.19816E-02  3.24419E+01 -1.00000E+00  1.50716E-01
      21    -1     0     0   502   501  0.000000000E+00  0.000000000E+00  5.242923548E+02  5.242923548E+02  0.000000000E+00  0.00000E+00  9.000E+00
      21    -1     0     0   511   502  0.000000000E+00  0.000000000E+00 -1.489056450E+02  1.489056450E+02  0.000000000E+00  0.00000E+00  9.000E+00
      25     1     1     2     0     0  5.984001334E+01 -1.117810906E+02  3.193311933E+02  3.656135260E+02  1.250000000E+02  0.00000E+00  9.000E+00
      25     1     1     2     0     0 -9.166774780E+01  1.054985879E+02  1.291062230E+02  2.276540025E+02  1.250000000E+02  0.00000E+00  9.000E+00
      21     1     1     2   511   501  3.182773446E+01  6.282502628E+00 -7.305070650E+01  7.993047129E+01  1.348699152E-06  0.00000E+00  9.000E+00
#rwgt            1           1   2.6190674195834894E-002           4      287928           0
</event>
<event>
      5   9999  3.19816E-02  2.12203E+01 -1.00000E+00  1.64274E-01
      21    -1     0     0   502   501  0.000000000E+00  0.000000000E+00  5.004614073E+02  5.004614073E+02  0.000000000E+00  0.00000E+00  9.000E+00
      21    -1     0     0   512   502  0.000000000E+00  0.000000000E+00 -5.986051049E+02  5.986051049E+02  0.000000000E+00  0.00000E+00  9.000E+00
      25     1     1     2     0     0  6.082397517E+01  2.712670629E+02 -4.804331460E+02  5.689695801E+02  1.250000000E+02  0.00000E+00  9.000E+00
      25     1     1     2     0     0 -4.492803589E+01 -2.853248572E+02  3.952368898E+02  5.052385591E+02  1.250000000E+02  0.00000E+00  9.000E+00
      21     1     1     2   512   501 -1.589593928E+01  1.405779434E+01 -1.294744139E+01  2.485837295E+01  2.384185791E-07  0.00000E+00  9.000E+00
#rwgt            1           1   3.1239309956345801E-002           4      288060           0
</event>
<event>
      5   9999  3.19816E-02  5.19927E+01 -1.00000E+00  1.38114E-01
      21    -1     0     0   502   501  0.000000000E+00  0.000000000E+00  3.802972756E+02  3.802972756E+02  0.000000000E+00  0.00000E+00  9.000E+00
      21    -1     0     0   511   502  0.000000000E+00  0.000000000E+00 -8.620753838E+02  8.620753838E+02  0.000000000E+00  0.00000E+00  9.000E+00
      25     1     1     2     0     0 -1.545912153E+02  1.702492410E+02 -3.879573060E+02  4.679947854E+02  1.250000000E+02  0.00000E+00  9.000E+00
      25     1     1     2     0     0  1.616106843E+02 -1.187325638E+02  2.973243434E+02  3.797923119E+02  1.250000000E+02  0.00000E+00  9.000E+00
      21     1     1     2   511   501 -7.019469018E+00 -5.151667718E+01 -3.911451455E+02  3.945855621E+02  5.394796609E-06  0.00000E+00  9.000E+00
#rwgt            1           1   2.7269292235946443E-002           4      288274           0
</event>
<event>
      5   9999  3.53257E-02  1.11261E+02 -1.00000E+00  1.21779E-01
      21    -1     0     0   502   501  0.000000000E+00  0.000000000E+00  2.312772140E+03  2.312772140E+03  0.000000000E+00  0.00000E+00  9.000E+00
      21    -1     0     0   501   512  0.000000000E+00  0.000000000E+00 -1.025552449E+02  1.025552449E+02  0.000000000E+00  0.00000E+00  9.000E+00
      25     1     1     2     0     0 -2.576721403E+01 -2.902304793E+02  9.372095405E+02  9.893858718E+02  1.250000000E+02  0.00000E+00  9.000E+00
      25     1     1     2     0     0 -3.348029124E+00  3.976147308E+02  1.242535163E+03  1.310582815E+03  1.250000000E+02  0.00000E+00  9.000E+00
      21     1     1     2   502   512  2.911524315E+01 -1.073842515E+02  3.047219192E+01  1.153586985E+02  1.507891493E-06  0.00000E+00  9.000E+00
#rwgt            1           1   9.5838205895886514E-002           4      288345           0
</event>
<event>
      5   9999  3.19816E-02  1.60811E+02 -1.00000E+00  1.15208E-01
      21    -1     0     0   511   501  0.000000000E+00  0.000000000E+00  1.630075803E+03  1.630075803E+03  0.000000000E+00  0.00000E+00  9.000E+00
      21    -1     0     0   501   502  0.000000000E+00  0.000000000E+00 -9.156598612E+01  9.156598612E+01  0.000000000E+00  0.00000E+00  9.000E+00
      25     1     1     2     0     0 -3.313788836E+02 -4.367558172E+01  5.829971121E+02  6.835423569E+02  1.250000000E+02  0.00000E+00  9.000E+00
      25     1     1     2     0     0  1.710113195E+02  3.174330770E+01  3.393111074E+02  4.012599364E+02  1.250000000E+02  0.00000E+00  9.000E+00
      21     1     1     2   511   502  1.603675641E+02  1.193227401E+01  6.162015977E+02  6.368394961E+02  1.078959322E-05  0.00000E+00  9.000E+00
#rwgt            1           1   2.6427600907203027E-002           4      288439           0
</event>
<event>
      5   9999  3.19816E-02  1.69370E+01 -1.00000E+00  1.72555E-01
      21    -1     0     0   502   501  0.000000000E+00  0.000000000E+00  1.478155926E+02  1.478155926E+02  0.000000000E+00  0.00000E+00  9.000E+00
      21    -1     0     0   512   502  0.000000000E+00  0.000000000E+00 -7.670738262E+02  7.670738262E+02  0.000000000E+00  0.00000E+00  9.000E+00
      25     1     1     2     0     0 -3.350925857E+01  2.293834292E+02 -3.047795452E+02  4.028091349E+02  1.250000000E+02  0.00000E+00  9.000E+00
      25     1     1     2     0     0  3.887246491E+01 -2.454488470E+02 -9.798871661E+01  2.949287941E+02  1.250000000E+02  0.00000E+00  9.000E+00
      21     1     1     2   512   501 -5.363206345E+00  1.606541772E+01 -2.164899718E+02  2.171514898E+02  3.814697266E-06  0.00000E+00  9.000E+00
#rwgt            1           1   2.9981038252772197E-002           4      288498           0
</event>
<event>
      5   9999  3.19816E-02  2.96121E+01 -1.00000E+00  1.53433E-01
      21    -1     0     0   502   511  0.000000000E+00  0.000000000E+00  3.593987283E+03  3.593987283E+03  0.000000000E+00  0.00000E+00  9.000E+00
      21    -1     0     0   501   502  0.000000000E+00  0.000000000E+00 -1.080560981E+01  1.080560981E+01  0.000000000E+00  0.00000E+00  9.000E+00
      25     1     1     2     0     0 -6.949999735E+01 -7.756739556E+01  1.164611030E+03  1.175921256E+03  1.250000000E+02  0.00000E+00  9.000E+00
      25     1     1     2     0     0  8.057704732E+01  1.050296850E+02  1.706399784E+03  1.716085405E+03  1.250000000E+02  0.00000E+00  9.000E+00
      21     1     1     2   501   511 -1.107704997E+01 -2.746228947E+01  7.121708595E+02  7.127862313E+02  1.078959322E-05  0.00000E+00  9.000E+00
#rwgt            1           1   2.2071820359771899E-002           4      288698           0
</event>
<event>
      5   9999  3.19816E-02  3.73357E+01 -1.00000E+00  1.46721E-01
      21    -1     0     0   512   501  0.000000000E+00  0.000000000E+00  9.527587800E+01  9.527587800E+01  0.000000000E+00  0.00000E+00  9.000E+00
      21    -1     0     0   501   502  0.000000000E+00  0.000000000E+00 -2.660786148E+03  2.660786148E+03  0.000000000E+00  0.00000E+00  9.000E+00
      25     1     1     2     0     0  1.928754853E+02  3.205045171E+02 -1.732648129E+03  1.776968946E+03  1.250000000E+02  0.00000E+00  9.000E+00
      25     1     1     2     0     0 -2.292725584E+02 -3.288236178E+02 -8.417896295E+02  9.407048729E+02  1.250000000E+02  0.00000E+00  9.000E+00
      21     1     1     2   512   502  3.639707308E+01  8.319100680E+00  8.927488271E+00  3.838820668E+01  1.440411326E-06  0.00000E+00  9.000E+00
#rwgt            1           1   6.8457050425828225E-002           4      288783           0
</event>
<event>
      5   9999  3.19816E-02  6.54696E+01 -1.00000E+00  1.32709E-01
      21    -1     0     0   502   501  0.000000000E+00  0.000000000E+00  2.611609957E+02  2.611609957E+02  0.000000000E+00  0.00000E+00  9.000E+00
      21    -1     0     0   511   502  0.000000000E+00  0.000000000E+00 -3.916190571E+02  3.916190571E+02  0.000000000E+00  0.00000E+00  9.000E+00
      25     1     1     2     0     0 -2.234389687E+02  4.456076637E+01 -1.042709089E+02  2.800143873E+02  1.250000000E+02  0.00000E+00  9.000E+00
      25     1     1     2     0     0  2.344634352E+02 -1.090955009E+02  2.688957892E+01  2.884839341E+02  1.250000000E+02  0.00000E+00  9.000E+00
      21     1     1     2   511   501 -1.102446647E+01  6.453473457E+01 -5.307673148E+01  8.428173142E+01  1.348699152E-06  0.00000E+00  9.000E+00
#rwgt            1           1   2.7779235898267970E-002           4      288887           0
</event>
<event>
      5   9999  3.19816E-02  2.72419E+02 -1.00000E+00  1.06971E-01
      21    -1     0     0   502   512  0.000000000E+00  0.000000000E+00  6.331270021E+02  6.331270021E+02  0.000000000E+00  0.00000E+00  9.000E+00
      21    -1     0     0   501   502  0.000000000E+00  0.000000000E+00 -2.182095484E+03  2.182095484E+03  0.000000000E+00  0.00000E+00  9.000E+00
      25     1     1     2     0     0 -3.270457648E+02  6.577104723E+02 -1.507796202E+03  1.681849097E+03  1.250000000E+02  0.00000E+00  9.000E+00
      25     1     1     2     0     0  7.719366254E+01 -7.662734410E+02 -2.161289845E+02  8.096113795E+02  1.250000000E+02  0.00000E+00  9.000E+00
      21     1     1     2   501   512  2.498521022E+02  1.085629687E+02  1.749567040E+02  3.237620105E+02  7.387129490E-06  0.00000E+00  9.000E+00
#rwgt            1           1   2.8881452738918671E-002           4      288978           0
</event>
<event>
      5   9999  3.19816E-02  1.97222E+02 -1.00000E+00  1.11870E-01
      21    -1     0     0   502   501  0.000000000E+00  0.000000000E+00  4.784118212E+02  4.784118212E+02  0.000000000E+00  0.00000E+00  9.000E+00
      21    -1     0     0   511   502  0.000000000E+00  0.000000000E+00 -4.702788167E+02  4.702788167E+02  0.000000000E+00  0.00000E+00  9.000E+00
      25     1     1     2     0     0  1.441002607E+02 -8.135121499E+01  9.955584838E+01  2.300418924E+02  1.250000000E+02  0.00000E+00  9.000E+00
      25     1     1     2     0     0  8.424837751E+00  2.063818241E+02  2.352270074E+02  3.370774098E+02  1.250000000E+02  0.00000E+00  9.000E+00
      21     1     1     2   511   501 -1.525250985E+02 -1.250306091E+02 -3.266498513E+02  3.815713357E+02  3.814697266E-06  0.00000E+00  9.000E+00
#rwgt            2          11   4.6844665865158949E-003           4      289047           0
</event>
<event>
      5   9999  3.19816E-02  6.14750E+01 -1.00000E+00  1.34142E-01
      21    -1     0     0   502   501  0.000000000E+00  0.000000000E+00  2.625889522E+03  2.625889522E+03  0.000000000E+00  0.00000E+00  9.000E+00
      21    -1     0     0   512   502  0.000000000E+00  0.000000000E+00 -4.506108305E+02  4.506108305E+02  0.000000000E+00  0.00000E+00  9.000E+00
      25     1     1     2     0     0  7.757526193E+02 -1.439423418E+02  1.159219668E+03  1.407809207E+03  1.250000000E+02  0.00000E+00  9.000E+00
      25     1     1     2     0     0 -8.280686176E+02  1.762257258E+02  1.200482351E+03  1.474291700E+03  1.250000000E+02  0.00000E+00  9.000E+00
      21     1     1     2   512   501  5.231599837E+01 -3.228338397E+01 -1.844233278E+02  1.943994454E+02  2.697398305E-06  0.00000E+00  9.000E+00
#rwgt            1           1   3.1372876133432662E-002           4      289067           0
</event>
<event>
      5   9999  3.19816E-02  8.83749E+01 -1.00000E+00  1.26291E-01
      21    -1     0     0   502   501  0.000000000E+00  0.000000000E+00  1.474315630E+03  1.474315630E+03  0.000000000E+00  0.00000E+00  9.000E+00
      21    -1     0     0   511   502  0.000000000E+00  0.000000000E+00 -1.101339197E+02  1.101339197E+02  0.000000000E+00  0.00000E+00  9.000E+00
      25     1     1     2     0     0  2.556685988E+02 -1.456274778E+01  1.087229977E+03  1.123953971E+03  1.250000000E+02  0.00000E+00  9.000E+00
      25     1     1     2     0     0 -2.259040777E+02 -6.864904310E+01  2.552610528E+02  3.694976976E+02  1.250000000E+02  0.00000E+00  9.000E+00
      21     1     1     2   511   501 -2.976452114E+01  8.321179089E+01  2.169068139E+01  9.099788196E+01  1.261592536E-06  0.00000E+00  9.000E+00
#rwgt            1           1   3.1787280256257398E-002           4      289198           0
</event>
<event>
      5   9999  3.19816E-02  6.30355E+01 -1.00000E+00  1.33568E-01
      21    -1     0     0   512   501  0.000000000E+00  0.000000000E+00  8.270266038E+02  8.270266038E+02  0.000000000E+00  0.00000E+00  9.000E+00
      21    -1     0     0   501   502  0.000000000E+00  0.000000000E+00 -9.843525183E+01  9.843525183E+01  0.000000000E+00  0.00000E+00  9.000E+00
      25     1     1     2     0     0 -1.097032724E+02  2.091569957E+02  3.579290569E+02  4.466762437E+02  1.250000000E+02  0.00000E+00  9.000E+00
      25     1     1     2     0     0  4.754770968E+01 -1.986610107E+02  2.814138130E+02  3.695209277E+02  1.250000000E+02  0.00000E+00  9.000E+00
      21     1     1     2   512   502  6.215556276E+01 -1.049598508E+01  8.924848200E+01  1.092646842E+02  1.907348633E-06  0.00000E+00  9.000E+00
#rwgt            2          11   3.1534675522050383E-003           4      289269           0
</event>
<event>
      5   9999  3.19816E-02  2.16278E+02 -1.00000E+00  1.10425E-01
      21    -1     0     0   511   501  0.000000000E+00  0.000000000E+00  4.401905834E+02  4.401905834E+02  0.000000000E+00  0.00000E+00  9.000E+00
      21    -1     0     0   501   502  0.000000000E+00  0.000000000E+00 -1.028150745E+03  1.028150745E+03  0.000000000E+00  0.00000E+00  9.000E+00
      25     1     1     2     0     0 -4.616209871E+02  2.873615643E+01 -7.383841302E+02  8.802021507E+02  1.250000000E+02  0.00000E+00  9.000E+00
      25     1     1     2     0     0  2.479008454E+02 -6.189735893E+01 -5.515377454E+01  2.897465289E+02  1.250000000E+02  0.00000E+00  9.000E+00
      21     1     1     2   511   502  2.137201417E+02  3.316120250E+01  2.055777432E+02  2.983926487E+02  8.092194914E-06  0.00000E+00  9.000E+00
#rwgt            1           1   2.6226117767702423E-002           4      289304           0
</event>
<event>
      5   9999  3.19816E-02  1.36915E+02 -1.00000E+00  1.17987E-01
      21    -1     0     0   502   501  0.000000000E+00  0.000000000E+00  2.848325922E+02  2.848325922E+02  0.000000000E+00  0.00000E+00  9.000E+00
      21    -1     0     0   512   502  0.000000000E+00  0.000000000E+00 -1.719849037E+03  1.719849037E+03  0.000000000E+00  0.00000E+00  9.000E+00
      25     1     1     2     0     0 -3.523070221E+02 -1.036409302E+02 -1.384448340E+02  4.118903402E+02  1.250000000E+02  0.00000E+00  9.000E+00
      25     1     1     2     0     0  2.743752098E+02  2.162119244E+02 -9.438764970E+01  3.828359707E+02  1.250000000E+02  0.00000E+00  9.000E+00
      21     1     1     2   512   501  7.793181230E+01 -1.125709941E+02 -1.202183961E+03  1.209955318E+03  0.000000000E+00  0.00000E+00  9.000E+00
#rwgt            1           1   2.1029436260514407E-002           4      289431           0
</event>
<event>
      5   9999  3.19816E-02  9.27260E+00 -1.00000E+00  1.99627E-01
      21    -1     0     0   502   511  0.000000000E+00  0.000000000E+00  3.221742161E+03  3.221742161E+03  0.000000000E+00  0.00000E+00  9.000E+00
      21    -1     0     0   501   502  0.000000000E+00  0.000000000E+00 -1.265156969E+01  1.265156969E+01  0.000000000E+00  0.00000E+00  9.000E+00
      25     1     1     2     0     0 -1.353323423E+02  3.024209623E+01  1.679231418E+03  1.689577635E+03  1.250000000E+02  0.00000E+00  9.000E+00
      25     1     1     2     0     0  1.265127601E+02 -2.737920715E+01  1.082005924E+03  1.096866865E+03  1.250000000E+02  0.00000E+00  9.000E+00
      21     1     1     2   501   511  8.819582202E+00 -2.862889080E+00  4.478532490E+02  4.479492313E+02  7.629394531E-06  0.00000E+00  9.000E+00
#rwgt            1           1   3.2257163093496341E-002           4      289486           0
</event>
<event>
      5   9999  3.19816E-02  3.00655E+02 -1.00000E+00  1.05561E-01
      -1    -1     0     0     0   501  0.000000000E+00  0.000000000E+00  1.188539453E+03  1.188539453E+03  0.000000000E+00  0.00000E+00  9.000E+00
      21    -1     0     0   501   502  0.000000000E+00  0.000000000E+00 -5.052687611E+02  5.052687611E+02  0.000000000E+00  0.00000E+00  9.000E+00
      25     1     1     2     0     0 -2.453569460E+01 -3.244664113E+02  4.968163572E+01  3.520990163E+02  1.250000000E+02  0.00000E+00  9.000E+00
      25     1     1     2     0     0  4.575042278E+00  2.447441267E+01 -3.186175214E+02  3.431647605E+02  1.250000000E+02  0.00000E+00  9.000E+00
      -1     1     1     2     0   502  1.996065232E+01  2.999919986E+02  9.522065772E+02  9.985444369E+02  1.078959322E-05  0.00000E+00  9.000E+00
#rwgt            2           5   2.7467281609001778E-004           4      289667           0
</event>
<event>
      5   9999  3.19816E-02  2.26629E+02 -1.00000E+00  1.09707E-01
      21    -1     0     0   502   501  0.000000000E+00  0.000000000E+00  3.900026508E+02  3.900026508E+02  0.000000000E+00  0.00000E+00  9.000E+00
      21    -1     0     0   511   502  0.000000000E+00  0.000000000E+00 -1.088996748E+03  1.088996748E+03  0.000000000E+00  0.00000E+00  9.000E+00
      25     1     1     2     0     0 -1.317086191E+02  8.454371858E+01  2.623787158E+02  3.300945186E+02  1.250000000E+02  0.00000E+00  9.000E+00
      25     1     1     2     0     0  2.343199920E+02 -2.866118585E+02 -4.972277648E+02  6.323864848E+02  1.250000000E+02  0.00000E+00  9.000E+00
      21     1     1     2   511   501 -1.026113728E+02  2.020681399E+02 -4.641450478E+02  5.165183950E+02  5.394796609E-06  0.00000E+00  9.000E+00
#rwgt            1           1   2.5735980307046543E-002           4      289716           0
</event>
<event>
      5   9999  3.19816E-02  3.00336E+02 -1.00000E+00  1.05576E-01
      21    -1     0     0   502   501  0.000000000E+00  0.000000000E+00  1.401842452E+03  1.401842452E+03  0.000000000E+00  0.00000E+00  9.000E+00
      21    -1     0     0   501   512  0.000000000E+00  0.000000000E+00 -7.842271268E+02  7.842271268E+02  0.000000000E+00  0.00000E+00  9.000E+00
      25     1     1     2     0     0 -6.287063284E+02  2.215739124E+02  1.008637373E+03  1.215459171E+03  1.250000000E+02  0.00000E+00  9.000E+00
      25     1     1     2     0     0  4.196756822E+02 -5.917333261E+00  4.599146287E+01  4.403440788E+02  1.250000000E+02  0.00000E+00  9.000E+00
      21     1     1     2   502   512  2.090306462E+02 -2.156565791E+02 -4.370135107E+02  5.302663290E+02  1.078959322E-05  0.00000E+00  9.000E+00
#rwgt            1           1   3.0273064581155581E-002           4      289756           0
</event>
<event>
      5   9999  3.19816E-02  1.24907E+02 -1.00000E+00  1.19634E-01
       2    -1     0     0   502     0  0.000000000E+00  0.000000000E+00  7.297847331E+02  7.297847331E+02  0.000000000E+00  0.00000E+00  9.000E+00
      21    -1     0     0   501   502  0.000000000E+00  0.000000000E+00 -2.863408703E+02  2.863408703E+02  0.000000000E+00  0.00000E+00  9.000E+00
      25     1     1     2     0     0  2.283211125E+02  8.552307645E+01 -6.451766855E+01  2.814822491E+02  1.250000000E+02  0.00000E+00  9.000E+00
      25     1     1     2     0     0 -3.519953033E+02 -6.801625088E+01  4.697938571E+02  6.040349097E+02  1.250000000E+02  0.00000E+00  9.000E+00
       2     1     1     2   501     0  1.236741908E+02 -1.750682558E+01  3.816767429E+01  1.306084445E+02  1.168007728E-06  0.00000E+00  9.000E+00
#rwgt            2          18   1.4298656582856478E-004           4      289919           0
</event>
<event>
      5   9999  3.19816E-02  1.65035E+01 -1.00000E+00  1.73563E-01
      21    -1     0     0   502   501  0.000000000E+00  0.000000000E+00  3.631722922E+02  3.631722922E+02  0.000000000E+00  0.00000E+00  9.000E+00
      21    -1     0     0   501   511  0.000000000E+00  0.000000000E+00 -6.586207051E+02  6.586207051E+02  0.000000000E+00  0.00000E+00  9.000E+00
      25     1     1     2     0     0 -8.808681440E+01  3.218195111E+02  1.379553742E+02  3.820782248E+02  1.250000000E+02  0.00000E+00  9.000E+00
      25     1     1     2     0     0  7.398168301E+01 -3.303874639E+02 -2.137787130E+02  4.194705042E+02  1.250000000E+02  0.00000E+00  9.000E+00
      21     1     1     2   502   511  1.410513139E+01  8.567952834E+00 -2.196250742E+02  2.202442684E+02  2.697398305E-06  0.00000E+00  9.000E+00
#rwgt            1           1   2.9883112045497519E-002           4      289983           0
</event>
<event>
      5   9999  3.19816E-02  3.46564E+01 -1.00000E+00  1.48811E-01
      21    -1     0     0   502   501  0.000000000E+00  0.000000000E+00  9.374329029E+02  9.374329029E+02  0.000000000E+00  0.00000E+00  9.000E+00
       4    -1     0     0   501     0  0.000000000E+00  0.000000000E+00 -1.712949556E+03  1.712949556E+03  0.000000000E+00  0.00000E+00  9.000E+00
      25     1     1     2     0     0 -3.448502986E+01  8.972926847E+02  1.786934794E+02  9.240561340E+02  1.250000000E+02  0.00000E+00  9.000E+00
      25     1     1     2     0     0  4.316681920E+01 -8.637413794E+02 -1.091971392E+02  8.806029525E+02  1.250000000E+02  0.00000E+00  9.000E+00
       4     1     1     2   502     0 -8.681789339E+00 -3.355130526E+01 -8.450129937E+02  8.457233727E+02  0.000000000E+00  0.00000E+00  9.000E+00
#rwgt            1           1   3.2610723808934081E-002           4      290238           0
</event>
<event>
      5   9999  3.19816E-02  7.19870E+01 -1.00000E+00  1.30608E-01
      21    -1     0     0   502   501  0.000000000E+00  0.000000000E+00  5.136299599E+02  5.136299599E+02  0.000000000E+00  0.00000E+00  9.000E+00
      21    -1     0     0   501   511  0.000000000E+00  0.000000000E+00 -5.032289419E+02  5.032289419E+02  0.000000000E+00  0.00000E+00  9.000E+00
      25     1     1     2     0     0  3.300471090E+02 -1.164327157E+02 -2.284343534E+02  4.362280656E+02  1.250000000E+02  0.00000E+00  9.000E+00
      25     1     1     2     0     0 -3.869437411E+02  1.605337099E+02  2.560162570E+02  5.066220038E+02  1.250000000E+02  0.00000E+00  9.000E+00
      21     1     1     2   502   511  5.689663213E+01 -4.410099428E+01 -1.718088559E+01  7.400883241E+01  1.390207266E-06  0.00000E+00  9.000E+00
#rwgt            1           1   3.1154168027246368E-002           4      290398           0
</event>
<event>
      5   9999  3.19816E-02  7.55115E+01 -1.00000E+00  1.29575E-01
       2    -1     0     0   502     0  0.000000000E+00  0.000000000E+00  1.437201426E+03  1.437201426E+03  0.000000000E+00  0.00000E+00  9.000E+00
      21    -1     0     0   501   502  0.000000000E+00  0.000000000E+00 -4.468574108E+02  4.468574108E+02  0.000000000E+00  0.00000E+00  9.000E+00
      25     1     1     2     0     0  3.167908264E+02  5.227082896E+02  2.869347836E+01  6.245227774E+02  1.250000000E+02  0.00000E+00  9.000E+00
      25     1     1     2     0     0 -3.158597473E+02 -5.982140518E+02  6.775459215E+02  9.655676607E+02  1.250000000E+02  0.00000E+00  9.000E+00
       2     1     1     2   501     0 -9.310790979E-01  7.550576214E+01  2.841046150E+02  2.939683984E+02  3.814697266E-06  0.00000E+00  9.000E+00
#rwgt            1           1   3.3144158972672512E-002           4      290484           0
</event>
<event>
      5   9999  3.19816E-02  9.67767E+02 -1.00000E+00  9.13341E-02
      21    -1     0     0   511   501  0.000000000E+00  0.000000000E+00  4.765891122E+02  4.765891122E+02  0.000000000E+00  0.00000E+00  9.000E+00
      21    -1     0     0   501   502  0.000000000E+00  0.000000000E+00 -2.285096411E+03  2.285096411E+03  0.000000000E+00  0.00000E+00  9.000E+00
      25     1     1     2     0     0  4.017466770E+02  3.691861429E+02 -5.788077270E+02  8.051969855E+02  1.250000000E+02  0.00000E+00  9.000E+00
      25     1     1     2     0     0  2.432133461E+01  4.997434600E+02 -6.449269531E+02  8.257668121E+02  1.250000000E+02  0.00000E+00  9.000E+00
      21     1     1     2   511   502 -4.260680116E+02 -8.689296029E+02 -5.847726186E+02  1.130721726E+03  7.629394531E-06  0.00000E+00  9.000E+00
#rwgt            1           1   2.5224961655230815E-002           4      290620           0
</event>
<event>
      5   9999  3.19816E-02  3.63616E+01 -1.00000E+00  1.47456E-01
      21    -1     0     0   502   512  0.000000000E+00  0.000000000E+00  7.033178332E+02  7.033178332E+02  0.000000000E+00  0.00000E+00  9.000E+00
      21    -1     0     0   501   502  0.000000000E+00  0.000000000E+00 -1.322381648E+03  1.322381648E+03  0.000000000E+00  0.00000E+00  9.000E+00
      25     1     1     2     0     0  3.392686705E+02 -7.245180858E+02 -8.046223804E+02  1.141521731E+03  1.250000000E+02  0.00000E+00  9.000E+00
      25     1     1     2     0     0 -3.177945739E+02  7.538614034E+02  1.714493287E+02  8.451747033E+02  1.250000000E+02  0.00000E+00  9.000E+00
      21     1     1     2   501   512 -2.147409667E+01 -2.934331768E+01  1.410923674E+01  3.900304708E+01  5.057621821E-07  0.00000E+00  9.000E+00
#rwgt            1           1   1.9883738566324388E-002           4      290658           0
</event>
<event>
      5   9999  3.19816E-02  9.20911E+01 -1.00000E+00  1.25459E-01
      21    -1     0     0   511   501  0.000000000E+00  0.000000000E+00  9.696436447E+02  9.696436447E+02  0.000000000E+00  0.00000E+00  9.000E+00
      21    -1     0     0   501   502  0.000000000E+00  0.000000000E+00 -7.612787610E+01  7.612787610E+01  0.000000000E+00  0.00000E+00  9.000E+00
      25     1     1     2     0     0  2.084433205E+01  1.493193900E+02  2.365240097E+02  3.070820307E+02  1.250000000E+02  0.00000E+00  9.000E+00
      25     1     1     2     0     0  7.044371085E+01 -1.371838083E+02  2.390763780E+02  3.107478531E+02  1.250000000E+02  0.00000E+00  9.000E+00
      21     1     1     2   511   502 -9.128804290E+01 -1.213558164E+01  4.179153809E+02  4.279416370E+02  5.394796609E-06  0.00000E+00  9.000E+00
#rwgt            1           1   3.0207852648827208E-002           4      290884           0
</event>
<event>
      5   9999  3.19816E-02  6.89065E+01 -1.00000E+00  1.31568E-01
      21    -1     0     0   512   501  0.000000000E+00  0.000000000E+00  1.266017760E+02  1.266017760E+02  0.000000000E+00  0.00000E+00  9.000E+00
      21    -1     0     0   501   502  0.000000000E+00  0.000000000E+00 -9.667964518E+02  9.667964518E+02  0.000000000E+00  0.00000E+00  9.000E+00
      25     1     1     2     0     0  1.506335272E+02  7.030862356E+01 -7.444099233E+02  7.729197215E+02  1.250000000E+02  0.00000E+00  9.000E+00
      25     1     1     2     0     0 -1.838185468E+02 -9.919439748E+00 -1.128431916E+02  2.494919625E+02  1.250000000E+02  0.00000E+00  9.000E+00
      21     1     1     2   512   502  3.318501964E+01 -6.038918381E+01  1.705843906E+01  7.098654375E+01  1.011524364E-06  0.00000E+00  9.000E+00
#rwgt            1           1   3.3554944530816824E-002           4      290985           0
</event>
<event>
      5   9999  3.19816E-02  3.47796E+02 -1.00000E+00  1.03547E-01
       2    -1     0     0   502     0  0.000000000E+00  0.000000000E+00  2.380851026E+03  2.380851026E+03  0.000000000E+00  0.00000E+00  9.000E+00
      21    -1     0     0   501   502  0.000000000E+00  0.000000000E+00 -1.112935491E+03  1.112935491E+03  0.000000000E+00  0.00000E+00  9.000E+00
      25     1     1     2     0     0 -5.610825652E+02  6.356853942E+02 -6.632639212E+02  1.083722102E+03  1.250000000E+02  0.00000E+00  9.000E+00
      25     1     1     2     0     0  3.829718099E+02 -9.344138039E+02  1.047327771E+03  1.460245535E+03  1.250000000E+02  0.00000E+00  9.000E+00
       2     1     1     2   501     0  1.781107553E+02  2.987284097E+02  8.838516856E+02  9.498188806E+02  0.000000000E+00  0.00000E+00  9.000E+00
#rwgt            2          18   1.8296619687168103E-003           4      291148           0
</event>
<event>
      5   9999  3.19816E-02  1.97434E+01 -1.00000E+00  1.66833E-01
      21    -1     0     0   511   501  0.000000000E+00  0.000000000E+00  1.086428150E+02  1.086428150E+02  0.000000000E+00  0.00000E+00  9.000E+00
      21    -1     0     0   501   502  0.000000000E+00  0.000000000E+00 -9.955620353E+02  9.955620353E+02  0.000000000E+00  0.00000E+00  9.000E+00
      25     1     1     2     0     0 -2.461531463E+02  2.869999063E+01 -1.717307120E+02  3.263916334E+02  1.250000000E+02  0.00000E+00  9.000E+00
      25     1     1     2     0     0  2.397600224E+02 -4.737969442E+01 -7.027918329E+02  7.545005395E+02  1.250000000E+02  0.00000E+00  9.000E+00
      21     1     1     2   511   502  6.393123837E+00  1.867970379E+01 -1.239667543E+01  2.331267740E+01  1.685873940E-07  0.00000E+00  9.000E+00
#rwgt            1           1   2.8421492488884276E-002           4      291167           0
</event>
<event>
      5   9999  3.19816E-02  2.54812E+02 -1.00000E+00  1.07948E-01
      21    -1     0     0   502   501  0.000000000E+00  0.000000000E+00  1.449854663E+02  1.449854663E+02  0.000000000E+00  0.00000E+00  9.000E+00
      21    -1     0     0   512   502  0.000000000E+00  0.000000000E+00 -1.093764382E+03  1.093764382E+03  0.000000000E+00  0.00000E+00  9.000E+00
      25     1     1     2     0     0 -8.895967678E+01  3.562441814E+01  2.751545355E+01  1.598906609E+02  1.250000000E+02  0.00000E+00  9.000E+00
      25     1     1     2     0     0 -1.432592344E+02  6.927442614E+01 -4.819266391E+02  5.226857946E+02  1.250000000E+02  0.00000E+00  9.000E+00
      21     1     1     2   512   501  2.322189111E+02 -1.048988443E+02 -4.943677299E+02  5.561733926E+02  0.000000000E+00  0.00000E+00  9.000E+00
#rwgt            1           1   3.1066412378937140E-002           4      291305           0
</event>
<event>
      5   9999  3.19816E-02  1.12183E+02 -1.00000E+00  1.21623E-01
      21    -1     0     0   502   501  0.000000000E+00  0.000000000E+00  1.390015341E+03  1.390015341E+03  0.000000000E+00  0.00000E+00  9.000E+00
      21    -1     0     0   511   502  0.000000000E+00  0.000000000E+00 -1.871895196E+02  1.871895196E+02  0.000000000E+00  0.00000E+00  9.000E+00
      25     1     1     2     0     0 -1.722956847E+02 -2.985453331E+02  3.022767074E+02  4.751960930E+02  1.250000000E+02  0.00000E+00  9.000E+00
      25     1     1     2     0     0  1.463086561E+02  4.076764974E+02  8.788754176E+02  9.877516637E+02  1.250000000E+02  0.00000E+00  9.000E+00
      21     1     1     2   511   501  2.598702859E+01 -1.091311642E+02  2.167369632E+01  1.142571038E+02  5.331201500E-07  0.00000E+00  9.000E+00
#rwgt            1           1   2.8021683416685320E-002           4      291365           0
</event>
<event>
      5   9999  3.19816E-02  8.89728E+01 -1.00000E+00  1.26154E-01
      -5    -1     0     0     0   501  0.000000000E+00  0.000000000E+00  8.611214659E+02  8.611214659E+02  0.000000000E+00  0.00000E+00  9.000E+00
      21    -1     0     0   501   502  0.000000000E+00  0.000000000E+00 -4.368510349E+02  4.368510349E+02  0.000000000E+00  0.00000E+00  9.000E+00
      25     1     1     2     0     0 -1.648376700E+02 -5.499800765E+02  3.452897102E+02  6.815420207E+02  1.250000000E+02  0.00000E+00  9.000E+00
      25     1     1     2     0     0  1.071361170E+02  4.822550162E+02  2.056740935E+01  5.099961437E+02  1.250000000E+02  0.00000E+00  9.000E+00
      -5     1     1     2     0   502  5.770155301E+01  6.772506029E+01  5.841331151E+01  1.064343364E+02  0.000000000E+00  0.00000E+00  9.000E+00
#rwgt            2           1   4.5537945128720212E-006           4      291432           0
</event>
<event>
      5   9999  3.19816E-02  1.38642E+02 -1.00000E+00  1.17765E-01
      21    -1     0     0   502   501  0.000000000E+00  0.000000000E+00  6.266000142E+02  6.266000142E+02  0.000000000E+00  0.00000E+00  9.000E+00
      21    -1     0     0   511   502  0.000000000E+00  0.000000000E+00 -1.709093984E+03  1.709093984E+03  0.000000000E+00  0.00000E+00  9.000E+00
      25     1     1     2     0     0 -2.298854431E+01 -2.666204838E+01 -2.335736537E+02  2.672470574E+02  1.250000000E+02  0.00000E+00  9.000E+00
      25     1     1     2     0     0  1.386621329E+02  1.030905092E+02  5.876769335E+02  6.251751902E+02  1.250000000E+02  0.00000E+00  9.000E+00
      21     1     1     2   511   501 -1.156735886E+02 -7.642846085E+01 -1.436597250E+03  1.443271751E+03  2.157918644E-05  0.00000E+00  9.000E+00
#rwgt            1           1   2.8304427812337177E-002           4      291481           0
</event>
<event>
      5   9999  3.19816E-02  1.62156E+01 -1.00000E+00  1.74254E-01
      21    -1     0     0   502   512  0.000000000E+00  0.000000000E+00  2.314325399E+02  2.314325399E+02  0.000000000E+00  0.00000E+00  9.000E+00
      21    -1     0     0   501   502  0.000000000E+00  0.000000000E+00 -2.168764078E+03  2.168764078E+03  0.000000000E+00  0.00000E+00  9.000E+00
      25     1     1     2     0     0  4.629704051E+02  3.362313828E+02 -4.145735496E+02  7.175579188E+02  1.250000000E+02  0.00000E+00  9.000E+00
      25     1     1     2     0     0 -4.777286962E+02 -3.295129111E+02 -1.544990684E+03  1.655120745E+03  1.250000000E+02  0.00000E+00  9.000E+00
      21     1     1     2   501   512  1.475829104E+01 -6.718471740E+00  2.223269605E+01  2.751795396E+01  6.743495762E-07  0.00000E+00  9.000E+00
#rwgt            1           1   3.1947136956955870E-002           4      291535           0
</event>
<event>
      5   9999  3.19816E-02  1.02548E+02 -1.00000E+00  1.23338E-01
      21    -1     0     0   502   501  0.000000000E+00  0.000000000E+00  2.898315169E+02  2.898315169E+02  0.000000000E+00  0.00000E+00  9.000E+00
      21    -1     0     0   501   511  0.000000000E+00  0.000000000E+00 -8.741103661E+02  8.741103661E+02  0.000000000E+00  0.00000E+00  9.000E+00
      25     1     1     2     0     0  1.771576097E+02  9.022150639E+01 -3.875894787E+02  4.531835642E+02  1.250000000E+02  0.00000E+00  9.000E+00
      25     1     1     2     0     0 -8.764908354E+01 -1.402653674E+02  2.077627030E+02  2.935082212E+02  1.250000000E+02  0.00000E+00  9.000E+00
      21     1     1     2   502   511 -8.950852618E+01  5.004386101E+01 -4.044520734E+02  4.172500976E+02  5.394796609E-06  0.00000E+00  9.000E+00
#rwgt            2          11   2.1715293965598086E-003           4      291712           0
</event>
<event>
      5   9999  3.19816E-02  4.82017E+01 -1.00000E+00  1.39989E-01
      21    -1     0     0   502   501  0.000000000E+00  0.000000000E+00  8.113160739E+01  8.113160739E+01  0.000000000E+00  0.00000E+00  9.000E+00
      21    -1     0     0   512   502  0.000000000E+00  0.000000000E+00 -5.794841194E+02  5.794841194E+02  0.000000000E+00  0.00000E+00  9.000E+00
      25     1     1     2     0     0  1.039254417E+02 -6.089354635E+01 -3.658576019E+02  4.049509925E+02  1.250000000E+02  0.00000E+00  9.000E+00
      25     1     1     2     0     0 -9.336309415E+01  1.386334898E+01 -5.818538415E+01  1.670909894E+02  1.250000000E+02  0.00000E+00  9.000E+00
      21     1     1     2   512   501 -1.056234754E+01  4.703019737E+01 -7.430952592E+01  8.857374494E+01  1.348699152E-06  0.00000E+00  9.000E+00
#rwgt            1           1   3.3453262635400542E-002           4      291732           0
</event>
<event>
      5   9999  3.19816E-02  1.80433E+02 -1.00000E+00  1.13300E-01
      21    -1     0     0   502   511  0.000000000E+00  0.000000000E+00  7.100433247E+02  7.100433247E+02  0.000000000E+00  0.00000E+00  9.000E+00
      21    -1     0     0   501   502  0.000000000E+00  0.000000000E+00 -6.676091372E+02  6.676091372E+02  0.000000000E+00  0.00000E+00  9.000E+00
      25     1     1     2     0     0 -2.129433793E+02  4.635291583E+02  3.044653791E+02  6.070653428E+02  1.250000000E+02  0.00000E+00  9.000E+00
      25     1     1     2     0     0  3.189677032E+02 -3.175329078E+02 -3.361845938E+02  5.755107508E+02  1.250000000E+02  0.00000E+00  9.000E+00
      21     1     1     2   501   511 -1.060243239E+02 -1.459962505E+02  7.415340217E+01  1.950763683E+02  9.536743164E-07  0.00000E+00  9.000E+00
#rwgt            2          11   5.8246743954592940E-003           4      291867           0
</event>
<event>
      5   9999  3.19816E-02  1.76107E+01 -1.00000E+00  1.71061E-01
      21    -1     0     0   512   501  0.000000000E+00  0.000000000E+00  8.976910977E+02  8.976910977E+02  0.000000000E+00  0.00000E+00  9.000E+00
      21    -1     0     0   501   502  0.000000000E+00  0.000000000E+00 -3.262742260E+02  3.262742260E+02  0.000000000E+00  0.00000E+00  9.000E+00
      25     1     1     2     0     0 -9.031676858E+01  1.936058886E+02 -1.190405456E+02  2.746561674E+02  1.250000000E+02  0.00000E+00  9.000E+00
      25     1     1     2     0     0  7.731912289E+01 -2.054885949E+02 -5.916192432E+00  2.527129018E+02  1.250000000E+02  0.00000E+00  9.000E+00
      21     1     1     2   512   502  1.299764569E+01  1.188270638E+01  6.963736098E+02  6.965962546E+02  1.525878906E-05  0.00000E+00  9.000E+00
#rwgt            1           1   2.5900108504119040E-002           4      291887           0
</event>
<event>
      5   9999  3.19816E-02  6.63578E+01 -1.00000E+00  1.32407E-01
      21    -1     0     0   502   501  0.000000000E+00  0.000000000E+00  2.295494638E+02  2.295494638E+02  0.000000000E+00  0.00000E+00  9.000E+00
      21    -1     0     0   501   511  0.000000000E+00  0.000000000E+00 -1.285810408E+03  1.285810408E+03  0.000000000E+00  0.00000E+00  9.000E+00
      25     1     1     2     0     0 -1.820462136E+02 -2.755830033E+02  4.025646662E+01  3.554326923E+02  1.250000000E+02  0.00000E+00  9.000E+00
      25     1     1     2     0     0  1.916846310E+02  2.099289403E+02 -8.634307302E+02  9.175787615E+02  1.250000000E+02  0.00000E+00  9.000E+00
      21     1     1     2   502   511 -9.638417365E+00  6.565406300E+01 -2.330866809E+02  2.423484183E+02  3.814697266E-06  0.00000E+00  9.000E+00
#rwgt            1           1   2.9568273910176957E-002           4      292059           0
</event>
<event>
      5   9999  3.19816E-02  1.33407E+01 -1.00000E+00  1.82318E-01
      21    -1     0     0   502   501  0.000000000E+00  0.000000000E+00  1.112892278E+03  1.112892278E+03  0.000000000E+00  0.00000E+00  9.000E+00
      21    -1     0     0   512   502  0.000000000E+00  0.000000000E+00 -4.216818015E+02  4.216818015E+02  0.000000000E+00  0.00000E+00  9.000E+00
      25     1     1     2     0     0  6.700758181E+01  6.481215869E+02  2.114206186E+02  6.963298683E+02  1.250000000E+02  0.00000E+00  9.000E+00
      25     1     1     2     0     0 -5.444854255E+01 -6.526211350E+02  4.844277510E+02  8.241202798E+02  1.250000000E+02  0.00000E+00  9.000E+00
      21     1     1     2   512   501 -1.255903927E+01  4.499548060E+00 -4.637892773E+00  1.412393180E+01  2.384185791E-07  0.00000E+00  9.000E+00
#rwgt            1           1   3.0739504804253540E-002           4      292120           0
</event>
<event>
      5   9999  3.19816E-02  1.74781E+02 -1.00000E+00  1.13821E-01
      21    -1     0     0   511   501  0.000000000E+00  0.000000000E+00  3.811682009E+02  3.811682009E+02  0.000000000E+00  0.00000E+00  9.000E+00
      21    -1     0     0   501   502  0.000000000E+00  0.000000000E+00 -3.283713849E+02  3.283713849E+02  0.000000000E+00  0.00000E+00  9.000E+00
      25     1     1     2     0     0  1.313872231E+01  3.121323707E+02  5.169156481E+01  3.404353987E+02  1.250000000E+02  0.00000E+00  9.000E+00
      25     1     1     2     0     0  2.822420373E+01 -1.423157764E+02 -2.213994841E+01  1.927837213E+02  1.250000000E+02  0.00000E+00  9.000E+00
      21     1     1     2   511   502 -4.136292604E+01 -1.698165943E+02  2.324519962E+01  1.763204658E+02  1.507891493E-06  0.00000E+00  9.000E+00
#rwgt            1           1   3.1658398388680266E-002           4      292393           0
</event>
<event>
      5   9999  3.19816E-02  7.44009E+01 -1.00000E+00  1.29893E-01
      21    -1     0     0   502   512  0.000000000E+00  0.000000000E+00  7.014118967E+02  7.014118967E+02  0.000000000E+00  0.00000E+00  9.000E+00
      21    -1     0     0   501   502  0.000000000E+00  0.000000000E+00 -1.447537945E+03  1.447537945E+03  0.000000000E+00  0.00000E+00  9.000E+00
      25     1     1     2     0     0  7.546520968E+01 -4.335494101E+02 -1.304567704E+03  1.382455056E+03  1.250000000E+02  0.00000E+00  9.000E+00
      25     1     1     2     0     0 -1.219779604E+02  3.754799781E+02  5.543941102E+02  6.919838627E+02  1.250000000E+02  0.00000E+00  9.000E+00
      21     1     1     2   501   512  4.651275074E+01  5.806943206E+01  4.047545654E+00  7.451092233E+01  1.288067268E-06  0.00000E+00  9.000E+00
#rwgt            1           1   3.6651630793757585E-002           4      292506           0
</event>
<event>
      5   9999  3.19816E-02  9.16673E+00 -1.00000E+00  2.00229E-01
      21    -1     0     0   511   501  0.000000000E+00  0.000000000E+00  3.243074341E+02  3.243074341E+02  0.000000000E+00  0.00000E+00  9.000E+00
      21    -1     0     0   501   502  0.000000000E+00  0.000000000E+00 -3.202148216E+02  3.202148216E+02  0.000000000E+00  0.00000E+00  9.000E+00
      25     1     1     2     0     0 -3.863798096E+01  2.174036437E+02  1.888010113E+01  2.544380004E+02  1.250000000E+02  0.00000E+00  9.000E+00
      25     1     1     2     0     0  3.424364265E+01 -2.093588464E+02 -1.273064537E+02  2.771925085E+02  1.250000000E+02  0.00000E+00  9.000E+00
      21     1     1     2   511   502  4.394338311E+00 -8.044797316E+00  1.125189651E+02  1.128917467E+02  1.907348633E-06  0.00000E+00  9.000E+00
#rwgt            1           1   2.8056058041277292E-002           4      292612           0
</event>
<event>
      5   9999  3.19816E-02  7.73317E+01 -1.00000E+00  1.29067E-01
       2    -1     0     0   502     0  0.000000000E+00  0.000000000E+00  5.205205578E+02  5.205205578E+02  0.000000000E+00  0.00000E+00  9.000E+00
      21    -1     0     0   501   502  0.000000000E+00  0.000000000E+00 -5.811122575E+02  5.811122575E+02  0.000000000E+00  0.00000E+00  9.000E+00
      25     1     1     2     0     0  1.778786154E+02 -8.145881064E+01 -4.947392122E+02  5.465054691E+02  1.250000000E+02  0.00000E+00  9.000E+00
      25     1     1     2     0     0 -1.129141276E+02  3.950874110E+01  7.643324485E+01  1.891496280E+02  1.250000000E+02  0.00000E+00  9.000E+00
       2     1     1     2   501     0 -6.496448780E+01  4.195006954E+01  3.577142676E+02  3.659777183E+02  5.394796609E-06  0.00000E+00  9.000E+00
#rwgt            1           1   2.9486884995195622E-002           4      292870           0
</event>
<event>
      5   9999  3.19816E-02  3.64596E+01 -1.00000E+00  1.47381E-01
      21    -1     0     0   511   501  0.000000000E+00  0.000000000E+00  1.374117127E+02  1.374117127E+02  0.000000000E+00  0.00000E+00  9.000E+00
      21    -1     0     0   501   502  0.000000000E+00  0.000000000E+00 -7.203256365E+02  7.203256365E+02  0.000000000E+00  0.00000E+00  9.000E+00
      25     1     1     2     0     0 -1.394339798E+01 -1.233003901E+02 -2.188679130E+01  1.774864394E+02  1.250000000E+02  0.00000E+00  9.000E+00
      25     1     1     2     0     0 -1.050232578E+01  9.625024896E+01 -6.037357709E+02  6.240963790E+02  1.250000000E+02  0.00000E+00  9.000E+00
      21     1     1     2   511   502  2.444572375E+01  2.705014113E+01  4.270863830E+01  5.615453080E+01  0.000000000E+00  0.00000E+00  9.000E+00
#rwgt            1           1   2.6181083862583311E-002           4      292973           0
</event>
<event>
      5   9999  3.19816E-02  1.30475E+02 -1.00000E+00  1.18845E-01
      21    -1     0     0   502   501  0.000000000E+00  0.000000000E+00  2.143684280E+02  2.143684280E+02  0.000000000E+00  0.00000E+00  9.000E+00
      21    -1     0     0   512   502  0.000000000E+00  0.000000000E+00 -4.919369208E+02  4.919369208E+02  0.000000000E+00  0.00000E+00  9.000E+00
      25     1     1     2     0     0  7.887035379E+01 -1.804444502E+02 -1.992301528E+02  3.067546024E+02  1.250000000E+02  0.00000E+00  9.000E+00
      25     1     1     2     0     0 -7.050040661E+01  5.023773307E+01  9.747537303E+01  1.806116981E+02  1.250000000E+02  0.00000E+00  9.000E+00
      21     1     1     2   512   501 -8.369947180E+00  1.302067171E+02 -1.758137130E+02  2.189390483E+02  3.303624740E-06  0.00000E+00  9.000E+00
#rwgt            1           1   2.5711271844733971E-002           4      293069           0
</event>
<event>
      5   9999  3.19816E-02  3.49455E+01 -1.00000E+00  1.48575E-01
      21    -1     0     0   511   501  0.000000000E+00  0.000000000E+00  4.254824011E+02  4.254824011E+02  0.000000000E+00  0.00000E+00  9.000E+00
      21    -1     0     0   501   502  0.000000000E+00  0.000000000E+00 -3.760389958E+03  3.760389958E+03  0.000000000E+00  0.00000E+00  9.000E+00
      25     1     1     2     0     0 -4.341327009E+02 -9.994469149E+02 -6.876280866E+02  1.294535717E+03  1.250000000E+02  0.00000E+00  9.000E+00
      25     1     1     2     0     0  4.635188371E+02  9.805354718E+02 -2.638283122E+03  2.855251715E+03  1.250000000E+02  0.00000E+00  9.000E+00
      21     1     1     2   511   502 -2.938613616E+01  1.891144316E+01 -8.996348436E+00  3.608492713E+01  6.951036328E-07  0.00000E+00  9.000E+00
#rwgt            1           1  0.12956377392678395                4      293134           0
</event>
<event>
      5   9999  3.19816E-02  9.75030E+01 -1.00000E+00  1.24324E-01
      21    -1     0     0   502   501  0.000000000E+00  0.000000000E+00  1.971710561E+02  1.971710561E+02  0.000000000E+00  0.00000E+00  9.000E+00
      21    -1     0     0   512   502  0.000000000E+00  0.000000000E+00 -2.055387632E+03  2.055387632E+03  0.000000000E+00  0.00000E+00  9.000E+00
      25     1     1     2     0     0  5.177396041E+02  2.712784481E+01 -9.000231311E+02  1.046162919E+03  1.250000000E+02  0.00000E+00  9.000E+00
      25     1     1     2     0     0 -5.051544223E+02  6.955951172E+01 -4.577683345E+02  6.965603808E+02  1.250000000E+02  0.00000E+00  9.000E+00
      21     1     1     2   512   501 -1.258518182E+01 -9.668735653E+01 -5.004251101E+02  5.098353876E+02  5.394796609E-06  0.00000E+00  9.000E+00
#rwgt            1           1   2.7629937931292366E-002           4      293284           0
</event>
<event>
      5   9999  3.19816E-02  2.02328E+01 -1.00000E+00  1.65955E-01
      21    -1     0     0   502   511  0.000000000E+00  0.000000000E+00  1.129356608E+02  1.129356608E+02  0.000000000E+00  0.00000E+00  9.000E+00
      21    -1     0     0   501   502  0.000000000E+00  0.000000000E+00 -7.487092089E+02  7.487092089E+02  0.000000000E+00  0.00000E+00  9.000E+00
      25     1     1     2     0     0  2.264672237E+02 -3.659073436E+01 -2.865498253E+02  3.877655060E+02  1.250000000E+02  0.00000E+00  9.000E+00
      25     1     1     2     0     0 -2.292567911E+02  5.663031192E+01 -3.620171101E+02  4.499411701E+02  1.250000000E+02  0.00000E+00  9.000E+00
      21     1     1     2   501   511  2.789567366E+00 -2.003957756E+01  1.279338739E+01  2.393819366E+01  5.057621821E-07  0.00000E+00  9.000E+00
#rwgt            1           1   3.1023790254003408E-002           4      293429           0
</event>
<event>
      5   9999  3.19816E-02  5.27142E+01 -1.00000E+00  1.37778E-01
      21    -1     0     0   512   501  0.000000000E+00  0.000000000E+00  1.034599481E+03  1.034599481E+03  0.000000000E+00  0.00000E+00  9.000E+00
      21    -1     0     0   501   502  0.000000000E+00  0.000000000E+00 -1.389279729E+02  1.389279729E+02  0.000000000E+00  0.00000E+00  9.000E+00
      25     1     1     2     0     0  1.511532560E+02 -1.151059826E+02  2.324851812E+02  3.252246201E+02  1.250000000E+02  0.00000E+00  9.000E+00
      25     1     1     2     0     0 -1.309939338E+02  1.638131230E+02  7.171087990E+01  2.544830058E+02  1.250000000E+02  0.00000E+00  9.000E+00
      21     1     1     2   512   502 -2.015932219E+01 -4.870714034E+01  5.914754466E+02  5.938198277E+02  7.629394531E-06  0.00000E+00  9.000E+00
#rwgt            1           1   2.7719633694305468E-002           4      293676           0
</event>
<event>
      5   9999  3.19816E-02  5.55890E+01 -1.00000E+00  1.36500E-01
       2    -1     0     0   502     0  0.000000000E+00  0.000000000E+00  1.962871923E+03  1.962871923E+03  0.000000000E+00  0.00000E+00  9.000E+00
      21    -1     0     0   501   502  0.000000000E+00  0.000000000E+00 -1.573355677E+02  1.573355677E+02  0.000000000E+00  0.00000E+00  9.000E+00
      25     1     1     2     0     0  9.216076325E+00 -1.452938174E+02 -7.007606351E+01  2.042813847E+02  1.250000000E+02  0.00000E+00  9.000E+00
      25     1     1     2     0     0  1.066607696E+01  1.972056061E+02  6.804710388E+02  7.194926343E+02  1.250000000E+02  0.00000E+00  9.000E+00
       2     1     1     2   501     0 -1.988215329E+01 -5.191178863E+01  1.195141380E+03  1.196433471E+03  2.157918644E-05  0.00000E+00  9.000E+00
#rwgt            1           1   2.6380435181354221E-002           4      293794           0
</event>
<event>
      5   9999  3.19816E-02  1.55916E+02 -1.00000E+00  1.15732E-01
      21    -1     0     0   502   511  0.000000000E+00  0.000000000E+00  6.363458186E+02  6.363458186E+02  0.000000000E+00  0.00000E+00  9.000E+00
      21    -1     0     0   501   502  0.000000000E+00  0.000000000E+00 -4.933784222E+02  4.933784222E+02  0.000000000E+00  0.00000E+00  9.000E+00
      25     1     1     2     0     0 -5.060823576E+02  8.791621843E+01  1.959624869E+02  5.638039645E+02  1.250000000E+02  0.00000E+00  9.000E+00
      25     1     1     2     0     0  3.501922202E+02 -9.073860761E+01 -1.126568128E+02  3.989795026E+02  1.250000000E+02  0.00000E+00  9.000E+00
      21     1     1     2   501   511  1.558901374E+02  2.822389176E+00  5.966172228E+01  1.669407737E+02  1.651812370E-06  0.00000E+00  9.000E+00
#rwgt            1           1   3.1580555557284631E-002           4      293862           0
</event>
<event>
      5   9999  3.19816E-02  2.26801E+01 -1.00000E+00  1.61985E-01
      21    -1     0     0   502   501  0.000000000E+00  0.000000000E+00  1.377318635E+02  1.377318635E+02  0.000000000E+00  0.00000E+00  9.000E+00
      21    -1     0     0   512   502  0.000000000E+00  0.000000000E+00 -3.011770803E+03  3.011770803E+03  0.000000000E+00  0.00000E+00  9.000E+00
      25     1     1     2     0     0 -4.397540904E+02 -4.187636575E+00 -7.664502830E+02  8.924529302E+02  1.250000000E+02  0.00000E+00  9.000E+00
      25     1     1     2     0     0  4.294683505E+02  2.440126122E+01 -5.974104525E+02  7.467012350E+02  1.250000000E+02  0.00000E+00  9.000E+00
      21     1     1     2   512   501  1.028573986E+01 -2.021362465E+01 -1.510178204E+03  1.510348501E+03  3.051757812E-05  0.00000E+00  9.000E+00
#rwgt            1           1   3.0121793302091925E-002           4      293919           0
</event>
<event>
      5   9999  3.19816E-02  9.93618E+01 -1.00000E+00  1.23953E-01
      21    -1     0     0   502   501  0.000000000E+00  0.000000000E+00  1.288432695E+03  1.288432695E+03  0.000000000E+00  0.00000E+00  9.000E+00
      21    -1     0     0   511   502  0.000000000E+00  0.000000000E+00 -6.561185039E+02  6.561185039E+02  0.000000000E+00  0.00000E+00  9.000E+00
      25     1     1     2     0     0  2.823771261E+02  2.427769259E+02 -3.561821030E+02  5.302529280E+02  1.250000000E+02  0.00000E+00  9.000E+00
      25     1     1     2     0     0 -2.101065886E+02 -3.109658905E+02  1.154746548E+03  1.220618349E+03  1.250000000E+02  0.00000E+00  9.000E+00
      21     1     1     2   511   501 -7.227053751E+01  6.818896460E+01 -1.662502536E+02  1.936799223E+02  3.303624740E-06  0.00000E+00  9.000E+00
#rwgt            1           1   2.5519023699057404E-002           4      294131           0
</event>
<event>
      5   9999  3.19816E-02  1.21352E+01 -1.00000E+00  1.86518E-01
      21    -1     0     0   512   501  0.000000000E+00  0.000000000E+00  4.518112412E+02  4.518112412E+02  0.000000000E+00  0.00000E+00  9.000E+00
      21    -1     0     0   501   502  0.000000000E+00  0.000000000E+00 -1.810658697E+03  1.810658697E+03  0.000000000E+00  0.00000E+00  9.000E+00
      25     1     1     2     0     0 -6.349892828E+02 -5.493040569E+02 -3.286067710E+02  9.102492769E+02  1.250000000E+02  0.00000E+00  9.000E+00
      25     1     1     2     0     0  6.402002844E+02  5.602635028E+02 -1.027415543E+03  1.339760910E+03  1.250000000E+02  0.00000E+00  9.000E+00
      21     1     1     2   512   502 -5.211001660E+00 -1.095944599E+01 -2.825142252E+00  1.245975214E+01  2.064765462E-07  0.00000E+00  9.000E+00
#rwgt            1           1   1.7021334720100662E-002           4      294214           0
</event>
<event>
      5   9999  3.19816E-02  1.04904E+02 -1.00000E+00  1.22900E-01
      21    -1     0     0   502   501  0.000000000E+00  0.000000000E+00  1.715773155E+03  1.715773155E+03  0.000000000E+00  0.00000E+00  9.000E+00
      21    -1     0     0   501   511  0.000000000E+00  0.000000000E+00 -3.132659688E+01  3.132659688E+01  0.000000000E+00  0.00000E+00  9.000E+00
      25     1     1     2     0     0 -2.194848038E+01 -4.812281530E+01  1.177026646E+03  1.184826682E+03  1.250000000E+02  0.00000E+00  9.000E+00
      25     1     1     2     0     0 -1.291491947E+01 -5.081883318E+01  2.518751296E+02  2.860339663E+02  1.250000000E+02  0.00000E+00  9.000E+00
      21     1     1     2   502   511  3.486339985E+01  9.894164848E+01  2.555447827E+02  2.762391037E+02  0.000000000E+00  0.00000E+00  9.000E+00
#rwgt            1           1   3.2341148402196394E-002           4      294556           0
</event>
<event>
      5   9999  3.19816E-02  2.03015E+02 -1.00000E+00  1.11412E-01
      21    -1     0     0   502   501  0.000000000E+00  0.000000000E+00  1.047982852E+03  1.047982852E+03  0.000000000E+00  0.00000E+00  9.000E+00
       1    -1     0     0   501     0  0.000000000E+00  0.000000000E+00 -1.217015620E+03  1.217015620E+03  0.000000000E+00  0.00000E+00  9.000E+00
      25     1     1     2     0     0 -2.372406195E+02 -3.088472851E+02  2.335328828E+02  4.709908326E+02  1.250000000E+02  0.00000E+00  9.000E+00
      25     1     1     2     0     0  3.602257741E+01  2.818975785E+02  6.509037440E+02  7.211550144E+02  1.250000000E+02  0.00000E+00  9.000E+00
       1     1     1     2   502     0  2.012180421E+02  2.694970657E+01 -1.053469395E+03  1.072852624E+03  0.000000000E+00  0.00000E+00  9.000E+00
#rwgt            1           1   2.9139371973799389E-002           4      294594           0
</event>
<event>
      5   9999  3.19816E-02  2.23195E+02 -1.00000E+00  1.09940E-01
      21    -1     0     0   502   511  0.000000000E+00  0.000000000E+00  4.194235428E+02  4.194235428E+02  0.000000000E+00  0.00000E+00  9.000E+00
      21    -1     0     0   501   502  0.000000000E+00  0.000000000E+00 -2.945561258E+02  2.945561258E+02  0.000000000E+00  0.00000E+00  9.000E+00
      25     1     1     2     0     0 -2.706420983E+00  1.109686993E+02 -2.144781105E+01  1.685419400E+02  1.250000000E+02  0.00000E+00  9.000E+00
      25     1     1     2     0     0 -2.204874353E+02 -1.103692860E+02 -3.778312661E+00  2.764694632E+02  1.250000000E+02  0.00000E+00  9.000E+00
      21     1     1     2   501   511  2.231938563E+02 -5.994133598E-01  1.500935407E+02  2.689682654E+02  2.697398305E-06  0.00000E+00  9.000E+00
#rwgt            1           1   2.5851117886350423E-002           4      294633           0
</event>
<event>
      5   9999  3.19816E-02  2.18251E+01 -1.00000E+00  1.63299E-01
      21    -1     0     0   512   501  0.000000000E+00  0.000000000E+00  6.859319616E+02  6.859319616E+02  0.000000000E+00  0.00000E+00  9.000E+00
      21    -1     0     0   501   502  0.000000000E+00  0.000000000E+00 -4.550021879E+02  4.550021879E+02  0.000000000E+00  0.00000E+00  9.000E+00
      25     1     1     2     0     0  2.427380950E+01  5.020510556E+02 -2.843630286E+01  5.187273885E+02  1.250000000E+02  0.00000E+00  9.000E+00
      25     1     1     2     0     0 -1.350264668E+01 -5.210330682E+02  2.245692116E+02  5.811317496E+02  1.250000000E+02  0.00000E+00  9.000E+00
      21     1     1     2   512   502 -1.077116282E+01  1.898201257E+01  3.479686498E+01  4.107501141E+01  4.768371582E-07  0.00000E+00  9.000E+00
#rwgt            1           1   2.9585909573678775E-002           4      294680           0
</event>
<event>
      5   9999  3.19816E-02  4.12121E+01 -1.00000E+00  1.44041E-01
      21    -1     0     0   502   501  0.000000000E+00  0.000000000E+00  9.141042578E+02  9.141042578E+02  0.000000000E+00  0.00000E+00  9.000E+00
      21    -1     0     0   511   502  0.000000000E+00  0.000000000E+00 -3.650661668E+02  3.650661668E+02  0.000000000E+00  0.00000E+00  9.000E+00
      25     1     1     2     0     0 -2.999173058E+01  3.280766810E+02 -2.119063137E+02  4.111728327E+02  1.250000000E+02  0.00000E+00  9.000E+00
      25     1     1     2     0     0  2.729482615E+01 -2.869529517E+02  7.645890154E+02  8.266246830E+02  1.250000000E+02  0.00000E+00  9.000E+00
      21     1     1     2   511   501  2.696904425E+00 -4.112372938E+01 -3.644610651E+00  4.137290899E+01  1.066240300E-06  0.00000E+00  9.000E+00
#rwgt            1           1   2.7401924757903609E-002           4      294909           0
</event>
<event>
      5   9999  3.19816E-02  2.67719E+01 -1.00000E+00  1.56555E-01
      21    -1     0     0   502   501  0.000000000E+00  0.000000000E+00  1.203276845E+03  1.203276845E+03  0.000000000E+00  0.00000E+00  9.000E+00
      21    -1     0     0   512   502  0.000000000E+00  0.000000000E+00 -7.004081216E+01  7.004081216E+01  0.000000000E+00  0.00000E+00  9.000E+00
      25     1     1     2     0     0  7.095847958E+00 -1.243963183E+01  1.086984127E+03  1.094241558E+03  1.250000000E+02  0.00000E+00  9.000E+00
      25     1     1     2     0     0  1.705003392E+01  8.763051650E-01  6.913123924E+01  1.438596532E+02  1.250000000E+02  0.00000E+00  9.000E+00
      21     1     1     2   512   501 -2.414588188E+01  1.156332667E+01 -2.287933355E+01  3.521644558E+01  1.651812370E-06  0.00000E+00  9.000E+00
#rwgt            1           1   2.9192639828457129E-002           4      295045           0
</event>
<event>
      5   9999  3.19816E-02  5.21329E+01 -1.00000E+00  1.38048E-01
      21    -1     0     0   502   511  0.000000000E+00  0.000000000E+00  1.840398666E+02  1.840398666E+02  0.000000000E+00  0.00000E+00  9.000E+00
      21    -1     0     0   501   502  0.000000000E+00  0.000000000E+00 -2.911929007E+02  2.911929007E+02  0.000000000E+00  0.00000E+00  9.000E+00
      25     1     1     2     0     0 -7.821439206E+01 -1.138780362E+02  2.235101029E+00  1.863214801E+02  1.250000000E+02  0.00000E+00  9.000E+00
      25     1     1     2     0     0  2.662120483E+01  1.213601598E+02 -1.429334095E+02  2.269183476E+02  1.250000000E+02  0.00000E+00  9.000E+00
      21     1     1     2   501   511  5.159318722E+01 -7.482123550E+00  3.354527430E+01  6.199293967E+01  4.768371582E-07  0.00000E+00  9.000E+00
#rwgt            2          11   1.7547579653312728E-003           4      295175           0
</event>
<event>
      5   9999  3.19816E-02  5.03832E+01 -1.00000E+00  1.38887E-01
      21    -1     0     0   502   512  0.000000000E+00  0.000000000E+00  9.578521899E+01  9.578521899E+01  0.000000000E+00  0.00000E+00  9.000E+00
      21    -1     0     0   501   502  0.000000000E+00  0.000000000E+00 -8.103632289E+02  8.103632289E+02  0.000000000E+00  0.00000E+00  9.000E+00
      25     1     1     2     0     0  1.903646441E+01  1.337605588E+02 -6.504615753E+02  6.760026147E+02  1.250000000E+02  0.00000E+00  9.000E+00
      25     1     1     2     0     0 -4.663513626E+01 -9.160867344E+01 -1.980052450E+01  1.630461461E+02  1.250000000E+02  0.00000E+00  9.000E+00
      21     1     1     2   501   512  2.759867185E+01 -4.215188533E+01 -4.431591006E+01  6.709968710E+01  0.000000000E+00  0.00000E+00  9.000E+00
#rwgt            1           1   2.7237202649734470E-002           4      295240           0
</event>
<event>
      5   9999  3.19816E-02  4.25118E+01 -1.00000E+00  1.43219E-01
      21    -1     0     0   502   501  0.000000000E+00  0.000000000E+00  6.576759007E+02  6.576759007E+02  0.000000000E+00  0.00000E+00  9.000E+00
      21    -1     0     0   511   502  0.000000000E+00  0.000000000E+00 -1.002733963E+03  1.002733963E+03  0.000000000E+00  0.00000E+00  9.000E+00
      25     1     1     2     0     0  3.621809809E+02 -5.601464788E+02  2.166867779E+02  7.124024848E+02  1.250000000E+02  0.00000E+00  9.000E+00
      25     1     1     2     0     0 -3.865737636E+02  5.949637993E+02 -5.392620920E+02  8.999165523E+02  1.250000000E+02  0.00000E+00  9.000E+00
      21     1     1     2   511   501  2.439278264E+01 -3.481732046E+01 -2.248274839E+01  4.809082682E+01  6.307962682E-07  0.00000E+00  9.000E+00
#rwgt            1           1   3.0624428057373154E-002           4      295322           0
</event>
<event>
      5   9999  3.19816E-02  2.94075E+02 -1.00000E+00  1.05874E-01
      21    -1     0     0   502   512  0.000000000E+00  0.000000000E+00  1.192112373E+02  1.192112373E+02  0.000000000E+00  0.00000E+00  9.000E+00
      21    -1     0     0   501   502  0.000000000E+00  0.000000000E+00 -2.475795689E+03  2.475795689E+03  0.000000000E+00  0.00000E+00  9.000E+00
      25     1     1     2     0     0  5.590787339E+01  3.057667994E+02 -4.615575810E+02  5.703327331E+02  1.250000000E+02  0.00000E+00  9.000E+00
      25     1     1     2     0     0  9.391160898E+01 -5.271684974E+01 -1.598707848E+03  1.607199502E+03  1.250000000E+02  0.00000E+00  9.000E+00
      21     1     1     2   501   512 -1.498194824E+02 -2.530499497E+02 -2.963190227E+02  4.174746909E+02  7.629394531E-06  0.00000E+00  9.000E+00
#rwgt            2          11   1.3053992322645983E-002           4      295483           0
</event>
<event>
      5   9999  3.19816E-02  1.59271E+02 -1.00000E+00  1.15371E-01
      21    -1     0     0   502   501  0.000000000E+00  0.000000000E+00  2.586114140E+02  2.586114140E+02  0.000000000E+00  0.00000E+00  9.000E+00
      -2    -1     0     0     0   502  0.000000000E+00  0.000000000E+00 -7.265065972E+02  7.265065972E+02  0.000000000E+00  0.00000E+00  9.000E+00
      25     1     1     2     0     0 -2.170564664E+02 -1.209917610E+02  9.013552755E+01  2.924071292E+02  1.250000000E+02  0.00000E+00  9.000E+00
      25     1     1     2     0     0  1.495330480E+02 -2.325725713E+01 -1.285012161E+02  2.346030584E+02  1.250000000E+02  0.00000E+00  9.000E+00
      -2     1     1     2     0   501  6.752341838E+01  1.442490182E+02 -4.295294947E+02  4.581078236E+02  7.629394531E-06  0.00000E+00  9.000E+00
#rwgt            1           1   2.8737757100608795E-002           4      295503           0
</event>
<event>
      5   9999  3.19816E-02  5.31138E+01 -1.00000E+00  1.37595E-01
      21    -1     0     0   502   511  0.000000000E+00  0.000000000E+00  4.597949156E+02  4.597949156E+02  0.000000000E+00  0.00000E+00  9.000E+00
      21    -1     0     0   501   502  0.000000000E+00  0.000000000E+00 -3.052255508E+02  3.052255508E+02  0.000000000E+00  0.00000E+00  9.000E+00
      25     1     1     2     0     0  1.054724004E+02  4.015664547E+01 -2.235740234E+02  2.799059259E+02  1.250000000E+02  0.00000E+00  9.000E+00
      25     1     1     2     0     0 -1.581156613E+02 -4.721079975E+01  1.629188125E+02  2.634330302E+02  1.250000000E+02  0.00000E+00  9.000E+00
      21     1     1     2   501   511  5.264326081E+01  7.054154276E+00  2.152245757E+02  2.216815103E+02  0.000000000E+00  0.00000E+00  9.000E+00
#rwgt            1           1   3.0898210527818257E-002           4      295570           0
</event>
<event>
      5   9999  3.19816E-02  1.37729E+02 -1.00000E+00  1.17882E-01
      21    -1     0     0   512   501  0.000000000E+00  0.000000000E+00  1.416719964E+03  1.416719964E+03  0.000000000E+00  0.00000E+00  9.000E+00
      21    -1     0     0   501   502  0.000000000E+00  0.000000000E+00 -1.062538710E+03  1.062538710E+03  0.000000000E+00  0.00000E+00  9.000E+00
      25     1     1     2     0     0  1.732819882E+01 -1.017160314E+03 -2.240922788E+02  1.049170015E+03  1.250000000E+02  0.00000E+00  9.000E+00
      25     1     1     2     0     0 -4.620427153E+01  1.151827956E+03  4.561346010E+02  1.246004113E+03  1.250000000E+02  0.00000E+00  9.000E+00
      21     1     1     2   512   502  2.887607271E+01 -1.346676418E+02  1.221389315E+02  1.840845456E+02  3.015782986E-06  0.00000E+00  9.000E+00
#rwgt            1           1   2.3515001966149467E-002           4      295726           0
</event>
<event>
      5   9999  3.19816E-02  1.43830E+01 -1.00000E+00  1.79120E-01
      21    -1     0     0   502   511  0.000000000E+00  0.000000000E+00  3.078787592E+02  3.078787592E+02  0.000000000E+00  0.00000E+00  9.000E+00
      21    -1     0     0   501   502  0.000000000E+00  0.000000000E+00 -1.358766969E+03  1.358766969E+03  0.000000000E+00  0.00000E+00  9.000E+00
      25     1     1     2     0     0  6.028486332E+02 -8.312329605E+01 -6.442456952E+02  8.949935601E+02  1.250000000E+02  0.00000E+00  9.000E+00
      25     1     1     2     0     0 -6.120665025E+02  9.416418052E+01 -4.141719380E+02  7.554175605E+02  1.250000000E+02  0.00000E+00  9.000E+00
      21     1     1     2   501   511  9.217869314E+00 -1.104088447E+01  7.529423903E+00  1.623460714E+01  2.920019320E-07  0.00000E+00  9.000E+00
#rwgt            1           1   3.0568071986316711E-002           4      295862           0
</event>
<event>
      5   9999  3.19816E-02  1.72451E+01 -1.00000E+00  1.71861E-01
      21    -1     0     0   502   512  0.000000000E+00  0.000000000E+00  1.443788628E+02  1.443788628E+02  0.000000000E+00  0.00000E+00  9.000E+00
      21    -1     0     0   501   502  0.000000000E+00  0.000000000E+00 -1.594703522E+03  1.594703522E+03  0.000000000E+00  0.00000E+00  9.000E+00
      25     1     1     2     0     0  1.061807758E+02  1.274545175E+02 -7.154839942E+02  7.450244004E+02  1.250000000E+02  0.00000E+00  9.000E+00
      25     1     1     2     0     0 -1.225748066E+02 -1.221038517E+02 -8.506252685E+02  8.769961695E+02  1.250000000E+02  0.00000E+00  9.000E+00
      21     1     1     2   501   512  1.639403074E+01 -5.350665829E+00  1.157846040E+02  1.170618144E+02  4.862803949E-06  0.00000E+00  9.000E+00
#rwgt            1           1   3.3085114334689893E-002           4      296086           0
</event>
<event>
      5   9999  3.19816E-02  1.19204E+02 -1.00000E+00  1.20491E-01
      21    -1     0     0   511   501  0.000000000E+00  0.000000000E+00  6.517005258E+02  6.517005258E+02  0.000000000E+00  0.00000E+00  9.000E+00
      21    -1     0     0   501   502  0.000000000E+00  0.000000000E+00 -3.273987242E+02  3.273987242E+02  0.000000000E+00  0.00000E+00  9.000E+00
      25     1     1     2     0     0  3.502824009E+02 -2.616827871E+02  1.063588676E+02  4.670255348E+02  1.250000000E+02  0.00000E+00  9.000E+00
      25     1     1     2     0     0 -2.678403799E+02  1.755838995E+02  1.526460376E+02  3.761568658E+02  1.250000000E+02  0.00000E+00  9.000E+00
      21     1     1     2   511   502 -8.244202101E+01  8.609888760E+01  6.529689634E+01  1.359168494E+02  1.907348633E-06  0.00000E+00  9.000E+00
#rwgt            1           1   2.8169510317870617E-002           4      296221           0
</event>
<event>
      5   9999  3.19816E-02  4.04444E+01 -1.00000E+00  1.44543E-01
      21    -1     0     0   502   512  0.000000000E+00  0.000000000E+00  1.535726115E+02  1.535726115E+02  0.000000000E+00  0.00000E+00  9.000E+00
      21    -1     0     0   501   502  0.000000000E+00  0.000000000E+00 -1.325353409E+03  1.325353409E+03  0.000000000E+00  0.00000E+00  9.000E+00
      25     1     1     2     0     0 -1.045373147E+02  2.190021768E+02 -1.227689383E+02  2.993112357E+02  1.250000000E+02  0.00000E+00  9.000E+00
      25     1     1     2     0     0  9.833258376E+01 -1.790365084E+02 -1.093543708E+03  1.119457998E+03  1.250000000E+02  0.00000E+00  9.000E+00
      21     1     1     2   501   512  6.204730984E+00 -3.996566837E+01  4.453184922E+01  6.015678623E+01  6.743495762E-07  0.00000E+00  9.000E+00
#rwgt            1           1   3.2948816294178326E-002           4      296273           0
</event>
<event>
      5   9999  3.19816E-02  2.13085E+02 -1.00000E+00  1.10655E-01
      21    -1     0     0   511   501  0.000000000E+00  0.000000000E+00  1.611525476E+02  1.611525476E+02  0.000000000E+00  0.00000E+00  9.000E+00
      21    -1     0     0   501   502  0.000000000E+00  0.000000000E+00 -1.743129366E+03  1.743129366E+03  0.000000000E+00  0.00000E+00  9.000E+00
      25     1     1     2     0     0  3.129667602E+02 -2.239629558E+02 -1.063503829E+03  1.137880922E+03  1.250000000E+02  0.00000E+00  9.000E+00
      25     1     1     2     0     0 -1.155406680E+02  3.041381201E+02 -2.841916345E+02  4.497104926E+02  1.250000000E+02  0.00000E+00  9.000E+00
      21     1     1     2   511   502 -1.974260922E+02 -8.017516429E+01 -2.342813550E+02  3.166904990E+02  3.814697266E-06  0.00000E+00  9.000E+00
#rwgt            1           1   3.4815448056148855E-002           4      296405           0
</event>
<event>
      5   9999  3.19816E-02  2.90717E+00 -1.00000E+00  3.01073E-01
      21    -1     0     0   502   512  0.000000000E+00  0.000000000E+00  9.063004204E+02  9.063004204E+02  0.000000000E+00  0.00000E+00  9.000E+00
      21    -1     0     0   501   502  0.000000000E+00  0.000000000E+00 -3.257349627E+01  3.257349627E+01  0.000000000E+00  0.00000E+00  9.000E+00
      25     1     1     2     0     0 -5.680554406E+01  9.303231491E+01  4.021458171E+02  4.350036088E+02  1.250000000E+02  0.00000E+00  9.000E+00
      25     1     1     2     0     0  5.969580227E+01 -9.271915778E+01  4.151512306E+02  4.473655947E+02  1.250000000E+02  0.00000E+00  9.000E+00
      21     1     1     2   501   512 -2.890258216E+00 -3.131571275E-01  5.642987641E+01  5.650471318E+01  0.000000000E+00  0.00000E+00  9.000E+00
#rwgt            1           1   2.7182384784211425E-002           4      296463           0
</event>
<event>
      5   9999  3.19816E-02  3.80445E+01 -1.00000E+00  1.46203E-01
      21    -1     0     0   502   511  0.000000000E+00  0.000000000E+00  5.750978415E+02  5.750978415E+02  0.000000000E+00  0.00000E+00  9.000E+00
      21    -1     0     0   501   502  0.000000000E+00  0.000000000E+00 -2.560520856E+02  2.560520856E+02  0.000000000E+00  0.00000E+00  9.000E+00
      25     1     1     2     0     0  3.045184848E+01 -9.146592892E+01 -2.016109555E+02  2.560572370E+02  1.250000000E+02  0.00000E+00  9.000E+00
      25     1     1     2     0     0 -4.611922718E+01  1.261345537E+02  4.982118168E+02  5.309208257E+02  1.250000000E+02  0.00000E+00  9.000E+00
      21     1     1     2   501   511  1.566737870E+01 -3.466862482E+01  2.244489463E+01  4.417186431E+01  7.907449699E-07  0.00000E+00  9.000E+00
#rwgt            1           1   3.3058611304254054E-002           4      296767           0
</event>
<event>
      5   9999  3.19816E-02  2.25875E+02 -1.00000E+00  1.09758E-01
      -2    -1     0     0     0   501  0.000000000E+00  0.000000000E+00  4.940327800E+02  4.940327800E+02  0.000000000E+00  0.00000E+00  9.000E+00
      21    -1     0     0   501   502  0.000000000E+00  0.000000000E+00 -8.527668596E+02  8.527668596E+02  0.000000000E+00  0.00000E+00  9.000E+00
      25     1     1     2     0     0 -2.665553806E+02  1.458199662E+02 -4.855564394E+02  5.862638393E+02  1.250000000E+02  0.00000E+00  9.000E+00
      25     1     1     2     0     0  4.919001060E+02 -1.303567417E+02  8.731051934E+01  5.312313255E+02  1.250000000E+02  0.00000E+00  9.000E+00
      -2     1     1     2     0   502 -2.253447255E+02 -1.546322451E+01  3.951184044E+01  2.293044748E+02  1.784161275E-06  0.00000E+00  9.000E+00
#rwgt            2           4   5.1583735529940859E-005           4      296892           0
</event>
<event>
      5   9999  3.19816E-02  7.52298E+01 -1.00000E+00  1.29655E-01
       2    -1     0     0   502     0  0.000000000E+00  0.000000000E+00  1.289280352E+03  1.289280352E+03  0.000000000E+00  0.00000E+00  9.000E+00
      21    -1     0     0   501   502  0.000000000E+00  0.000000000E+00 -1.023546180E+02  1.023546180E+02  0.000000000E+00  0.00000E+00  9.000E+00
      25     1     1     2     0     0 -5.729696888E+01  9.695339029E+01 -2.495297753E+00  1.682680274E+02  1.250000000E+02  0.00000E+00  9.000E+00
      25     1     1     2     0     0  1.322332182E+02 -1.035932680E+02  8.153640439E+02  8.418198817E+02  1.250000000E+02  0.00000E+00  9.000E+00
       2     1     1     2   501     0 -7.493624937E+01  6.639877733E+00  3.740569876E+02  3.815470605E+02  7.629394531E-06  0.00000E+00  9.000E+00
#rwgt            1           1   2.8003960214887626E-002           4      296926           0
</event>
<event>
      5   9999  3.19816E-02  6.35817E+01 -1.00000E+00  1.33371E-01
      21    -1     0     0   502   501  0.000000000E+00  0.000000000E+00  5.065414899E+02  5.065414899E+02  0.000000000E+00  0.00000E+00  9.000E+00
      21    -1     0     0   501   511  0.000000000E+00  0.000000000E+00 -4.742101145E+02  4.742101145E+02  0.000000000E+00  0.00000E+00  9.000E+00
      25     1     1     2     0     0 -9.526861316E+01 -2.047866899E+01  4.499416260E+02  4.770408278E+02  1.250000000E+02  0.00000E+00  9.000E+00
      25     1     1     2     0     0  9.502008074E+01 -4.310251167E+01 -1.277477185E+02  2.069568115E+02  1.250000000E+02  0.00000E+00  9.000E+00
      21     1     1     2   502   511  2.485324150E-01  6.358118067E+01 -2.898625321E+02  2.967539651E+02  6.607249480E-06  0.00000E+00  9.000E+00
#rwgt            1           1   3.0323264017850647E-002           4      296985           0
</event>
<event>
      5   9999  3.19816E-02  2.07248E+01 -1.00000E+00  1.65104E-01
      21    -1     0     0   502   501  0.000000000E+00  0.000000000E+00  4.050654268E+02  4.050654268E+02  0.000000000E+00  0.00000E+00  9.000E+00
      21    -1     0     0   501   512  0.000000000E+00  0.000000000E+00 -8.706478646E+02  8.706478646E+02  0.000000000E+00  0.00000E+00  9.000E+00
      25     1     1     2     0     0  4.032305268E+01  2.225821396E+02 -7.718656093E+02  8.139841990E+02  1.250000000E+02  0.00000E+00  9.000E+00
      25     1     1     2     0     0 -5.665924156E+01 -2.098289311E+02  3.398204980E+02  4.223048908E+02  1.250000000E+02  0.00000E+00  9.000E+00
      21     1     1     2   502   512  1.633618888E+01 -1.275320855E+01 -3.353732658E+01  3.942420157E+01  6.743495762E-07  0.00000E+00  9.000E+00
#rwgt            1           1   2.4529016007550451E-002           4      297074           0
</event>
<event>
      5   9999  3.19816E-02  4.28307E+01 -1.00000E+00  1.43022E-01
       1    -1     0     0   502     0  0.000000000E+00  0.000000000E+00  2.097156605E+03  2.097156605E+03  0.000000000E+00  0.00000E+00  9.000E+00
      21    -1     0     0   501   502  0.000000000E+00  0.000000000E+00 -1.400638112E+02  1.400638112E+02  0.000000000E+00  0.00000E+00  9.000E+00
      25     1     1     2     0     0  1.373579891E+02 -5.829495385E+01  6.653680086E+01  2.057125778E+02  1.250000000E+02  0.00000E+00  9.000E+00
      25     1     1     2     0     0 -1.253688974E+02  1.717651127E+01  4.239635564E+01  1.828519728E+02  1.250000000E+02  0.00000E+00  9.000E+00
       1     1     1     2   501     0 -1.198909167E+01  4.111844257E+01  1.848159638E+03  1.848655866E+03  0.000000000E+00  0.00000E+00  9.000E+00
#rwgt            1           1   3.0631117010520782E-002           4      297359           0
</event>
<event>
      5   9999  3.19816E-02  7.30907E+01 -1.00000E+00  1.30277E-01
      21    -1     0     0   502   501  0.000000000E+00  0.000000000E+00  1.204457752E+03  1.204457752E+03  0.000000000E+00  0.00000E+00  9.000E+00
      21    -1     0     0   511   502  0.000000000E+00  0.000000000E+00 -9.705463674E+02  9.705463674E+02  0.000000000E+00  0.00000E+00  9.000E+00
      25     1     1     2     0     0 -3.637709194E+02  4.059831191E+01 -1.077510102E+02  4.015131193E+02  1.250000000E+02  0.00000E+00  9.000E+00
      25     1     1     2     0     0  3.211889415E+02  1.880723878E+01  1.027419122E+03  1.083850128E+03  1.250000000E+02  0.00000E+00  9.000E+00
      21     1     1     2   511   501  4.258197794E+01 -5.940555069E+01 -6.857567268E+02  6.896408722E+02  7.629394531E-06  0.00000E+00  9.000E+00
#rwgt            1           1   2.9592896484572244E-002           4      297462           0
</event>
<event>
      5   9999  3.19816E-02  1.83356E+02 -1.00000E+00  1.13039E-01
      21    -1     0     0   512   501  0.000000000E+00  0.000000000E+00  1.109215791E+02  1.109215791E+02  0.000000000E+00  0.00000E+00  9.000E+00
      21    -1     0     0   501   502  0.000000000E+00  0.000000000E+00 -7.160406125E+02  7.160406125E+02  0.000000000E+00  0.00000E+00  9.000E+00
      25     1     1     2     0     0  5.370261025E+00 -3.387654709E+01 -1.985271165E+02  2.370959218E+02  1.250000000E+02  0.00000E+00  9.000E+00
      25     1     1     2     0     0 -1.521827253E+02  1.437190066E+02 -2.233678709E+02  3.306553197E+02  1.250000000E+02  0.00000E+00  9.000E+00
      21     1     1     2   512   502  1.468124643E+02 -1.098424595E+02 -1.832240461E+02  2.592109501E+02  5.394796609E-06  0.00000E+00  9.000E+00
#rwgt            1           1   2.6545520596585319E-002           4      297554           0
</event>
<event>
      5   9999  3.19816E-02  5.59548E+02 -1.00000E+00  9.74833E-02
      21    -1     0     0   502   501  0.000000000E+00  0.000000000E+00  1.921798394E+03  1.921798394E+03  0.000000000E+00  0.00000E+00  9.000E+00
      21    -1     0     0   511   502  0.000000000E+00  0.000000000E+00 -1.102565666E+03  1.102565666E+03  0.000000000E+00  0.00000E+00  9.000E+00
      25     1     1     2     0     0 -5.638779193E+02 -8.807674386E+01  1.676432878E+03  1.775321946E+03  1.250000000E+02  0.00000E+00  9.000E+00
      25     1     1     2     0     0  5.712323561E+00  1.273866067E+02  4.796252418E+01  1.848928932E+02  1.250000000E+02  0.00000E+00  9.000E+00
      21     1     1     2   511   501  5.581655957E+02 -3.930986288E+01 -9.051626742E+02  1.064149221E+03  0.000000000E+00  0.00000E+00  9.000E+00
#rwgt            2          11   7.1819858966264095E-003           4      297860           0
</event>
<event>
      5   9999  3.19816E-02  1.52711E+02 -1.00000E+00  1.16086E-01
      21    -1     0     0   512   501  0.000000000E+00  0.000000000E+00  7.635129603E+02  7.635129603E+02  0.000000000E+00  0.00000E+00  9.000E+00
      21    -1     0     0   501   502  0.000000000E+00  0.000000000E+00 -1.501045634E+02  1.501045634E+02  0.000000000E+00  0.00000E+00  9.000E+00
      25     1     1     2     0     0  6.897202547E+01  2.161050417E+01 -1.825854646E+01  1.455421888E+02  1.250000000E+02  0.00000E+00  9.000E+00
      25     1     1     2     0     0 -1.750865157E+02 -1.314306691E+02  2.415875717E+02  3.491688182E+02  1.250000000E+02  0.00000E+00  9.000E+00
      21     1     1     2   512   502  1.061144903E+02  1.098201649E+02  3.900793716E+02  4.189065168E+02  5.394796609E-06  0.00000E+00  9.000E+00
#rwgt            1           1   2.9848022218501146E-002           4      297880           0
</event>
<event>
      5   9999  3.19816E-02  2.30614E+01 -1.00000E+00  1.61422E-01
      21    -1     0     0   502   511  0.000000000E+00  0.000000000E+00  4.060496562E+02  4.060496562E+02  0.000000000E+00  0.00000E+00  9.000E+00
      21    -1     0     0   501   502  0.000000000E+00  0.000000000E+00 -1.203063472E+02  1.203063472E+02  0.000000000E+00  0.00000E+00  9.000E+00
      25     1     1     2     0     0 -1.604423591E+01 -3.455926570E+01  2.596239470E+02  2.906567636E+02  1.250000000E+02  0.00000E+00  9.000E+00
      25     1     1     2     0     0 -6.979617573E+00  3.324447889E+01 -6.271741679E+01  1.439179794E+02  1.250000000E+02  0.00000E+00  9.000E+00
      21     1     1     2   501   511  2.302385348E+01  1.314786814E+00  8.883677873E+01  9.178126033E+01  1.348699152E-06  0.00000E+00  9.000E+00
#rwgt            1           1   2.5639816411305142E-002           4      297941           0
</event>
<event>
      5   9999  3.19816E-02  9.08016E+01 -1.00000E+00  1.25743E-01
       4    -1     0     0   502     0  0.000000000E+00  0.000000000E+00  4.594880873E+02  4.594880873E+02  0.000000000E+00  0.00000E+00  9.000E+00
      21    -1     0     0   501   502  0.000000000E+00  0.000000000E+00 -7.592347301E+02  7.592347301E+02  0.000000000E+00  0.00000E+00  9.000E+00
      25     1     1     2     0     0  2.176233676E+00  1.431326650E+02 -5.179877871E+02  5.517499827E+02  1.250000000E+02  0.00000E+00  9.000E+00
      25     1     1     2     0     0 -9.266354508E+01 -1.355840880E+02 -1.705403470E+02  2.677285705E+02  1.250000000E+02  0.00000E+00  9.000E+00
       4     1     1     2   501     0  9.048731140E+01 -7.548576953E+00  3.887814913E+02  3.992442642E+02  0.000000000E+00  0.00000E+00  9.000E+00
#rwgt            1           1   2.9261668841503285E-002           4      298067           0
</event>
<event>
      5   9999  3.19816E-02  7.31997E+01 -1.00000E+00  1.30245E-01
      21    -1     0     0   511   501  0.000000000E+00  0.000000000E+00  8.696399342E+02  8.696399342E+02  0.000000000E+00  0.00000E+00  9.000E+00
      21    -1     0     0   501   502  0.000000000E+00  0.000000000E+00 -1.349876027E+03  1.349876027E+03  0.000000000E+00  0.00000E+00  9.000E+00
      25     1     1     2     0     0 -4.005530648E+01  3.252700284E+02  3.732489414E+02  5.121960476E+02  1.250000000E+02  0.00000E+00  9.000E+00
      25     1     1     2     0     0  1.099936378E+02 -3.036639053E+02 -1.253603752E+03  1.300560546E+03  1.250000000E+02  0.00000E+00  9.000E+00
      21     1     1     2   511   502 -6.993833128E+01 -2.160612311E+01  4.001187176E+02  4.067593673E+02  7.629394531E-06  0.00000E+00  9.000E+00
#rwgt            1           1   3.1356093225314921E-002           4      298124           0
</event>
<event>
      5   9999  3.19816E-02  1.07679E+01 -1.00000E+00  1.92115E-01
      21    -1     0     0   512   501  0.000000000E+00  0.000000000E+00  9.269364063E+02  9.269364063E+02  0.000000000E+00  0.00000E+00  9.000E+00
      21    -1     0     0   501   502  0.000000000E+00  0.000000000E+00 -1.370258897E+02  1.370258897E+02  0.000000000E+00  0.00000E+00  9.000E+00
      25     1     1     2     0     0 -2.636490507E+02 -1.421446121E+02  2.015348857E+02  3.820434829E+02  1.250000000E+02  0.00000E+00  9.000E+00
      25     1     1     2     0     0  2.678237121E+02  1.322188798E+02  5.190303484E+02  6.117424912E+02  1.250000000E+02  0.00000E+00  9.000E+00
      21     1     1     2   512   502 -4.174661450E+00  9.925732293E+00  6.934528248E+01  7.017632195E+01  9.536743164E-07  0.00000E+00  9.000E+00
#rwgt            1           1   2.8726057657571864E-002           4      298275           0
</event>
<event>
      5   9999  3.19816E-02  4.45173E+02 -1.00000E+00  1.00306E-01
      21    -1     0     0   502   501  0.000000000E+00  0.000000000E+00  4.367802112E+02  4.367802112E+02  0.000000000E+00  0.00000E+00  9.000E+00
       2    -1     0     0   501     0  0.000000000E+00  0.000000000E+00 -2.123197939E+03  2.123197939E+03  0.000000000E+00  0.00000E+00  9.000E+00
      25     1     1     2     0     0  2.944968522E+02  7.547288225E+02 -1.097621778E+03  1.369942538E+03  1.250000000E+02  0.00000E+00  9.000E+00
      25     1     1     2     0     0  9.822695192E-01 -4.217558081E+02 -6.008924420E+02  7.446983640E+02  1.250000000E+02  0.00000E+00  9.000E+00
       2     1     1     2   502     0 -2.954791217E+02 -3.329730143E+02  1.209649131E+01  4.453372483E+02  5.499154374E-06  0.00000E+00  9.000E+00
#rwgt            2          13   6.1078888316364890E-004           4      298588           0
</event>
<event>
      5   9999  3.19816E-02  7.30894E+00 -1.00000E+00  2.12936E-01
      21    -1     0     0   511   501  0.000000000E+00  0.000000000E+00  1.086885329E+02  1.086885329E+02  0.000000000E+00  0.00000E+00  9.000E+00
      21    -1     0     0   501   502  0.000000000E+00  0.000000000E+00 -7.731822910E+02  7.731822910E+02  0.000000000E+00  0.00000E+00  9.000E+00
      25     1     1     2     0     0 -6.651774149E+01 -2.340726570E+02 -2.394206707E+02  3.635407491E+02  1.250000000E+02  0.00000E+00  9.000E+00
      25     1     1     2     0     0  7.335253302E+01  2.366623087E+02 -4.282935927E+02  5.103430650E+02  1.250000000E+02  0.00000E+00  9.000E+00
      21     1     1     2   511   502 -6.834791534E+00 -2.589651755E+00  3.220505255E+00  7.987009804E+00  1.576990671E-07  0.00000E+00  9.000E+00
#rwgt            2          11   2.3965996004578611E-003           4      298682           0
</event>
<event>
      5   9999  3.19816E-02  1.18843E+02 -1.00000E+00  1.20547E-01
      21    -1     0     0   502   501  0.000000000E+00  0.000000000E+00  2.612726508E+02  2.612726508E+02  0.000000000E+00  0.00000E+00  9.000E+00
      21    -1     0     0   512   502  0.000000000E+00  0.000000000E+00 -4.937509653E+02  4.937509653E+02  0.000000000E+00  0.00000E+00  9.000E+00
      25     1     1     2     0     0 -2.197736253E+02  1.246924828E+01 -1.702754509E+02  3.050813952E+02  1.250000000E+02  0.00000E+00  9.000E+00
      25     1     1     2     0     0  2.645074064E+02  9.763353844E+01  1.405316525E+01  3.087376999E+02  1.250000000E+02  0.00000E+00  9.000E+00
      21     1     1     2   512   501 -4.473378114E+01 -1.101027867E+02 -7.625602885E+01  1.412045210E+02  2.523185073E-06  0.00000E+00  9.000E+00
#rwgt            1           1   3.2507058131327399E-002           4      298702           0
</event>
<event>
      5   9999  3.19816E-02  3.88134E+01 -1.00000E+00  1.45656E-01
      21    -1     0     0   502   501  0.000000000E+00  0.000000000E+00  2.483665471E+03  2.483665471E+03  0.000000000E+00  0.00000E+00  9.000E+00
      21    -1     0     0   511   502  0.000000000E+00  0.000000000E+00 -3.161664887E+02  3.161664887E+02  0.000000000E+00  0.00000E+00  9.000E+00
      25     1     1     2     0     0  1.758889990E+02 -1.544151850E+02 -1.994164802E+02  3.319230662E+02  1.250000000E+02  0.00000E+00  9.000E+00
      25     1     1     2     0     0 -1.893478996E+02  1.908204018E+02  2.399185522E+03  2.417432775E+03  1.250000000E+02  0.00000E+00  9.000E+00
      21     1     1     2   511   501  1.345890064E+01 -3.640521675E+01 -3.227005944E+01  5.047611861E+01  4.768371582E-07  0.00000E+00  9.000E+00
#rwgt            1           1   2.5268480925729284E-002           4      298776           0
</event>
<event>
      5   9999  3.19816E-02  1.75651E+02 -1.00000E+00  1.13740E-01
      21    -1     0     0   512   501  0.000000000E+00  0.000000000E+00  1.242546968E+03  1.242546968E+03  0.000000000E+00  0.00000E+00  9.000E+00
      21    -1     0     0   501   502  0.000000000E+00  0.000000000E+00 -2.264725617E+02  2.264725617E+02  0.000000000E+00  0.00000E+00  9.000E+00
      25     1     1     2     0     0 -1.365680769E+02  2.314062617E+02  5.316410756E+01  3.010832442E+02  1.250000000E+02  0.00000E+00  9.000E+00
      25     1     1     2     0     0  1.989086429E+02 -3.956219186E+02  5.365927862E+02  7.068508817E+02  1.250000000E+02  0.00000E+00  9.000E+00
      21     1     1     2   512   502 -6.234056596E+01  1.642156569E+02  4.263175121E+02  4.610854034E+02  5.394796609E-06  0.00000E+00  9.000E+00
#rwgt            1           1   3.0236122241348036E-002           4      298968           0
</event>
<event>
      5   9999  3.19816E-02  2.04528E+02 -1.00000E+00  1.11295E-01
       2    -1     0     0   502     0  0.000000000E+00  0.000000000E+00  1.724519945E+03  1.724519945E+03  0.000000000E+00  0.00000E+00  9.000E+00
      21    -1     0     0   501   502  0.000000000E+00  0.000000000E+00 -1.167630857E+02  1.167630857E+02  0.000000000E+00  0.00000E+00  9.000E+00
      25     1     1     2     0     0  2.215752980E+02  6.637077787E+01  6.622347451E+02  7.125170527E+02  1.250000000E+02  0.00000E+00  9.000E+00
      25     1     1     2     0     0 -6.277854604E+01  6.252956474E+01 -8.123610925E+00  1.534343031E+02  1.250000000E+02  0.00000E+00  9.000E+00
       2     1     1     2   501     0 -1.587967520E+02 -1.289003426E+02  9.536457255E+02  9.753316751E+02  1.078959322E-05  0.00000E+00  9.000E+00
#rwgt            1           1   3.4537504839802308E-002           4      299018           0
</event>
<event>
      5   9999  3.19816E-02  1.19713E+02 -1.00000E+00  1.20413E-01
      21    -1     0     0   502   511  0.000000000E+00  0.000000000E+00  1.264591823E+03  1.264591823E+03  0.000000000E+00  0.00000E+00  9.000E+00
      21    -1     0     0   501   502  0.000000000E+00  0.000000000E+00 -1.016222879E+03  1.016222879E+03  0.000000000E+00  0.00000E+00  9.000E+00
      25     1     1     2     0     0 -1.503992458E+02  8.481044491E+02 -3.021448709E+01  8.708840365E+02  1.250000000E+02  0.00000E+00  9.000E+00
      25     1     1     2     0     0  8.523386128E+01 -7.476824194E+02 -2.995433597E+02  8.195395267E+02  1.250000000E+02  0.00000E+00  9.000E+00
      21     1     1     2   501   511  6.516538452E+01 -1.004220297E+02  5.781267902E+02  5.903911390E+02  0.000000000E+00  0.00000E+00  9.000E+00
#rwgt            1           1   3.5482341824468661E-002           4      299105           0
</event>
<event>
      5   9999  3.19816E-02  7.42716E+01 -1.00000E+00  1.29931E-01
      21    -1     0     0   512   501  0.000000000E+00  0.000000000E+00  3.647435698E+03  3.647435698E+03  0.000000000E+00  0.00000E+00  9.000E+00
      21    -1     0     0   501   502  0.000000000E+00  0.000000000E+00 -2.117307514E+02  2.117307514E+02  0.000000000E+00  0.00000E+00  9.000E+00
      25     1     1     2     0     0  1.762413044E+02  4.521338839E+02  1.501046495E+02  5.231084516E+02  1.250000000E+02  0.00000E+00  9.000E+00
      25     1     1     2     0     0 -1.056704302E+02 -4.752861872E+02  2.789918519E+03  2.834842772E+03  1.250000000E+02  0.00000E+00  9.000E+00
      21     1     1     2   512   502 -7.057087422E+01  2.315230326E+01  4.956817782E+02  5.012152259E+02  5.394796609E-06  0.00000E+00  9.000E+00
#rwgt            1           1   7.0101041372784112E-002           4      299213           0
</event>
<event>
      5   9999  3.19816E-02  5.01077E+01 -1.00000E+00  1.39022E-01
      21    -1     0     0   511   501  0.000000000E+00  0.000000000E+00  1.341631530E+02  1.341631530E+02  0.000000000E+00  0.00000E+00  9.000E+00
      21    -1     0     0   501   502  0.000000000E+00  0.000000000E+00 -3.193735512E+02  3.193735512E+02  0.000000000E+00  0.00000E+00  9.000E+00
      25     1     1     2     0     0 -9.714337211E+01  5.117038765E+01 -8.777102926E+01  1.881063446E+02  1.250000000E+02  0.00000E+00  9.000E+00
      25     1     1     2     0     0  1.462446040E+02 -4.117795023E+01 -7.973284639E+01  2.122862091E+02  1.250000000E+02  0.00000E+00  9.000E+00
      21     1     1     2   511   502 -4.910123193E+01 -9.992437423E+00 -1.770652251E+01  5.314415040E+01  1.066240300E-06  0.00000E+00  9.000E+00
#rwgt            1           1   2.3504543100069129E-002           4      299349           0
</event>
<event>
      5   9999  3.19816E-02  7.40828E+01 -1.00000E+00  1.29986E-01
      21    -1     0     0   502   501  0.000000000E+00  0.000000000E+00  6.603463904E+02  6.603463904E+02  0.000000000E+00  0.00000E+00  9.000E+00
      21    -1     0     0   512   502  0.000000000E+00  0.000000000E+00 -9.188290012E+02  9.188290012E+02  0.000000000E+00  0.00000E+00  9.000E+00
      25     1     1     2     0     0 -7.695633359E+01  2.773577168E+02 -6.635087900E+02  7.339744510E+02  1.250000000E+02  0.00000E+00  9.000E+00
      25     1     1     2     0     0  1.022768231E+01 -2.451778924E+02  5.871824868E+02  6.485561481E+02  1.250000000E+02  0.00000E+00  9.000E+00
      21     1     1     2   512   501  6.672865128E+01 -3.217982444E+01 -1.821563077E+02  1.966447925E+02  0.000000000E+00  0.00000E+00  9.000E+00
#rwgt            2          11   3.1515610973203256E-003           4      299431           0
</event>
<event>
      5   9999  3.19816E-02  2.18172E+01 -1.00000E+00  1.63312E-01
      21    -1     0     0   502   501  0.000000000E+00  0.000000000E+00  3.932266133E+02  3.932266133E+02  0.000000000E+00  0.00000E+00  9.000E+00
      -3    -1     0     0     0   502  0.000000000E+00  0.000000000E+00 -1.534481315E+02  1.534481315E+02  0.000000000E+00  0.00000E+00  9.000E+00
      25     1     1     2     0     0 -8.654497910E+01  5.930748759E+01  1.781103206E+02  2.415692402E+02  1.250000000E+02  0.00000E+00  9.000E+00
      25     1     1     2     0     0  6.476327822E+01 -6.055090502E+01  1.498062756E+02  2.143072899E+02  1.250000000E+02  0.00000E+00  9.000E+00
      -3     1     1     2     0   501  2.178170088E+01  1.243417427E+00 -8.813811441E+01  9.079821470E+01  9.536743164E-07  0.00000E+00  9.000E+00
#rwgt            1           1   6.9829151569635303E-002           4      299466           0
</event>
<event>
      5   9999  3.19816E-02  6.66617E+01 -1.00000E+00  1.32305E-01
      21    -1     0     0   511   501  0.000000000E+00  0.000000000E+00  1.851804657E+02  1.851804657E+02  0.000000000E+00  0.00000E+00  9.000E+00
      21    -1     0     0   501   502  0.000000000E+00  0.000000000E+00 -7.661106749E+02  7.661106749E+02  0.000000000E+00  0.00000E+00  9.000E+00
      25     1     1     2     0     0  3.864815956E+01 -7.522790026E+01 -6.699267364E+02  6.867166441E+02  1.250000000E+02  0.00000E+00  9.000E+00
      25     1     1     2     0     0  8.786813878E+00  1.220649310E+02  9.237702604E+01  1.978271226E+02  1.250000000E+02  0.00000E+00  9.000E+00
      21     1     1     2   511   502 -4.743497344E+01 -4.683703077E+01 -3.380498879E+00  6.674737395E+01  8.950625311E-07  0.00000E+00  9.000E+00
#rwgt            2          11   3.3679015193220432E-003           4      299618           0
</event>
<event>
      5   9999  3.19816E-02  5.88877E+02 -1.00000E+00  9.68745E-02
      21    -1     0     0   502   501  0.000000000E+00  0.000000000E+00  2.224462313E+02  2.224462313E+02  0.000000000E+00  0.00000E+00  9.000E+00
       2    -1     0     0   501     0  0.000000000E+00  0.000000000E+00 -2.950770243E+03  2.950770243E+03  0.000000000E+00  0.00000E+00  9.000E+00
      25     1     1     2     0     0 -4.341172232E+01  2.118391667E+02 -6.217047242E+02  6.700016226E+02  1.250000000E+02  0.00000E+00  9.000E+00
      25     1     1     2     0     0  3.831309270E+02  2.691667661E+02 -2.301268715E+02  5.364917820E+02  1.250000000E+02  0.00000E+00  9.000E+00
       2     1     1     2   502     0 -3.397192047E+02 -4.810059328E+02 -1.876492416E+03  1.966723070E+03  3.051757812E-05  0.00000E+00  9.000E+00
#rwgt            2          13   1.3233108381624137E-003           4      299773           0
</event>
<event>
      5   9999  3.19816E-02  8.48877E+01 -1.00000E+00  1.27115E-01
      -3    -1     0     0     0   501  0.000000000E+00  0.000000000E+00  9.138344660E+02  9.138344660E+02  0.000000000E+00  0.00000E+00  9.000E+00
      21    -1     0     0   501   502  0.000000000E+00  0.000000000E+00 -1.675658403E+02  1.675658403E+02  0.000000000E+00  0.00000E+00  9.000E+00
      25     1     1     2     0     0 -1.262668246E+02 -2.873757872E+02  1.356975300E+02  3.640974783E+02  1.250000000E+02  0.00000E+00  9.000E+00
      25     1     1     2     0     0  4.669238371E+01  2.578151164E+02  4.960407697E+02  5.747436456E+02  1.250000000E+02  0.00000E+00  9.000E+00
      -3     1     1     2     0   502  7.957444089E+01  2.956067073E+01  1.145303260E+02  1.425591824E+02  1.348699152E-06  0.00000E+00  9.000E+00
#rwgt            1           1   2.8728044312727730E-002           4      299792           0
</event>
<event>
      5   9999  3.19816E-02  2.92309E+01 -1.00000E+00  1.53827E-01
      21    -1     0     0   502   501  0.000000000E+00  0.000000000E+00  1.127934226E+02  1.127934226E+02  0.000000000E+00  0.00000E+00  9.000E+00
      21    -1     0     0   501   511  0.000000000E+00  0.000000000E+00 -6.912616547E+02  6.912616547E+02  0.000000000E+00  0.00000E+00  9.000E+00
      25     1     1     2     0     0 -1.936768404E+02 -1.506653821E+02 -3.252677896E+02  4.261864743E+02  1.250000000E+02  0.00000E+00  9.000E+00
      25     1     1     2     0     0  1.732684077E+02  1.297383865E+02 -2.145518454E+02  3.294108140E+02  1.250000000E+02  0.00000E+00  9.000E+00
      21     1     1     2   502   511  2.040843273E+01  2.092699563E+01 -3.864859699E+01  4.845778907E+01  4.768371582E-07  0.00000E+00  9.000E+00
#rwgt            1           1   2.9139194112656475E-002           4      299869           0
</event>
<event>
      5   9999  3.19816E-02  5.65106E+01 -1.00000E+00  1.36109E-01
      21    -1     0     0   502   512  0.000000000E+00  0.000000000E+00  9.197110987E+01  9.197110987E+01  0.000000000E+00  0.00000E+00  9.000E+00
      21    -1     0     0   501   502  0.000000000E+00  0.000000000E+00 -5.541416144E+02  5.541416144E+02  0.000000000E+00  0.00000E+00  9.000E+00
      25     1     1     2     0     0 -4.585311445E+01 -3.287923627E+01 -2.819946115E+02  3.135753708E+02  1.250000000E+02  0.00000E+00  9.000E+00
      25     1     1     2     0     0  6.718227543E+01  8.521004280E+01 -2.109899926E+02  2.681715617E+02  1.250000000E+02  0.00000E+00  9.000E+00
      21     1     1     2   501   512 -2.132916098E+01 -5.233080653E+01  3.081409953E+01  6.436579177E+01  1.215700987E-06  0.00000E+00  9.000E+00
#rwgt            1           1   4.8341867981562266E-002           4      299989           0
</event>
<event>
      5   9999  3.19816E-02  1.48792E+01 -1.00000E+00  1.77715E-01
      21    -1     0     0   502   501  0.000000000E+00  0.000000000E+00  2.212399004E+02  2.212399004E+02  0.000000000E+00  0.00000E+00  9.000E+00
      21    -1     0     0   511   502  0.000000000E+00  0.000000000E+00 -1.828301771E+03  1.828301771E+03  0.000000000E+00  0.00000E+00  9.000E+00
      25     1     1     2     0     0  3.179847344E+02 -1.036352546E+02  4.379819440E+01  3.597191114E+02  1.250000000E+02  0.00000E+00  9.000E+00
      25     1     1     2     0     0 -3.031486793E+02  1.047674400E+02 -1.608558237E+03  1.644980225E+03  1.250000000E+02  0.00000E+00  9.000E+00
      21     1     1     2   511   501 -1.483605506E+01 -1.132185336E+00 -4.230182862E+01  4.484233578E+01  0.000000000E+00  0.00000E+00  9.000E+00
#rwgt            1           1   2.7522128674292431E-002           4      300055           0
</event>
<event>
      5   9999  3.19816E-02  5.99721E+01 -1.00000E+00  1.34714E-01
      21    -1     0     0   502   501  0.000000000E+00  0.000000000E+00  2.446853778E+03  2.446853778E+03  0.000000000E+00  0.00000E+00  9.000E+00
      21    -1     0     0   512   502  0.000000000E+00  0.000000000E+00 -2.029198919E+01  2.029198919E+01  0.000000000E+00  0.00000E+00  9.000E+00
      25     1     1     2     0     0  7.779840394E+01  6.267085409E+01  6.645095258E+02  6.835043068E+02  1.250000000E+02  0.00000E+00  9.000E+00
      25     1     1     2     0     0 -5.115194232E+01 -1.163981055E+02  1.615262478E+03  1.625073203E+03  1.250000000E+02  0.00000E+00  9.000E+00
      21     1     1     2   512   501 -2.664646163E+01  5.372725142E+01  1.467897852E+02  1.585682582E+02  0.000000000E+00  0.00000E+00  9.000E+00
#rwgt            1           1   5.8376402861462992E-002           4      300281           0
</event>
<event>
      5   9999  3.19816E-02  9.27853E+01 -1.00000E+00  1.25308E-01
      21    -1     0     0   511   501  0.000000000E+00  0.000000000E+00  1.272489200E+02  1.272489200E+02  0.000000000E+00  0.00000E+00  9.000E+00
      21    -1     0     0   501   502  0.000000000E+00  0.000000000E+00 -7.846943705E+02  7.846943705E+02  0.000000000E+00  0.00000E+00  9.000E+00
      25     1     1     2     0     0 -1.348410969E+02  2.185280402E+02 -1.672068955E+02  3.309377157E+02  1.250000000E+02  0.00000E+00  9.000E+00
      25     1     1     2     0     0  9.022524965E+01 -1.371736002E+02 -4.071398757E+02  4.564483220E+02  1.250000000E+02  0.00000E+00  9.000E+00
      21     1     1     2   511   502  4.461584722E+01 -8.135444004E+01 -8.309867915E+01  1.245572528E+02  2.132480600E-06  0.00000E+00  9.000E+00
#rwgt            1           1   2.8112007892729659E-002           4      300352           0
</event>
<event>
      5   9999  3.19816E-02  2.91195E+01 -1.00000E+00  1.53944E-01
      -4    -1     0     0     0   501  0.000000000E+00  0.000000000E+00  1.096918266E+03  1.096918266E+03  0.000000000E+00  0.00000E+00  9.000E+00
      21    -1     0     0   501   502  0.000000000E+00  0.000000000E+00 -1.923547985E+02  1.923547985E+02  0.000000000E+00  0.00000E+00  9.000E+00
      25     1     1     2     0     0 -1.717407552E+02  7.623107258E+01 -5.259940855E+01  2.317277739E+02  1.250000000E+02  0.00000E+00  9.000E+00
      25     1     1     2     0     0  1.489853737E+02 -9.440083809E+01  1.841369059E+02  2.839710548E+02  1.250000000E+02  0.00000E+00  9.000E+00
      -4     1     1     2     0   502  2.275538150E+01  1.816976551E+01  7.730259700E+02  7.735742357E+02  1.078959322E-05  0.00000E+00  9.000E+00
#rwgt            1           1   2.9792191459841348E-002           4      300448           0
</event>
<event>
      5   9999  3.19816E-02  2.76471E+01 -1.00000E+00  1.55545E-01
      21    -1     0     0   502   501  0.000000000E+00  0.000000000E+00  6.862804144E+02  6.862804144E+02  0.000000000E+00  0.00000E+00  9.000E+00
      21    -1     0     0   511   502  0.000000000E+00  0.000000000E+00 -3.069959745E+02  3.069959745E+02  0.000000000E+00  0.00000E+00  9.000E+00
      25     1     1     2     0     0 -2.357885203E+02  1.328566584E+02  4.726300703E+02  5.587945072E+02  1.250000000E+02  0.00000E+00  9.000E+00
      25     1     1     2     0     0  2.559099664E+02 -1.518168991E+02  1.457884529E+01  3.230724755E+02  1.250000000E+02  0.00000E+00  9.000E+00
      21     1     1     2   511   501 -2.012144605E+01  1.896024067E+01 -1.079244757E+02  1.114094062E+02  2.697398305E-06  0.00000E+00  9.000E+00
#rwgt            1           1   2.5106730866492316E-002           4      300579           0
</event>
<event>
      5   9999  3.19816E-02  2.85794E+01 -1.00000E+00  1.54518E-01
      21    -1     0     0   502   501  0.000000000E+00  0.000000000E+00  1.767497000E+03  1.767497000E+03  0.000000000E+00  0.00000E+00  9.000E+00
      21    -1     0     0   512   502  0.000000000E+00  0.000000000E+00 -3.006507364E+01  3.006507364E+01  0.000000000E+00  0.00000E+00  9.000E+00
      25     1     1     2     0     0  3.294978742E+01 -1.115163847E+02  3.436229935E+02  3.836969563E+02  1.250000000E+02  0.00000E+00  9.000E+00
      25     1     1     2     0     0 -1.635633714E+01  8.824750994E+01  1.363689725E+03  1.372344643E+03  1.250000000E+02  0.00000E+00  9.000E+00
      21     1     1     2   512   501 -1.659345028E+01  2.326887476E+01  3.011920792E+01  4.152047460E+01  1.390207266E-06  0.00000E+00  9.000E+00
#rwgt            1           1   2.9587303410879590E-002           4      300710           0
</event>
<event>
      5   9999  3.19816E-02  1.04309E+02 -1.00000E+00  1.23010E-01
      21    -1     0     0   502   501  0.000000000E+00  0.000000000E+00  6.024741328E+02  6.024741328E+02  0.000000000E+00  0.00000E+00  9.000E+00
      21    -1     0     0   511   502  0.000000000E+00  0.000000000E+00 -2.116143313E+02  2.116143313E+02  0.000000000E+00  0.00000E+00  9.000E+00
      25     1     1     2     0     0 -8.257772313E+00  1.789249255E+02  2.814613961E+02  3.562693325E+02  1.250000000E+02  0.00000E+00  9.000E+00
      25     1     1     2     0     0 -1.756019242E+01 -2.799878076E+02  1.549477372E+02  3.439990320E+02  1.250000000E+02  0.00000E+00  9.000E+00
      21     1     1     2   511   501  2.581796473E+01  1.010628821E+02 -4.554933180E+01  1.138200996E+02  3.015782986E-06  0.00000E+00  9.000E+00
#rwgt            1           1   2.8824411985051136E-002           4      300819           0
</event>
<event>
      5   9999  3.19816E-02  2.25663E+01 -1.00000E+00  1.62156E-01
      21    -1     0     0   512   501  0.000000000E+00  0.000000000E+00  2.072058391E+02  2.072058391E+02  0.000000000E+00  0.00000E+00  9.000E+00
      21    -1     0     0   501   502  0.000000000E+00  0.000000000E+00 -4.606312050E+02  4.606312050E+02  0.000000000E+00  0.00000E+00  9.000E+00
      25     1     1     2     0     0  6.342864679E+01 -2.536023523E+02 -2.800741990E+01  2.911129711E+02  1.250000000E+02  0.00000E+00  9.000E+00
      25     1     1     2     0     0 -5.399247054E+01  2.331036613E+02 -2.288396579E+02  3.538998345E+02  1.250000000E+02  0.00000E+00  9.000E+00
      21     1     1     2   512   502 -9.436176250E+00  2.049869102E+01  3.421711840E+00  2.282423860E+01  1.264405455E-07  0.00000E+00  9.000E+00
#rwgt            1           1   2.7666944246462100E-002           4      300885           0
</event>
<event>
      5   9999  3.19816E-02  1.71530E+01 -1.00000E+00  1.72066E-01
      21    -1     0     0   502   501  0.000000000E+00  0.000000000E+00  1.922433805E+03  1.922433805E+03  0.000000000E+00  0.00000E+00  9.000E+00
      21    -1     0     0   511   502  0.000000000E+00  0.000000000E+00 -7.747775260E+02  7.747775260E+02  0.000000000E+00  0.00000E+00  9.000E+00
      25     1     1     2     0     0 -1.057199287E+03 -4.052681430E+02  9.841449622E+02  1.505350094E+03  1.250000000E+02  0.00000E+00  9.000E+00
      25     1     1     2     0     0  1.069492033E+03  4.172312095E+02  1.792152890E+02  1.168605242E+03  1.250000000E+02  0.00000E+00  9.000E+00
      21     1     1     2   511   501 -1.229274648E+01 -1.196306655E+01 -1.570397174E+01  2.325599504E+01  3.769728732E-07  0.00000E+00  9.000E+00
#rwgt            1           1   5.2167347137642747E-002           4      301024           0
</event>
<event>
      5   9999  3.19816E-02  2.28039E+02 -1.00000E+00  1.09612E-01
      21    -1     0     0   512   501  0.000000000E+00  0.000000000E+00  1.537659278E+03  1.537659278E+03  0.000000000E+00  0.00000E+00  9.000E+00
      21    -1     0     0   501   502  0.000000000E+00  0.000000000E+00 -4.209360995E+02  4.209360995E+02  0.000000000E+00  0.00000E+00  9.000E+00
      25     1     1     2     0     0  2.594163931E+02 -1.922385607E+02  5.766080833E+01  3.510018490E+02  1.250000000E+02  0.00000E+00  9.000E+00
      25     1     1     2     0     0 -2.213534388E+02 -3.260104832E+01 -2.018453021E+02  3.262310519E+02  1.250000000E+02  0.00000E+00  9.000E+00
      21     1     1     2   512   502 -3.806295430E+01  2.248396090E+02  1.260907672E+03  1.281362476E+03  1.525878906E-05  0.00000E+00  9.000E+00
#rwgt            2          11   2.9514416282846226E-003           4      301415           0
</event>
<event>
      5   9999  3.19816E-02  2.50710E+01 -1.00000E+00  1.58659E-01
      21    -1     0     0   502   511  0.000000000E+00  0.000000000E+00  3.376747519E+02  3.376747519E+02  0.000000000E+00  0.00000E+00  9.000E+00
      21    -1     0     0   501   502  0.000000000E+00  0.000000000E+00 -1.197748117E+03  1.197748117E+03  0.000000000E+00  0.00000E+00  9.000E+00
      25     1     1     2     0     0  3.800706906E+02 -4.166622144E+02 -1.810004753E+02  6.053489100E+02  1.250000000E+02  0.00000E+00  9.000E+00
      25     1     1     2     0     0 -3.581793331E+02  4.288820159E+02 -6.949094432E+02  9.004200978E+02  1.250000000E+02  0.00000E+00  9.000E+00
      21     1     1     2   501   511 -2.189135756E+01 -1.221980154E+01  1.583655306E+01  2.965386144E+01  3.769728732E-07  0.00000E+00  9.000E+00
#rwgt            2          11   1.1927786106420982E-002           4      301555           0
</event>
<event>
      5   9999  3.19816E-02  9.32108E+00 -1.00000E+00  1.99354E-01
      21    -1     0     0   502   501  0.000000000E+00  0.000000000E+00  6.154852287E+02  6.154852287E+02  0.000000000E+00  0.00000E+00  9.000E+00
      21    -1     0     0   512   502  0.000000000E+00  0.000000000E+00 -3.118774724E+02  3.118774724E+02  0.000000000E+00  0.00000E+00  9.000E+00
      25     1     1     2     0     0  3.073099173E+02 -1.951237508E+02  1.218579174E+02  4.037165038E+02  1.250000000E+02  0.00000E+00  9.000E+00
      25     1     1     2     0     0 -3.118053632E+02  2.032891364E+02  2.429538092E+02  4.617365168E+02  1.250000000E+02  0.00000E+00  9.000E+00
      21     1     1     2   512   501  4.495445908E+00 -8.165385685E+00 -6.120397037E+01  6.190968055E+01  9.536743164E-07  0.00000E+00  9.000E+00
#rwgt            1           1   2.7928176560342060E-002           4      301575           0
</event>
<event>
      5   9999  3.19816E-02  5.87314E+01 -1.00000E+00  1.35201E-01
      21    -1     0     0   502   511  0.000000000E+00  0.000000000E+00  9.181446634E+01  9.181446634E+01  0.000000000E+00  0.00000E+00  9.000E+00
      21    -1     0     0   501   502  0.000000000E+00  0.000000000E+00 -2.323869440E+03  2.323869440E+03  0.000000000E+00  0.00000E+00  9.000E+00
      25     1     1     2     0     0  2.667573945E+02  4.241628092E+01 -4.301476426E+02  5.230780466E+02  1.250000000E+02  0.00000E+00  9.000E+00
      25     1     1     2     0     0 -2.554761014E+02  1.522146847E+01 -1.810924415E+03  1.833186288E+03  1.250000000E+02  0.00000E+00  9.000E+00
      21     1     1     2   501   511 -1.128129306E+01 -5.763774939E+01  9.017083301E+00  5.941957185E+01  2.528810911E-06  0.00000E+00  9.000E+00
#rwgt            1           1   8.6628820099223278E-002           4      301889           0
</event>
<event>
      5   9999  3.19816E-02  1.26625E+02 -1.00000E+00  1.19386E-01
      21    -1     0     0   512   501  0.000000000E+00  0.000000000E+00  1.768972043E+03  1.768972043E+03  0.000000000E+00  0.00000E+00  9.000E+00
      21    -1     0     0   501   502  0.000000000E+00  0.000000000E+00 -2.994502282E+03  2.994502282E+03  0.000000000E+00  0.00000E+00  9.000E+00
      25     1     1     2     0     0  1.291327450E+02 -1.317350041E+03 -1.670850301E+03  2.135287364E+03  1.250000000E+02  0.00000E+00  9.000E+00
      25     1     1     2     0     0 -2.537819428E+02  1.339634196E+03 -6.569771989E+02  1.518640541E+03  1.250000000E+02  0.00000E+00  9.000E+00
      21     1     1     2   512   502  1.246491978E+02 -2.228415517E+01  1.102297261E+03  1.109546420E+03  1.525878906E-05  0.00000E+00  9.000E+00
#rwgt            1           1   3.2326816560623847E-002           4      302004           0
</event>
<event>
      5   9999  3.19816E-02  1.22311E+01 -1.00000E+00  1.86161E-01
      21    -1     0     0   502   511  0.000000000E+00  0.000000000E+00  5.223257864E+02  5.223257864E+02  0.000000000E+00  0.00000E+00  9.000E+00
      21    -1     0     0   501   502  0.000000000E+00  0.000000000E+00 -1.249450251E+02  1.249450251E+02  0.000000000E+00  0.00000E+00  9.000E+00
      25     1     1     2     0     0 -5.304745251E+01  1.416772681E+02  4.055564248E+00  1.962853232E+02  1.250000000E+02  0.00000E+00  9.000E+00
      25     1     1     2     0     0  6.525328761E+01 -1.408907981E+02  3.226332373E+02  3.792432126E+02  1.250000000E+02  0.00000E+00  9.000E+00
      21     1     1     2   501   511 -1.220583510E+01 -7.864699664E-01  7.069195971E+01  7.174227564E+01  1.348699152E-06  0.00000E+00  9.000E+00
#rwgt            1           1   2.7193652703328186E-002           4      302116           0
</event>
<event>
      5   9999  3.19816E-02  3.75674E+01 -1.00000E+00  1.46551E-01
      21    -1     0     0   512   501  0.000000000E+00  0.000000000E+00  5.172606418E+02  5.172606418E+02  0.000000000E+00  0.00000E+00  9.000E+00
      21    -1     0     0   501   502  0.000000000E+00  0.000000000E+00 -2.214168205E+02  2.214168205E+02  0.000000000E+00  0.00000E+00  9.000E+00
      25     1     1     2     0     0  1.506377400E+02 -2.173874356E+01 -1.472737586E+01  1.974998666E+02  1.250000000E+02  0.00000E+00  9.000E+00
      25     1     1     2     0     0 -1.259025296E+02  5.001385356E+01 -3.998209339E+01  1.886170732E+02  1.250000000E+02  0.00000E+00  9.000E+00
      21     1     1     2   512   502 -2.473521041E+01 -2.827511000E+01  3.505532906E+02  3.525605225E+02  3.814697266E-06  0.00000E+00  9.000E+00
#rwgt            1           1   2.5676096327271435E-002           4      302243           0
</event>
<event>
      5   9999  3.19816E-02  6.77291E+01 -1.00000E+00  1.31950E-01
      21    -1     0     0   502   501  0.000000000E+00  0.000000000E+00  2.616042745E+02  2.616042745E+02  0.000000000E+00  0.00000E+00  9.000E+00
      21    -1     0     0   501   511  0.000000000E+00  0.000000000E+00 -5.456235795E+02  5.456235795E+02  0.000000000E+00  0.00000E+00  9.000E+00
      25     1     1     2     0     0 -2.067781979E+02  1.671806767E+02  4.832218389E+00  2.938621312E+02  1.250000000E+02  0.00000E+00  9.000E+00
      25     1     1     2     0     0  2.643206927E+02 -2.029030214E+02 -2.309648718E+02  4.242697687E+02  1.250000000E+02  0.00000E+00  9.000E+00
      21     1     1     2   502   511 -5.754249473E+01  3.572234466E+01 -5.788665161E+01  8.909595412E+01  1.907348633E-06  0.00000E+00  9.000E+00
#rwgt            1           1   2.7823555150020645E-002           4      302405           0
</event>
<event>
      5   9999  3.19816E-02  1.05067E+02 -1.00000E+00  1.22870E-01
      21    -1     0     0   502   501  0.000000000E+00  0.000000000E+00  3.636940475E+01  3.636940475E+01  0.000000000E+00  0.00000E+00  9.000E+00
      21    -1     0     0   512   502  0.000000000E+00  0.000000000E+00 -2.914307187E+03  2.914307187E+03  0.000000000E+00  0.00000E+00  9.000E+00
      25     1     1     2     0     0 -1.130140648E+02  2.685527227E+02 -1.304224679E+03  1.342207047E+03  1.250000000E+02  0.00000E+00  9.000E+00
      25     1     1     2     0     0  9.366509752E+01 -1.652825138E+02 -1.059040610E+03  1.083182106E+03  1.250000000E+02  0.00000E+00  9.000E+00
      21     1     1     2   512   501  1.934896730E+01 -1.032702090E+02 -5.146724925E+02  5.252874386E+02  7.629394531E-06  0.00000E+00  9.000E+00
#rwgt            1           1   6.4296536112720237E-002           4      302469           0
</event>
<event>
      5   9999  3.19816E-02  2.39068E+01 -1.00000E+00  1.60219E-01
      21    -1     0     0   502   501  0.000000000E+00  0.000000000E+00  5.845980897E+02  5.845980897E+02  0.000000000E+00  0.00000E+00  9.000E+00
      21    -1     0     0   501   511  0.000000000E+00  0.000000000E+00 -1.263725727E+03  1.263725727E+03  0.000000000E+00  0.00000E+00  9.000E+00
      25     1     1     2     0     0 -1.279871978E+02 -7.056401397E+02 -5.266360109E+02  8.984871827E+02  1.250000000E+02  0.00000E+00  9.000E+00
      25     1     1     2     0     0  1.062962302E+02  6.955883328E+02  7.726085200E+01  7.188436941E+02  1.250000000E+02  0.00000E+00  9.000E+00
      21     1     1     2   502   511  2.169096762E+01  1.005180686E+01 -2.297524784E+02  2.309929397E+02  4.672030912E-06  0.00000E+00  9.000E+00
#rwgt            1           1   3.4483096792089482E-002           4      302572           0
</event>
<event>
      5   9999  3.19816E-02  3.21085E+01 -1.00000E+00  1.51019E-01
      21    -1     0     0   502   501  0.000000000E+00  0.000000000E+00  6.244228978E+02  6.244228978E+02  0.000000000E+00  0.00000E+00  9.000E+00
      21    -1     0     0   501   512  0.000000000E+00  0.000000000E+00 -7.269836294E+02  7.269836294E+02  0.000000000E+00  0.00000E+00  9.000E+00
      25     1     1     2     0     0 -4.870329568E+02  3.243961069E+02  2.491782645E+02  6.481888172E+02  1.250000000E+02  0.00000E+00  9.000E+00
      25     1     1     2     0     0  4.786855984E+02 -2.933916640E+02 -3.439321851E+02  6.701737973E+02  1.250000000E+02  0.00000E+00  9.000E+00
      21     1     1     2   502   512  8.347358390E+00 -3.100444292E+01 -7.806810978E+00  3.304391276E+01  6.743495762E-07  0.00000E+00  9.000E+00
#rwgt            1           1   2.3495671248331927E-002           4      302758           0
</event>
<event>
      5   9999  3.19816E-02  1.39032E+02 -1.00000E+00  1.17716E-01
      21    -1     0     0   502   511  0.000000000E+00  0.000000000E+00  2.118798657E+02  2.118798657E+02  0.000000000E+00  0.00000E+00  9.000E+00
      21    -1     0     0   501   502  0.000000000E+00  0.000000000E+00 -1.710285837E+03  1.710285837E+03  0.000000000E+00  0.00000E+00  9.000E+00
      25     1     1     2     0     0  1.660228188E+02  1.027592273E+02 -1.584240042E+03  1.601113533E+03  1.250000000E+02  0.00000E+00  9.000E+00
      25     1     1     2     0     0 -2.719889372E+01 -1.103634548E+02  3.196842935E+01  1.719501453E+02  1.250000000E+02  0.00000E+00  9.000E+00
      21     1     1     2   501   511 -1.388239251E+02  7.604227499E+00  5.386564114E+01  1.491020246E+02  3.090257978E-06  0.00000E+00  9.000E+00
#rwgt            1           1   2.8579251639268017E-002           4      302898           0
</event>
<event>
      5   9999  3.19816E-02  9.37269E+00 -1.00000E+00  1.99067E-01
      21    -1     0     0   512   501  0.000000000E+00  0.000000000E+00  1.130125639E+03  1.130125639E+03  0.000000000E+00  0.00000E+00  9.000E+00
      21    -1     0     0   501   502  0.000000000E+00  0.000000000E+00 -2.948352412E+02  2.948352412E+02  0.000000000E+00  0.00000E+00  9.000E+00
      25     1     1     2     0     0  3.645939413E+02 -8.206009559E+01 -9.652286303E+01  4.057145109E+02  1.250000000E+02  0.00000E+00  9.000E+00
      25     1     1     2     0     0 -3.561925598E+02  8.621510629E+01  8.176643273E+02  9.047132896E+02  1.250000000E+02  0.00000E+00  9.000E+00
      21     1     1     2   512   502 -8.401381489E+00 -4.155010703E+00  1.141489334E+02  1.145330795E+02  1.348699152E-06  0.00000E+00  9.000E+00
#rwgt            1           1   2.0754300407034222E-002           4      302958           0
</event>
<event>
      5   9999  3.19816E-02  3.54332E+01 -1.00000E+00  1.48183E-01
      21    -1     0     0   502   501  0.000000000E+00  0.000000000E+00  1.487579408E+02  1.487579408E+02  0.000000000E+00  0.00000E+00  9.000E+00
      21    -1     0     0   511   502  0.000000000E+00  0.000000000E+00 -3.061786932E+03  3.061786932E+03  0.000000000E+00  0.00000E+00  9.000E+00
      25     1     1     2     0     0 -3.454636330E+01 -2.453189405E+02 -1.445874009E+01  2.778648754E+02  1.250000000E+02  0.00000E+00  9.000E+00
      25     1     1     2     0     0  6.968420077E+01  2.498847710E+02 -1.212077301E+03  1.245814862E+03  1.250000000E+02  0.00000E+00  9.000E+00
      21     1     1     2   511   501 -3.513783747E+01 -4.565830454E+00 -1.686492950E+03  1.686865136E+03  2.157918644E-05  0.00000E+00  9.000E+00
#rwgt            1           1   2.8302707217984422E-002           4      303293           0
</event>
<event>
      5   9999  3.19816E-02  9.88798E+01 -1.00000E+00  1.24048E-01
      21    -1     0     0   512   501  0.000000000E+00  0.000000000E+00  7.694575616E+02  7.694575616E+02  0.000000000E+00  0.00000E+00  9.000E+00
      21    -1     0     0   501   502  0.000000000E+00  0.000000000E+00 -9.159854029E+01  9.159854029E+01  0.000000000E+00  0.00000E+00  9.000E+00
      25     1     1     2     0     0 -8.300209844E+01 -1.642701078E+02  1.420611053E+02  2.639704042E+02  1.250000000E+02  0.00000E+00  9.000E+00
      25     1     1     2     0     0  8.470408379E+01  6.540492361E+01  3.411642639E+02  3.787751851E+02  1.250000000E+02  0.00000E+00  9.000E+00
      21     1     1     2   512   502 -1.701985355E+00  9.886518419E+01  1.946336520E+02  2.183105126E+02  2.697398305E-06  0.00000E+00  9.000E+00
#rwgt            2          11   2.5197433237105025E-003           4      303567           0
</event>
<event>
      5   9999  3.19816E-02  1.59896E+02 -1.00000E+00  1.15304E-01
      21    -1     0     0   502   501  0.000000000E+00  0.000000000E+00  1.201161533E+03  1.201161533E+03  0.000000000E+00  0.00000E+00  9.000E+00
      21    -1     0     0   511   502  0.000000000E+00  0.000000000E+00 -3.949917004E+02  3.949917004E+02  0.000000000E+00  0.00000E+00  9.000E+00
      25     1     1     2     0     0  3.260051065E+02  3.021463747E+02  5.284768220E+02  7.017724080E+02  1.250000000E+02  0.00000E+00  9.000E+00
      25     1     1     2     0     0 -4.326749089E+02 -4.212615241E+02  3.604935986E+02  7.143174946E+02  1.250000000E+02  0.00000E+00  9.000E+00
      21     1     1     2   511   501  1.066698024E+02  1.191151494E+02 -8.280058825E+01  1.800633305E+02  3.015782986E-06  0.00000E+00  9.000E+00
#rwgt            2          11   4.4652665412669946E-003           4      303662           0
</event>
<event>
      5   9999  3.19816E-02  8.42222E+01 -1.00000E+00  1.27278E-01
      21    -1     0     0   512   501  0.000000000E+00  0.000000000E+00  2.555178240E+02  2.555178240E+02  0.000000000E+00  0.00000E+00  9.000E+00
      21    -1     0     0   501   502  0.000000000E+00  0.000000000E+00 -5.590101489E+02  5.590101489E+02  0.000000000E+00  0.00000E+00  9.000E+00
      25     1     1     2     0     0 -7.964370923E+01 -8.734939020E+01  1.351991503E+02  2.188077847E+02  1.250000000E+02  0.00000E+00  9.000E+00
      25     1     1     2     0     0  1.355788223E+02  2.438405241E+01 -4.703092172E+02  5.057587952E+02  1.250000000E+02  0.00000E+00  9.000E+00
      21     1     1     2   512   502 -5.593511306E+01  6.296533780E+01  3.161774198E+01  8.996139308E+01  1.430511475E-06  0.00000E+00  9.000E+00
#rwgt            1           1   2.9891435440600179E-002           4      303697           0
</event>
<event>
      5   9999  3.19816E-02  7.13116E+01 -1.00000E+00  1.30814E-01
      21    -1     0     0   511   501  0.000000000E+00  0.000000000E+00  1.775913560E+03  1.775913560E+03  0.000000000E+00  0.00000E+00  9.000E+00
      21    -1     0     0   501   502  0.000000000E+00  0.000000000E+00 -2.115466556E+03  2.115466556E+03  0.000000000E+00  0.00000E+00  9.000E+00
      25     1     1     2     0     0 -1.779168846E+03 -1.047353388E+02 -9.099201111E+02  2.004991491E+03  1.250000000E+02  0.00000E+00  9.000E+00
      25     1     1     2     0     0  1.717494699E+03  6.893534783E+01  5.239533834E+02  1.801302937E+03  1.250000000E+02  0.00000E+00  9.000E+00
      21     1     1     2   511   502  6.167414648E+01  3.579999099E+01  4.641373182E+01  8.508568740E+01  6.743495762E-07  0.00000E+00  9.000E+00
#rwgt            1           1   2.4151362607766749E-002           4      303800           0
</event>
<event>
      5   9999  3.19816E-02  5.77765E+01 -1.00000E+00  1.35586E-01
      21    -1     0     0   502   501  0.000000000E+00  0.000000000E+00  8.866046028E+01  8.866046028E+01  0.000000000E+00  0.00000E+00  9.000E+00
      21    -1     0     0   512   502  0.000000000E+00  0.000000000E+00 -1.493254124E+03  1.493254124E+03  0.000000000E+00  0.00000E+00  9.000E+00
      25     1     1     2     0     0  6.293346992E+01  1.536627476E+01  1.537339285E+01  1.416265697E+02  1.250000000E+02  0.00000E+00  9.000E+00
      25     1     1     2     0     0 -1.201600696E+02 -2.331861933E+01 -1.207396982E+03  1.220006013E+03  1.250000000E+02  0.00000E+00  9.000E+00
      21     1     1     2   512   501  5.722659963E+01  7.952344575E+00 -2.125700745E+02  2.202820012E+02  0.000000000E+00  0.00000E+00  9.000E+00
#rwgt            1           1   2.9793939388781415E-002           4      303932           0
</event>
<event>
      5   9999  3.19816E-02  2.76752E+02 -1.00000E+00  1.06743E-01
      21    -1     0     0   511   501  0.000000000E+00  0.000000000E+00  5.528601985E+02  5.528601985E+02  0.000000000E+00  0.00000E+00  9.000E+00
      21    -1     0     0   501   502  0.000000000E+00  0.000000000E+00 -5.136931578E+02  5.136931578E+02  0.000000000E+00  0.00000E+00  9.000E+00
      25     1     1     2     0     0 -7.166534322E+01 -1.373497068E+01 -3.704711408E+02  3.977416712E+02  1.250000000E+02  0.00000E+00  9.000E+00
      25     1     1     2     0     0 -1.893436990E+02  1.057456440E+02  1.685251878E+02  3.017596999E+02  1.250000000E+02  0.00000E+00  9.000E+00
      21     1     1     2   511   502  2.610090422E+02 -9.201067328E+01  2.411129938E+02  3.670519853E+02  4.672030912E-06  0.00000E+00  9.000E+00
#rwgt            2          11   3.1803193816755397E-003           4      304071           0
</event>
<event>
      5   9999  3.19816E-02  2.62515E+02  7.55638E-03  1.07510E-01
      -3    -1     0     0     0   501  0.000000000E+00  0.000000000E+00  1.066510275E+03  1.066510275E+03  0.000000000E+00  0.00000E+00  9.000E+00
       3    -1     0     0   502     0  0.000000000E+00  0.000000000E+00 -2.121045861E+02  2.121045861E+02  0.000000000E+00  0.00000E+00  9.000E+00
      25     1     1     2     0     0  2.934131062E+02  3.681614368E+01  4.602982022E+02  5.612006007E+02  1.250000000E+02  0.00000E+00  9.000E+00
      25     1     1     2     0     0 -4.424276861E+01 -1.194496944E+02 -6.385493015E+01  1.895471028E+02  1.250000000E+02  0.00000E+00  9.000E+00
      21     1     1     2   502   501 -2.491703375E+02  8.263355075E+01  4.579624167E+02  5.278671575E+02  5.394796609E-06  0.00000E+00  9.000E+00
#rwgt            3           3   4.6249375315746593E-007           4      304151           0
</event>
<event>
      5   9999  3.19816E-02  1.44377E+02 -1.00000E+00  1.17055E-01
      21    -1     0     0   502   511  0.000000000E+00  0.000000000E+00  4.942071014E+02  4.942071014E+02  0.000000000E+00  0.00000E+00  9.000E+00
      21    -1     0     0   501   502  0.000000000E+00  0.000000000E+00 -6.369440774E+02  6.369440774E+02  0.000000000E+00  0.00000E+00  9.000E+00
      25     1     1     2     0     0 -2.130548950E+02 -2.469342453E+02 -1.075062056E+02  3.654469784E+02  1.250000000E+02  0.00000E+00  9.000E+00
      25     1     1     2     0     0  3.314893075E+02  1.643629483E+02 -2.806783376E+02  4.809424799E+02  1.250000000E+02  0.00000E+00  9.000E+00
      21     1     1     2   501   511 -1.184344125E+02  8.257129698E+01  2.454475672E+02  2.847617204E+02  2.697398305E-06  0.00000E+00  9.000E+00
#rwgt            1           1   2.4313194621198707E-002           4      304170           0
</event>
<event>
      5   9999  3.19816E-02  1.13093E+02 -1.00000E+00  1.21471E-01
      21    -1     0     0   502   501  0.000000000E+00  0.000000000E+00  3.597383394E+02  3.597383394E+02  0.000000000E+00  0.00000E+00  9.000E+00
       1    -1     0     0   501     0  0.000000000E+00  0.000000000E+00 -1.723717575E+03  1.723717575E+03  0.000000000E+00  0.00000E+00  9.000E+00
      25     1     1     2     0     0 -2.207259352E+02 -4.161375962E+02  2.103981874E+01  4.878095032E+02  1.250000000E+02  0.00000E+00  9.000E+00
      25     1     1     2     0     0  1.671504682E+02  5.157355519E+02 -6.661259148E+02  8.679119615E+02  1.250000000E+02  0.00000E+00  9.000E+00
       1     1     1     2   502     0  5.357546703E+01 -9.959795567E+01 -7.188931398E+02  7.277344501E+02  1.868812365E-05  0.00000E+00  9.000E+00
#rwgt            1           1   2.5780056785748563E-002           4      304260           0
</event>
<event>
      5   9999  3.19816E-02  5.28899E+01 -1.00000E+00  1.37697E-01
      21    -1     0     0   502   501  0.000000000E+00  0.000000000E+00  8.811106978E+02  8.811106978E+02  0.000000000E+00  0.00000E+00  9.000E+00
      21    -1     0     0   501   511  0.000000000E+00  0.000000000E+00 -7.893606574E+02  7.893606574E+02  0.000000000E+00  0.00000E+00  9.000E+00
      25     1     1     2     0     0  5.355292675E+01 -2.128158672E+02  7.134444016E+02  7.568265478E+02  1.250000000E+02  0.00000E+00  9.000E+00
      25     1     1     2     0     0 -9.991102852E+01  1.873547591E+02  4.019205598E+01  2.496485945E+02  1.250000000E+02  0.00000E+00  9.000E+00
      21     1     1     2   502   511  4.635810177E+01  2.546110816E+01 -6.618864171E+02  6.639962129E+02  7.629394531E-06  0.00000E+00  9.000E+00
#rwgt            1           1   2.8326669457940035E-002           4      304341           0
</event>
<event>
      5   9999  3.19816E-02  1.83738E+02 -1.00000E+00  1.13005E-01
      21    -1     0     0   502   501  0.000000000E+00  0.000000000E+00  4.650307456E+01  4.650307456E+01  0.000000000E+00  0.00000E+00  9.000E+00
       1    -1     0     0   501     0  0.000000000E+00  0.000000000E+00 -2.133138602E+03  2.133138602E+03  0.000000000E+00  0.00000E+00  9.000E+00
      25     1     1     2     0     0 -8.962800412E+01 -1.553692523E+02 -7.034233014E+02  7.366153166E+02  1.250000000E+02  0.00000E+00  9.000E+00
      25     1     1     2     0     0  1.765189983E+02 -6.524844503E+00 -5.796388059E+02  6.187145349E+02  1.250000000E+02  0.00000E+00  9.000E+00
       1     1     1     2   502     0 -8.689099419E+01  1.618940968E+02 -8.035734200E+02  8.243118250E+02  1.078959322E-05  0.00000E+00  9.000E+00
#rwgt            2          12   5.4697963825842057E-004           4      304436           0
</event>
<event>
      5   9999  3.19816E-02  1.43714E+02 -1.00000E+00  1.17135E-01
      21    -1     0     0   502   501  0.000000000E+00  0.000000000E+00  3.380931929E+03  3.380931929E+03  0.000000000E+00  0.00000E+00  9.000E+00
      21    -1     0     0   501   511  0.000000000E+00  0.000000000E+00 -5.275357964E+02  5.275357964E+02  0.000000000E+00  0.00000E+00  9.000E+00
      25     1     1     2     0     0  6.946259656E+02  6.740717323E+02  1.803777407E+03  2.050881729E+03  1.250000000E+02  0.00000E+00  9.000E+00
      25     1     1     2     0     0 -5.759247934E+02 -7.550893258E+02  1.272302653E+03  1.592554017E+03  1.250000000E+02  0.00000E+00  9.000E+00
      21     1     1     2   502   511 -1.187011722E+02  8.101759350E+01 -2.226839270E+02  2.650319793E+02  4.672030912E-06  0.00000E+00  9.000E+00
#rwgt            1           1   5.7674166824912866E-002           4      304455           0
</event>
<event>
      5   9999  3.19816E-02  4.34671E+02 -1.00000E+00  1.00611E-01
       1    -1     0     0   502     0  0.000000000E+00  0.000000000E+00  1.868206474E+03  1.868206474E+03  0.000000000E+00  0.00000E+00  9.000E+00
      21    -1     0     0   501   502  0.000000000E+00  0.000000000E+00 -3.133058801E+02  3.133058801E+02  0.000000000E+00  0.00000E+00  9.000E+00
      25     1     1     2     0     0 -1.176897023E+02 -1.687932315E+02  1.281499849E+03  1.303920582E+03  1.250000000E+02  0.00000E+00  9.000E+00
      25     1     1     2     0     0 -3.149321829E+02  2.109451635E+02  1.235303774E+02  4.178096408E+02  1.250000000E+02  0.00000E+00  9.000E+00
       1     1     1     2   501     0  4.326218852E+02 -4.215193193E+01  1.498703670E+02  4.597821308E+02  8.092194914E-06  0.00000E+00  9.000E+00
#rwgt            2          17   3.0242251326945293E-004           4      304554           0
</event>
<event>
      5   9999  3.19816E-02  6.72182E+01 -1.00000E+00  1.32119E-01
      21    -1     0     0   502   501  0.000000000E+00  0.000000000E+00  2.393496379E+02  2.393496379E+02  0.000000000E+00  0.00000E+00  9.000E+00
      21    -1     0     0   511   502  0.000000000E+00  0.000000000E+00 -1.837118565E+02  1.837118565E+02  0.000000000E+00  0.00000E+00  9.000E+00
      25     1     1     2     0     0  1.919296647E+01  3.501132614E+00  1.486635519E+02  1.952088101E+02  1.250000000E+02  0.00000E+00  9.000E+00
      25     1     1     2     0     0  2.063827758E+01 -5.764678863E+01 -4.929872106E+01  1.476633151E+02  1.250000000E+02  0.00000E+00  9.000E+00
      21     1     1     2   511   501 -3.983124405E+01  5.414565602E+01 -4.372704938E+01  8.018936910E+01  8.259061849E-07  0.00000E+00  9.000E+00
#rwgt            1           1   2.3992716243425583E-002           4      304573           0
</event>
<event>
      5   9999  3.19816E-02  1.08172E+01 -1.00000E+00  1.91894E-01
      21    -1     0     0   502   512  0.000000000E+00  0.000000000E+00  1.050989959E+02  1.050989959E+02  0.000000000E+00  0.00000E+00  9.000E+00
      21    -1     0     0   501   502  0.000000000E+00  0.000000000E+00 -1.650365289E+03  1.650365289E+03  0.000000000E+00  0.00000E+00  9.000E+00
      25     1     1     2     0     0 -7.699167097E+01 -4.516033494E+01 -1.212658441E+03  1.222347196E+03  1.250000000E+02  0.00000E+00  9.000E+00
      25     1     1     2     0     0  6.765988091E+01  5.063109645E+01 -4.193676595E+02  4.456855408E+02  1.250000000E+02  0.00000E+00  9.000E+00
      21     1     1     2   501   512  9.331790064E+00 -5.470761513E+00  8.675980707E+01  8.743154843E+01  4.046097457E-06  0.00000E+00  9.000E+00
#rwgt            1           1   9.7262123098393147E-002           4      304639           0
</event>
<event>
      5   9999  3.19816E-02  8.45908E+01 -1.00000E+00  1.27187E-01
      21    -1     0     0   502   501  0.000000000E+00  0.000000000E+00  1.072496159E+03  1.072496159E+03  0.000000000E+00  0.00000E+00  9.000E+00
      21    -1     0     0   511   502  0.000000000E+00  0.000000000E+00 -8.980212434E+01  8.980212434E+01  0.000000000E+00  0.00000E+00  9.000E+00
      25     1     1     2     0     0 -9.771316314E+01 -7.891776457E+01  8.955758739E+01  1.985483248E+02  1.250000000E+02  0.00000E+00  9.000E+00
      25     1     1     2     0     0  3.514350829E+01  1.358444458E+02  8.465956744E+02  8.672012543E+02  1.250000000E+02  0.00000E+00  9.000E+00
      21     1     1     2   511   501  6.256965485E+01 -5.692668123E+01  4.654077288E+01  9.654870421E+01  1.348699152E-06  0.00000E+00  9.000E+00
#rwgt            1           1   3.6569894580806631E-002           4      304823           0
</event>
<event>
      5   9999  3.19816E-02  6.61490E+01 -1.00000E+00  1.32477E-01
      21    -1     0     0   512   501  0.000000000E+00  0.000000000E+00  2.351458518E+03  2.351458518E+03  0.000000000E+00  0.00000E+00  9.000E+00
      21    -1     0     0   501   502  0.000000000E+00  0.000000000E+00 -2.603263638E+02  2.603263638E+02  0.000000000E+00  0.00000E+00  9.000E+00
      25     1     1     2     0     0 -1.337282773E+02 -2.189167502E+02 -1.652842723E+02  3.297752058E+02  1.250000000E+02  0.00000E+00  9.000E+00
      25     1     1     2     0     0  6.817146632E+01  2.277480777E+02  1.613936782E+03  1.636133696E+03  1.250000000E+02  0.00000E+00  9.000E+00
      21     1     1     2   512   502  6.555681102E+01 -8.831327528E+00  6.424796451E+02  6.458759805E+02  7.629394531E-06  0.00000E+00  9.000E+00
#rwgt            1           1   2.6601363070704934E-002           4      304923           0
</event>
<event>
      5   9999  3.19816E-02  5.75226E+01 -1.00000E+00  1.35689E-01
      21    -1     0     0   502   501  0.000000000E+00  0.000000000E+00  2.873378934E+02  2.873378934E+02  0.000000000E+00  0.00000E+00  9.000E+00
      21    -1     0     0   511   502  0.000000000E+00  0.000000000E+00 -1.083706206E+03  1.083706206E+03  0.000000000E+00  0.00000E+00  9.000E+00
      25     1     1     2     0     0  2.781982784E+02 -2.495902137E+02 -2.045687526E+02  4.440303271E+02  1.250000000E+02  0.00000E+00  9.000E+00
      25     1     1     2     0     0 -3.268165239E+02  2.188473902E+02 -9.061516845E+01  4.225391452E+02  1.250000000E+02  0.00000E+00  9.000E+00
      21     1     1     2   511   501  4.861824547E+01  3.074282355E+01 -5.011843920E+02  5.044746274E+02  5.394796609E-06  0.00000E+00  9.000E+00
#rwgt            1           1   3.1658231902365178E-002           4      305127           0
</event>
<event>
      5   9999  3.19816E-02  4.82865E+01 -1.00000E+00  1.39945E-01
      21    -1     0     0   502   512  0.000000000E+00  0.000000000E+00  3.647567792E+02  3.647567792E+02  0.000000000E+00  0.00000E+00  9.000E+00
      21    -1     0     0   501   502  0.000000000E+00  0.000000000E+00 -1.567536729E+02  1.567536729E+02  0.000000000E+00  0.00000E+00  9.000E+00
      25     1     1     2     0     0 -1.739811107E+02 -2.545460256E+01  8.644980685E+00  2.159099335E+02  1.250000000E+02  0.00000E+00  9.000E+00
      25     1     1     2     0     0  1.271562138E+02  3.724498514E+01  1.444392139E+02  2.324727471E+02  1.250000000E+02  0.00000E+00  9.000E+00
      21     1     1     2   501   512  4.682489690E+01 -1.179038258E+01  5.491891171E+01  7.312777143E+01  9.536743164E-07  0.00000E+00  9.000E+00
#rwgt            1           1   2.4463230600613273E-002           4      305281           0
</event>
<event>
      5   9999  3.19816E-02  1.65968E+02 -1.00000E+00  1.14679E-01
      21    -1     0     0   502   501  0.000000000E+00  0.000000000E+00  1.573128059E+03  1.573128059E+03  0.000000000E+00  0.00000E+00  9.000E+00
      21    -1     0     0   511   502  0.000000000E+00  0.000000000E+00 -5.482931435E+02  5.482931435E+02  0.000000000E+00  0.00000E+00  9.000E+00
      25     1     1     2     0     0  3.314621032E+02 -1.040997762E+02 -3.357715670E+02  4.990705706E+02  1.250000000E+02  0.00000E+00  9.000E+00
      25     1     1     2     0     0 -4.752256596E+02  1.870302677E+02  1.358142824E+03  1.456364198E+03  1.250000000E+02  0.00000E+00  9.000E+00
      21     1     1     2   511   501  1.437635564E+02 -8.293049142E+01  2.463658872E+00  1.659864337E+02  3.819118486E-06  0.00000E+00  9.000E+00
#rwgt            2          11   8.3398895487625663E-003           4      305422           0
</event>
<event>
      5   9999  3.19816E-02  1.63145E+01 -1.00000E+00  1.74014E-01
      21    -1     0     0   502   501  0.000000000E+00  0.000000000E+00  9.473241108E+01  9.473241108E+01  0.000000000E+00  0.00000E+00  9.000E+00
      21    -1     0     0   501   512  0.000000000E+00  0.000000000E+00 -9.040697944E+02  9.040697944E+02  0.000000000E+00  0.00000E+00  9.000E+00
      25     1     1     2     0     0  2.546743965E+01  1.798510352E+02 -3.026892206E+02  3.744873157E+02  1.250000000E+02  0.00000E+00  9.000E+00
      25     1     1     2     0     0 -9.334250275E+00 -1.774252056E+02 -1.425055072E+02  2.598069502E+02  1.250000000E+02  0.00000E+00  9.000E+00
      21     1     1     2   502   512 -1.613318937E+01 -2.425829640E+00 -3.641426555E+02  3.645079395E+02  7.629394531E-06  0.00000E+00  9.000E+00
#rwgt            1           1   2.9439415283836919E-002           4      305442           0
</event>
<event>
      5   9999  3.19816E-02  9.14560E+00 -1.00000E+00  2.00350E-01
      21    -1     0     0   511   501  0.000000000E+00  0.000000000E+00  2.173465064E+03  2.173465064E+03  0.000000000E+00  0.00000E+00  9.000E+00
      21    -1     0     0   501   502  0.000000000E+00  0.000000000E+00 -1.741435441E+02  1.741435441E+02  0.000000000E+00  0.00000E+00  9.000E+00
      25     1     1     2     0     0 -4.577062184E+01  2.235102347E+02 -4.677986309E+01  2.643201287E+02  1.250000000E+02  0.00000E+00  9.000E+00
      25     1     1     2     0     0  4.170237234E+01 -2.153193003E+02  8.390588708E+02  8.762113201E+02  1.250000000E+02  0.00000E+00  9.000E+00
      21     1     1     2   511   502  4.068249501E+00 -8.190934439E+00  1.207042512E+03  1.207077159E+03  2.642899792E-05  0.00000E+00  9.000E+00
#rwgt            1           1   2.5281287355101142E-002           4      305600           0
</event>
<event>
      5   9999  3.19816E-02  3.62665E+01 -1.00000E+00  1.47530E-01
      21    -1     0     0   502   512  0.000000000E+00  0.000000000E+00  8.087186932E+02  8.087186932E+02  0.000000000E+00  0.00000E+00  9.000E+00
      21    -1     0     0   501   502  0.000000000E+00  0.000000000E+00 -2.026247244E+02  2.026247244E+02  0.000000000E+00  0.00000E+00  9.000E+00
      25     1     1     2     0     0 -8.161556769E+01 -3.111208218E+02  3.957688214E+02  5.250859231E+02  1.250000000E+02  0.00000E+00  9.000E+00
      25     1     1     2     0     0  1.050220589E+02  3.388227435E+02  1.296828538E+02  3.978355526E+02  1.250000000E+02  0.00000E+00  9.000E+00
      21     1     1     2   501   512 -2.340649119E+01 -2.770192171E+01  8.064229360E+01  8.842194192E+01  0.000000000E+00  0.00000E+00  9.000E+00
#rwgt            1           1   3.0672883276261609E-002           4      305845           0
</event>
<event>
      5   9999  3.19816E-02  4.36952E+01 -1.00000E+00  1.42500E-01
      21    -1     0     0   502   501  0.000000000E+00  0.000000000E+00  5.361582297E+02  5.361582297E+02  0.000000000E+00  0.00000E+00  9.000E+00
      21    -1     0     0   501   511  0.000000000E+00  0.000000000E+00 -5.047971997E+02  5.047971997E+02  0.000000000E+00  0.00000E+00  9.000E+00
      25     1     1     2     0     0 -3.631914602E+02  3.004520884E+02  6.087637645E+01  4.914371042E+02  1.250000000E+02  0.00000E+00  9.000E+00
      25     1     1     2     0     0  4.013643346E+02 -2.791893850E+02 -2.155263758E+01  5.051035121E+02  1.250000000E+02  0.00000E+00  9.000E+00
      21     1     1     2   502   511 -3.817287438E+01 -2.126270339E+01 -7.962708839E+00  4.441481313E+01  6.848052319E-07  0.00000E+00  9.000E+00
#rwgt            1           1   2.9106966484800063E-002           4      305947           0
</event>
<event>
      5   9999  3.19816E-02  1.27666E+01 -1.00000E+00  1.84244E-01
      21    -1     0     0   502   501  0.000000000E+00  0.000000000E+00  2.112427443E+03  2.112427443E+03  0.000000000E+00  0.00000E+00  9.000E+00
      21    -1     0     0   512   502  0.000000000E+00  0.000000000E+00 -1.124163241E+02  1.124163241E+02  0.000000000E+00  0.00000E+00  9.000E+00
      25     1     1     2     0     0  3.670513217E+02  2.797265292E+02  8.623735050E+02  9.860459756E+02  1.250000000E+02  0.00000E+00  9.000E+00
      25     1     1     2     0     0 -3.570278011E+02 -2.718198916E+02  1.133331524E+03  1.225324547E+03  1.250000000E+02  0.00000E+00  9.000E+00
      21     1     1     2   512   501 -1.002352062E+01 -7.906637582E+00  4.306089886E+00  1.347324362E+01  2.384185791E-07  0.00000E+00  9.000E+00
#rwgt            1           1   3.2528533720658573E-002           4      306077           0
</event>
<event>
      5   9999  3.19816E-02  4.55251E+01 -1.00000E+00  1.41439E-01
      21    -1     0     0   502   501  0.000000000E+00  0.000000000E+00  2.375799054E+02  2.375799054E+02  0.000000000E+00  0.00000E+00  9.000E+00
      21    -1     0     0   501   511  0.000000000E+00  0.000000000E+00 -2.104297678E+03  2.104297678E+03  0.000000000E+00  0.00000E+00  9.000E+00
      25     1     1     2     0     0 -4.967466638E+02 -1.240431312E+02 -4.860691750E+02  7.169603819E+02  1.250000000E+02  0.00000E+00  9.000E+00
      25     1     1     2     0     0  5.410283994E+02  1.346101142E+02 -5.501503494E+02  7.931721243E+02  1.250000000E+02  0.00000E+00  9.000E+00
      21     1     1     2   502   511 -4.428173557E+01 -1.056698302E+01 -8.304982480E+02  8.317450770E+02  1.525878906E-05  0.00000E+00  9.000E+00
#rwgt            1           1   2.8759925543974909E-002           4      306313           0
</event>
<event>
      5   9999  3.19816E-02  5.55171E+01 -1.00000E+00  1.36531E-01
      21    -1     0     0   502   501  0.000000000E+00  0.000000000E+00  7.965314689E+02  7.965314689E+02  0.000000000E+00  0.00000E+00  9.000E+00
      21    -1     0     0   512   502  0.000000000E+00  0.000000000E+00 -9.653288953E+02  9.653288953E+02  0.000000000E+00  0.00000E+00  9.000E+00
      25     1     1     2     0     0  2.888992304E+02 -7.773452699E+02 -2.183791176E+02  8.666272977E+02  1.250000000E+02  0.00000E+00  9.000E+00
      25     1     1     2     0     0 -3.318042088E+02  7.421130711E+02  8.882141335E+01  8.272485036E+02  1.250000000E+02  0.00000E+00  9.000E+00
      21     1     1     2   512   501  4.290497842E+01  3.523219890E+01 -3.923972205E+01  6.798456294E+01  1.261592536E-06  0.00000E+00  9.000E+00
#rwgt            1           1   2.8439927063864577E-002           4      306415           0
</event>
<event>
      5   9999  3.19816E-02  7.44651E+01 -1.00000E+00  1.29875E-01
      21    -1     0     0   511   501  0.000000000E+00  0.000000000E+00  4.710198932E+02  4.710198932E+02  0.000000000E+00  0.00000E+00  9.000E+00
      21    -1     0     0   501   502  0.000000000E+00  0.000000000E+00 -6.846591272E+02  6.846591272E+02  0.000000000E+00  0.00000E+00  9.000E+00
      25     1     1     2     0     0  2.952383410E+01  1.228530031E+02  1.760489706E+02  2.501654596E+02  1.250000000E+02  0.00000E+00  9.000E+00
      25     1     1     2     0     0 -1.022184198E+02 -1.067112779E+02 -6.273138931E+02  6.564934292E+02  1.250000000E+02  0.00000E+00  9.000E+00
      21     1     1     2   511   502  7.269458570E+01 -1.614172517E+01  2.376256886E+02  2.490201316E+02  0.000000000E+00  0.00000E+00  9.000E+00
#rwgt            1           1   2.2219206791804703E-002           4      306553           0
</event>
<event>
      5   9999  3.19816E-02  3.34366E+01 -1.00000E+00  1.49839E-01
       1    -1     0     0   502     0  0.000000000E+00  0.000000000E+00  1.033081942E+03  1.033081942E+03  0.000000000E+00  0.00000E+00  9.000E+00
      21    -1     0     0   501   502  0.000000000E+00  0.000000000E+00 -4.644344425E+02  4.644344425E+02  0.000000000E+00  0.00000E+00  9.000E+00
      25     1     1     2     0     0 -2.308364241E+02  2.489287959E+02 -2.921682537E+02  4.650142886E+02  1.250000000E+02  0.00000E+00  9.000E+00
      25     1     1     2     0     0  2.625219572E+02 -2.382500130E+02  3.287361072E+02  4.993728816E+02  1.250000000E+02  0.00000E+00  9.000E+00
       1     1     1     2   501     0 -3.168553305E+01 -1.067878295E+01  5.320796461E+02  5.331292144E+02  0.000000000E+00  0.00000E+00  9.000E+00
#rwgt            1           1   2.7537169169587358E-002           4      306635           0
</event>
<event>
      5   9999  3.19816E-02  3.56561E+01 -1.00000E+00  1.48006E-01
      21    -1     0     0   511   501  0.000000000E+00  0.000000000E+00  9.347249833E+02  9.347249833E+02  0.000000000E+00  0.00000E+00  9.000E+00
      21    -1     0     0   501   502  0.000000000E+00  0.000000000E+00 -7.537192898E+02  7.537192898E+02  0.000000000E+00  0.00000E+00  9.000E+00
      25     1     1     2     0     0  2.440020384E+02 -7.393616292E+02  1.080506112E+02  7.959224510E+02  1.250000000E+02  0.00000E+00  9.000E+00
      25     1     1     2     0     0 -2.397930512E+02  7.747684693E+02  1.057777930E+01  8.206727592E+02  1.250000000E+02  0.00000E+00  9.000E+00
      21     1     1     2   511   502 -4.208987247E+00 -3.540684009E+01  6.237730301E+01  7.184906283E+01  6.743495762E-07  0.00000E+00  9.000E+00
#rwgt            1           1   3.2074536350356293E-002           4      306786           0
</event>
<event>
      5   9999  3.19816E-02  8.48038E+01 -1.00000E+00  1.27136E-01
       2    -1     0     0   502     0  0.000000000E+00  0.000000000E+00  1.051042659E+03  1.051042659E+03  0.000000000E+00  0.00000E+00  9.000E+00
      21    -1     0     0   501   502  0.000000000E+00  0.000000000E+00 -3.495110775E+02  3.495110775E+02  0.000000000E+00  0.00000E+00  9.000E+00
      25     1     1     2     0     0  1.063878369E+02  2.933626903E+01  5.916075066E+02  6.146571649E+02  1.250000000E+02  0.00000E+00  9.000E+00
      25     1     1     2     0     0 -3.386917069E+01 -7.329912569E+01 -3.172333315E+02  3.504024389E+02  1.250000000E+02  0.00000E+00  9.000E+00
       2     1     1     2   501     0 -7.251866617E+01  4.396285666E+01  4.271574065E+02  4.354941327E+02  0.000000000E+00  0.00000E+00  9.000E+00
#rwgt            1           1   2.5300123417112345E-002           4      306979           0
</event>
<event>
      5   9999  3.19816E-02  1.64628E+01 -1.00000E+00  1.73659E-01
      21    -1     0     0   502   511  0.000000000E+00  0.000000000E+00  3.326405632E+02  3.326405632E+02  0.000000000E+00  0.00000E+00  9.000E+00
      21    -1     0     0   501   502  0.000000000E+00  0.000000000E+00 -2.053714603E+02  2.053714603E+02  0.000000000E+00  0.00000E+00  9.000E+00
      25     1     1     2     0     0 -1.028502194E+02 -4.248003445E+01 -1.097590377E+02  2.001368714E+02  1.250000000E+02  0.00000E+00  9.000E+00
      25     1     1     2     0     0  1.180230053E+02  4.886823609E+01  1.101679175E+02  2.099511951E+02  1.250000000E+02  0.00000E+00  9.000E+00
      21     1     1     2   501   511 -1.517278585E+01 -6.388201639E+00  1.268602231E+02  1.279239570E+02  1.348699152E-06  0.00000E+00  9.000E+00
#rwgt            1           1   2.6729105081804972E-002           4      307028           0
</event>
<event>
      5   9999  3.19816E-02  4.99999E+01 -1.00000E+00  1.39076E-01
      21    -1     0     0   512   501  0.000000000E+00  0.000000000E+00  1.472950243E+02  1.472950243E+02  0.000000000E+00  0.00000E+00  9.000E+00
      21    -1     0     0   501   502  0.000000000E+00  0.000000000E+00 -1.187563364E+03  1.187563364E+03  0.000000000E+00  0.00000E+00  9.000E+00
      25     1     1     2     0     0 -1.146680582E+02  1.919748242E+02 -7.244435825E+02  7.684052322E+02  1.250000000E+02  0.00000E+00  9.000E+00
      25     1     1     2     0     0  1.568974510E+02 -2.187454704E+02 -3.818494962E+02  4.836325348E+02  1.250000000E+02  0.00000E+00  9.000E+00
      21     1     1     2   512   502 -4.222939282E+01  2.677064626E+01  6.602473910E+01  8.282062117E+01  1.651812370E-06  0.00000E+00  9.000E+00
#rwgt            1           1   2.8935204943777441E-002           4      307205           0
</event>
<event>
      5   9999  3.19816E-02  8.99910E+01 -1.00000E+00  1.25924E-01
      21    -1     0     0   502   501  0.000000000E+00  0.000000000E+00  4.184651427E+02  4.184651427E+02  0.000000000E+00  0.00000E+00  9.000E+00
      21    -1     0     0   501   511  0.000000000E+00  0.000000000E+00 -2.168729156E+03  2.168729156E+03  0.000000000E+00  0.00000E+00  9.000E+00
      25     1     1     2     0     0 -6.561309656E+02  3.212070926E+02 -1.413291164E+02  7.545069645E+02  1.250000000E+02  0.00000E+00  9.000E+00
      25     1     1     2     0     0  7.294821662E+02 -2.690727798E+02 -1.438721314E+03  1.640148899E+03  1.250000000E+02  0.00000E+00  9.000E+00
      21     1     1     2   502   511 -7.335120066E+01 -5.213431273E+01 -1.702135825E+02  1.925384348E+02  1.907348633E-06  0.00000E+00  9.000E+00
#rwgt            1           1   3.2908018175922184E-002           4      307324           0
</event>
<event>
      5   9999  3.19816E-02  1.02428E+02 -1.00000E+00  1.23361E-01
      21    -1     0     0   512   501  0.000000000E+00  0.000000000E+00  1.861837273E+02  1.861837273E+02  0.000000000E+00  0.00000E+00  9.000E+00
      21    -1     0     0   501   502  0.000000000E+00  0.000000000E+00 -5.287337983E+02  5.287337983E+02  0.000000000E+00  0.00000E+00  9.000E+00
      25     1     1     2     0     0 -1.692588905E+02 -1.664739648E+01  2.123021443E+01  2.121354045E+02  1.250000000E+02  0.00000E+00  9.000E+00
      25     1     1     2     0     0  8.673398452E+01  7.731963839E+01 -3.621420688E+02  4.003410903E+02  1.250000000E+02  0.00000E+00  9.000E+00
      21     1     1     2   512   502  8.252490599E+01 -6.067224190E+01 -1.638216668E+00  1.024410308E+02  2.469190305E-06  0.00000E+00  9.000E+00
#rwgt            1           1   2.6902890155821958E-002           4      307564           0
</event>
<event>
      5   9999  3.19816E-02  1.08609E+02 -1.00000E+00  1.22236E-01
      21    -1     0     0   511   501  0.000000000E+00  0.000000000E+00  2.641540748E+02  2.641540748E+02  0.000000000E+00  0.00000E+00  9.000E+00
      21    -1     0     0   501   502  0.000000000E+00  0.000000000E+00 -5.142068696E+02  5.142068696E+02  0.000000000E+00  0.00000E+00  9.000E+00
      25     1     1     2     0     0 -1.744267887E+02 -2.222082125E+02 -2.312093228E+02  3.858548241E+02  1.250000000E+02  0.00000E+00  9.000E+00
      25     1     1     2     0     0  6.820712378E+01  1.995543391E+02 -9.168224002E+01  2.617341764E+02  1.250000000E+02  0.00000E+00  9.000E+00
      21     1     1     2   511   502  1.062196650E+02  2.265387344E+01  7.283876793E+01  1.307719439E+02  1.651812370E-06  0.00000E+00  9.000E+00
#rwgt            1           1   2.7679650283764963E-002           4      307670           0
</event>
<event>
      5   9999  3.19816E-02  6.97943E+01 -1.00000E+00  1.31285E-01
      21    -1     0     0   502   501  0.000000000E+00  0.000000000E+00  3.933787204E+02  3.933787204E+02  0.000000000E+00  0.00000E+00  9.000E+00
      21    -1     0     0   512   502  0.000000000E+00  0.000000000E+00 -2.202487235E+03  2.202487235E+03  0.000000000E+00  0.00000E+00  9.000E+00
      25     1     1     2     0     0 -5.609208986E+02 -2.713189905E+02 -1.574331682E+03  1.697760729E+03  1.250000000E+02  0.00000E+00  9.000E+00
      25     1     1     2     0     0  5.994936366E+02  3.294859366E+02 -4.609010114E+01  6.969238841E+02  1.250000000E+02  0.00000E+00  9.000E+00
      21     1     1     2   512   501 -3.857273802E+01 -5.816694610E+01 -1.886867314E+02  2.011813420E+02  0.000000000E+00  0.00000E+00  9.000E+00
#rwgt            1           1   3.7992908785042079E-002           4      307718           0
</event>
<event>
      5   9999  3.19816E-02  2.47024E+01 -1.00000E+00  1.59141E-01
      21    -1     0     0   502   501  0.000000000E+00  0.000000000E+00  3.303556513E+02  3.303556513E+02  0.000000000E+00  0.00000E+00  9.000E+00
      21    -1     0     0   511   502  0.000000000E+00  0.000000000E+00 -3.895923980E+02  3.895923980E+02  0.000000000E+00  0.00000E+00  9.000E+00
      25     1     1     2     0     0  2.339139653E+02 -1.990861620E+02 -7.422471841E+01  3.398313580E+02  1.250000000E+02  0.00000E+00  9.000E+00
      25     1     1     2     0     0 -2.430872094E+02  2.220221709E+02  2.591978028E+01  3.531034844E+02  1.250000000E+02  0.00000E+00  9.000E+00
      21     1     1     2   511   501  9.173244068E+00 -2.293600883E+01 -1.093180854E+01  2.701320687E+01  6.078504936E-07  0.00000E+00  9.000E+00
#rwgt            1           1   2.8763420258681453E-002           4      307806           0
</event>
<event>
      5   9999  3.19816E-02  1.45878E+02 -1.00000E+00  1.16875E-01
       2    -1     0     0   502     0  0.000000000E+00  0.000000000E+00  1.510168583E+03  1.510168583E+03  0.000000000E+00  0.00000E+00  9.000E+00
      21    -1     0     0   501   502  0.000000000E+00  0.000000000E+00 -3.117513439E+02  3.117513439E+02  0.000000000E+00  0.00000E+00  9.000E+00
      25     1     1     2     0     0  7.827136467E+01 -4.564765680E+01  3.126694375E+02  3.487080330E+02  1.250000000E+02  0.00000E+00  9.000E+00
      25     1     1     2     0     0 -1.802893591E+02  1.499201475E+02 -2.278926392E+02  3.500576504E+02  1.250000000E+02  0.00000E+00  9.000E+00
       2     1     1     2   501     0  1.020179944E+02 -1.042724907E+02  1.113640441E+03  1.123154244E+03  1.525878906E-05  0.00000E+00  9.000E+00
#rwgt            1           1   2.6497902261196995E-002           4      307972           0
</event>
<event>
      5   9999  3.19816E-02  2.22145E+02 -1.00000E+00  1.10013E-01
      21    -1     0     0   511   501  0.000000000E+00  0.000000000E+00  5.788465698E+02  5.788465698E+02  0.000000000E+00  0.00000E+00  9.000E+00
      21    -1     0     0   501   502  0.000000000E+00  0.000000000E+00 -5.616711825E+02  5.616711825E+02  0.000000000E+00  0.00000E+00  9.000E+00
      25     1     1     2     0     0  2.569945172E+02 -8.664751873E+01 -2.390764492E+02  3.825395704E+02  1.250000000E+02  0.00000E+00  9.000E+00
      25     1     1     2     0     0 -4.631794358E+02  3.965220465E+00  1.106266097E+02  4.923557245E+02  1.250000000E+02  0.00000E+00  9.000E+00
      21     1     1     2   511   502  2.061849186E+02  8.268229826E+01  1.456252269E+02  2.656224573E+02  1.907348633E-06  0.00000E+00  9.000E+00
#rwgt            2          11   3.6767889173289913E-003           4      308040           0
</event>
<event>
      5   9999  3.19816E-02  1.12182E+01 -1.00000E+00  1.90158E-01
       2    -1     0     0   502     0  0.000000000E+00  0.000000000E+00  1.447232419E+03  1.447232419E+03  0.000000000E+00  0.00000E+00  9.000E+00
      21    -1     0     0   501   502  0.000000000E+00  0.000000000E+00 -1.093196868E+02  1.093196868E+02  0.000000000E+00  0.00000E+00  9.000E+00
      25     1     1     2     0     0  1.449662290E+02  2.284635893E+02  1.746843294E+02  3.454713217E+02  1.250000000E+02  0.00000E+00  9.000E+00
      25     1     1     2     0     0 -1.544710453E+02 -2.344222277E+02  9.697693537E+02  1.017296753E+03  1.250000000E+02  0.00000E+00  9.000E+00
       2     1     1     2   501     0  9.504816288E+00  5.958638353E+00  1.934590493E+02  1.937840310E+02  3.814697266E-06  0.00000E+00  9.000E+00
#rwgt            1           1   2.8339179698507150E-002           4      308060           0
</event>
<event>
      5   9999  3.19816E-02  9.15970E+00 -1.00000E+00  2.00269E-01
      21    -1     0     0   502   501  0.000000000E+00  0.000000000E+00  1.502760261E+02  1.502760261E+02  0.000000000E+00  0.00000E+00  9.000E+00
      21    -1     0     0   511   502  0.000000000E+00  0.000000000E+00 -7.425387767E+02  7.425387767E+02  0.000000000E+00  0.00000E+00  9.000E+00
      25     1     1     2     0     0 -2.600898845E+02 -1.461564863E+02 -3.047737418E+02  4.444327848E+02  1.250000000E+02  0.00000E+00  9.000E+00
      25     1     1     2     0     0  2.681153573E+02  1.505714468E+02 -2.671965646E+02  4.261180700E+02  1.250000000E+02  0.00000E+00  9.000E+00
      21     1     1     2   511   501 -8.025472801E+00 -4.414960523E+00 -2.029244414E+01  2.226394797E+01  3.371747881E-07  0.00000E+00  9.000E+00
#rwgt            1           1   2.7374267666162674E-002           4      308314           0
</event>
<event>
      5   9999  3.19816E-02  4.26115E+01 -1.00000E+00  1.43157E-01
      21    -1     0     0   512   501  0.000000000E+00  0.000000000E+00  3.694235497E+02  3.694235497E+02  0.000000000E+00  0.00000E+00  9.000E+00
      21    -1     0     0   501   502  0.000000000E+00  0.000000000E+00 -6.125385093E+02  6.125385093E+02  0.000000000E+00  0.00000E+00  9.000E+00
      25     1     1     2     0     0  7.101793129E+01 -2.380011399E+01  3.251837325E+01  1.493065189E+02  1.250000000E+02  0.00000E+00  9.000E+00
      25     1     1     2     0     0 -4.682065040E+01  5.887474913E+01 -5.428249274E+02  5.620874587E+02  1.250000000E+02  0.00000E+00  9.000E+00
      21     1     1     2   512   502 -2.419728089E+01 -3.507463514E+01  2.671915946E+02  2.705680814E+02  3.814697266E-06  0.00000E+00  9.000E+00
#rwgt            1           1   3.0598036276199465E-002           4      308485           0
</event>
<event>
      5   9999  3.19816E-02  4.09792E+01 -1.00000E+00  1.44192E-01
      21    -1     0     0   511   501  0.000000000E+00  0.000000000E+00  6.486277313E+02  6.486277313E+02  0.000000000E+00  0.00000E+00  9.000E+00
      21    -1     0     0   501   502  0.000000000E+00  0.000000000E+00 -6.640810277E+02  6.640810277E+02  0.000000000E+00  0.00000E+00  9.000E+00
      25     1     1     2     0     0 -3.445229255E+02  1.485850325E+02 -4.674694758E+01  3.982258595E+02  1.250000000E+02  0.00000E+00  9.000E+00
      25     1     1     2     0     0  3.035443056E+02 -1.488046740E+02 -3.668230525E+02  5.142627036E+02  1.250000000E+02  0.00000E+00  9.000E+00
      21     1     1     2   511   502  4.097861992E+01  2.196415354E-01  3.981167036E+02  4.002201959E+02  5.394796609E-06  0.00000E+00  9.000E+00
#rwgt            1           1   2.7505355625089521E-002           4      308597           0
</event>
<event>
      5   9999  3.19816E-02  1.07568E+02 -1.00000E+00  1.22419E-01
      21    -1     0     0   502   501  0.000000000E+00  0.000000000E+00  6.320166500E+02  6.320166500E+02  0.000000000E+00  0.00000E+00  9.000E+00
      21    -1     0     0   512   502  0.000000000E+00  0.000000000E+00 -1.175490858E+03  1.175490858E+03  0.000000000E+00  0.00000E+00  9.000E+00
      25     1     1     2     0     0 -1.340710244E+02 -7.079892895E+02 -2.248411617E+01  7.316791709E+02  1.250000000E+02  0.00000E+00  9.000E+00
      25     1     1     2     0     0  2.412641562E+02  6.990141108E+02 -2.603679660E+02  7.938800904E+02  1.250000000E+02  0.00000E+00  9.000E+00
      21     1     1     2   512   501 -1.071931318E+02  8.975178695E+00 -2.606221262E+02  2.819482470E+02  5.394796609E-06  0.00000E+00  9.000E+00
#rwgt            1           1   2.7812823436145887E-002           4      308744           0
</event>
<event>
      5   9999  3.19816E-02  1.87838E+01 -1.00000E+00  1.68649E-01
      21    -1     0     0   502   501  0.000000000E+00  0.000000000E+00  9.064921039E+02  9.064921039E+02  0.000000000E+00  0.00000E+00  9.000E+00
      21    -1     0     0   501   511  0.000000000E+00  0.000000000E+00 -4.412772148E+01  4.412772148E+01  0.000000000E+00  0.00000E+00  9.000E+00
      25     1     1     2     0     0 -7.076107081E+01  8.674329728E+00  7.211558041E+02  7.353727401E+02  1.250000000E+02  0.00000E+00  9.000E+00
      25     1     1     2     0     0  6.470467252E+01 -2.645500049E+01  1.193765247E+02  1.864465509E+02  1.250000000E+02  0.00000E+00  9.000E+00
      21     1     1     2   502   511  6.056398288E+00  1.778067076E+01  2.183205361E+01  2.880053433E+01  2.384185791E-07  0.00000E+00  9.000E+00
#rwgt            1           1   2.4901544542947688E-002           4      308808           0
</event>
<event>
      5   9999  3.19816E-02  2.61318E+02 -1.00000E+00  1.07577E-01
      21    -1     0     0   502   512  0.000000000E+00  0.000000000E+00  5.602835062E+02  5.602835062E+02  0.000000000E+00  0.00000E+00  9.000E+00
      21    -1     0     0   501   502  0.000000000E+00  0.000000000E+00 -5.311984631E+02  5.311984631E+02  0.000000000E+00  0.00000E+00  9.000E+00
      25     1     1     2     0     0 -1.716578294E+02  3.541599910E+02 -2.679787358E+02  4.922736155E+02  1.250000000E+02  0.00000E+00  9.000E+00
      25     1     1     2     0     0  2.010556137E+02 -9.450134943E+01  1.845267782E+02  3.146887299E+02  1.250000000E+02  0.00000E+00  9.000E+00
      21     1     1     2   501   512 -2.939778421E+01 -2.596586416E+02  1.125370007E+02  2.845196240E+02  5.560829062E-06  0.00000E+00  9.000E+00
#rwgt            2          11   3.5364222953426306E-003           4      309014           0
</event>
<event>
      5   9999  3.19816E-02  4.67063E+01 -1.00000E+00  1.40785E-01
      21    -1     0     0   502   501  0.000000000E+00  0.000000000E+00  5.904424211E+02  5.904424211E+02  0.000000000E+00  0.00000E+00  9.000E+00
      -1    -1     0     0     0   502  0.000000000E+00  0.000000000E+00 -4.699065306E+02  4.699065306E+02  0.000000000E+00  0.00000E+00  9.000E+00
      25     1     1     2     0     0 -8.303791279E-01 -3.437541426E+02 -1.735556295E+02  4.048631332E+02  1.250000000E+02  0.00000E+00  9.000E+00
      25     1     1     2     0     0  2.599192974E+01  3.044048036E+02  4.124306398E+02  5.282630950E+02  1.250000000E+02  0.00000E+00  9.000E+00
      -1     1     1     2     0   501 -2.516155062E+01  3.934933904E+01 -1.183391198E+02  1.272227235E+02  0.000000000E+00  0.00000E+00  9.000E+00
#rwgt            1           1   3.0120392728416337E-002           4      309049           0
</event>
<event>
      5   9999  3.19816E-02  7.56551E+01 -1.00000E+00  1.29534E-01
      21    -1     0     0   511   501  0.000000000E+00  0.000000000E+00  1.641567425E+03  1.641567425E+03  0.000000000E+00  0.00000E+00  9.000E+00
      21    -1     0     0   501   502  0.000000000E+00  0.000000000E+00 -4.486098802E+01  4.486098802E+01  0.000000000E+00  0.00000E+00  9.000E+00
      25     1     1     2     0     0  1.562300283E+02 -4.824441217E+01  4.611452277E+02  5.049903624E+02  1.250000000E+02  0.00000E+00  9.000E+00
      25     1     1     2     0     0 -1.014738809E+02  1.004503022E+02  4.082233676E+02  4.501761095E+02  1.250000000E+02  0.00000E+00  9.000E+00
      21     1     1     2   511   502 -5.475614738E+01 -5.220589001E+01  7.273378414E+02  7.312619408E+02  0.000000000E+00  0.00000E+00  9.000E+00
#rwgt            1           1   3.7359610725999193E-002           4      309207           0
</event>
<event>
      5   9999  3.19816E-02  1.60125E+02 -1.00000E+00  1.15280E-01
      21    -1     0     0   502   501  0.000000000E+00  0.000000000E+00  2.588609840E+02  2.588609840E+02  0.000000000E+00  0.00000E+00  9.000E+00
      21    -1     0     0   501   512  0.000000000E+00  0.000000000E+00 -1.951779555E+03  1.951779555E+03  0.000000000E+00  0.00000E+00  9.000E+00
      25     1     1     2     0     0  7.813182281E+01  5.293621076E+02 -5.720405646E+02  7.932113403E+02  1.250000000E+02  0.00000E+00  9.000E+00
      25     1     1     2     0     0 -5.304617879E+01 -3.712147860E+02 -1.335827842E+02  4.172333576E+02  1.250000000E+02  0.00000E+00  9.000E+00
      21     1     1     2   502   512 -2.508564401E+01 -1.581473216E+02 -9.872952222E+02  1.000195841E+03  0.000000000E+00  0.00000E+00  9.000E+00
#rwgt            2          11   1.4457465737873446E-003           4      309445           0
</event>
<event>
      5   9999  3.19816E-02  2.22096E+01 -1.00000E+00  1.62699E-01
       1    -1     0     0   502     0  0.000000000E+00  0.000000000E+00  6.380654105E+02  6.380654105E+02  0.000000000E+00  0.00000E+00  9.000E+00
      21    -1     0     0   501   502  0.000000000E+00  0.000000000E+00 -1.122509897E+03  1.122509897E+03  0.000000000E+00  0.00000E+00  9.000E+00
      25     1     1     2     0     0 -3.297325680E+01 -9.135514037E+01 -9.949640948E+02  1.007477815E+03  1.250000000E+02  0.00000E+00  9.000E+00
      25     1     1     2     0     0  1.549056521E+01  7.765754793E+01 -7.586917849E+01  1.662882576E+02  1.250000000E+02  0.00000E+00  9.000E+00
       1     1     1     2   501     0  1.748269159E+01  1.369759244E+01  5.863887871E+02  5.868092349E+02  1.078959322E-05  0.00000E+00  9.000E+00
#rwgt            1           1   2.8402197000638021E-002           4      309465           0
</event>
<event>
      5   9999  3.19816E-02  9.00669E+01 -1.00000E+00  1.25907E-01
      21    -1     0     0   502   501  0.000000000E+00  0.000000000E+00  1.935786411E+02  1.935786411E+02  0.000000000E+00  0.00000E+00  9.000E+00
      21    -1     0     0   501   511  0.000000000E+00  0.000000000E+00 -1.190686474E+03  1.190686474E+03  0.000000000E+00  0.00000E+00  9.000E+00
      25     1     1     2     0     0  4.203595586E+02  1.887776704E+01 -3.681686883E+02  5.729150998E+02  1.250000000E+02  0.00000E+00  9.000E+00
      25     1     1     2     0     0 -3.352105027E+02  1.047681332E+01 -2.900132888E+02  4.606609951E+02  1.250000000E+02  0.00000E+00  9.000E+00
      21     1     1     2   502   511 -8.514905587E+01 -2.935458036E+01 -3.389258553E+02  3.506890197E+02  5.394796609E-06  0.00000E+00  9.000E+00
#rwgt            1           1   3.1344712953412020E-002           4      309590           0
</event>
<event>
      5   9999  3.19816E-02  3.86389E+01 -1.00000E+00  1.45779E-01
      21    -1     0     0   502   512  0.000000000E+00  0.000000000E+00  3.778587050E+02  3.778587050E+02  0.000000000E+00  0.00000E+00  9.000E+00
      21    -1     0     0   501   502  0.000000000E+00  0.000000000E+00 -5.102779196E+02  5.102779196E+02  0.000000000E+00  0.00000E+00  9.000E+00
      25     1     1     2     0     0  1.821038445E+02  1.224365122E+02 -2.385103459E+01  2.536658857E+02  1.250000000E+02  0.00000E+00  9.000E+00
      25     1     1     2     0     0 -1.436069783E+02 -1.257465421E+02 -3.346936180E+02  4.050678647E+02  1.250000000E+02  0.00000E+00  9.000E+00
      21     1     1     2   501   512 -3.849686622E+01  3.310029861E+00  2.261254380E+02  2.294028743E+02  2.697398305E-06  0.00000E+00  9.000E+00
#rwgt            1           1   2.8015778704744105E-002           4      309671           0
</event>
<event>
      5   9999  3.19816E-02  3.51270E+02 -1.00000E+00  1.03412E-01
      21    -1     0     0   502   501  0.000000000E+00  0.000000000E+00  1.272897454E+03  1.272897454E+03  0.000000000E+00  0.00000E+00  9.000E+00
      21    -1     0     0   511   502  0.000000000E+00  0.000000000E+00 -1.764860081E+03  1.764860081E+03  0.000000000E+00  0.00000E+00  9.000E+00
      25     1     1     2     0     0  4.805376223E+02  6.761600858E+02 -5.562738495E+02  1.006565678E+03  1.250000000E+02  0.00000E+00  9.000E+00
      25     1     1     2     0     0 -2.918480092E+02 -9.724481114E+02  7.448065546E+02  1.265382311E+03  1.250000000E+02  0.00000E+00  9.000E+00
      21     1     1     2   511   501 -1.886896131E+02  2.962880256E+02 -6.804953316E+02  7.658095459E+02  7.629394531E-06  0.00000E+00  9.000E+00
#rwgt            2          11   2.3808550463555382E-003           4      309778           0
</event>
<event>
      5   9999  3.19816E-02  2.10421E+02 -1.00000E+00  1.10851E-01
      21    -1     0     0   502   501  0.000000000E+00  0.000000000E+00  7.277662906E+02  7.277662906E+02  0.000000000E+00  0.00000E+00  9.000E+00
       1    -1     0     0   501     0  0.000000000E+00  0.000000000E+00 -2.999933068E+03  2.999933068E+03  0.000000000E+00  0.00000E+00  9.000E+00
      25     1     1     2     0     0  4.621358960E+02  1.061258296E+01  5.670801374E+02  7.422176874E+02  1.250000000E+02  0.00000E+00  9.000E+00
      25     1     1     2     0     0 -3.212810037E+02 -1.669350492E+02 -4.673064694E+02  6.042260589E+02  1.250000000E+02  0.00000E+00  9.000E+00
       1     1     1     2   502     0 -1.408548923E+02  1.563224662E+02 -2.371940446E+03  2.381255612E+03  3.051757812E-05  0.00000E+00  9.000E+00
#rwgt            2          12   1.0057813924074259E-003           4      310053           0
</event>
<event>
      5   9999  3.19816E-02  2.26162E+01 -1.00000E+00  1.62081E-01
      21    -1     0     0   502   501  0.000000000E+00  0.000000000E+00  1.033714453E+02  1.033714453E+02  0.000000000E+00  0.00000E+00  9.000E+00
      21    -1     0     0   511   502  0.000000000E+00  0.000000000E+00 -7.868887943E+02  7.868887943E+02  0.000000000E+00  0.00000E+00  9.000E+00
      25     1     1     2     0     0  8.111115373E+01 -1.255982683E+02 -4.021827451E+02  4.469115178E+02  1.250000000E+02  0.00000E+00  9.000E+00
      25     1     1     2     0     0 -8.489464519E+01  1.478957855E+02 -5.851439246E+01  2.193836783E+02  1.250000000E+02  0.00000E+00  9.000E+00
      21     1     1     2   511   501  3.783491462E+00 -2.229751729E+01 -2.228202115E+02  2.239650436E+02  3.814697266E-06  0.00000E+00  9.000E+00
#rwgt            1           1   2.8941201288152620E-002           4      310072           0
</event>
<event>
      5   9999  3.19816E-02  2.94206E+01 -1.00000E+00  1.53630E-01
      21    -1     0     0   502   501  0.000000000E+00  0.000000000E+00  7.209005845E+02  7.209005845E+02  0.000000000E+00  0.00000E+00  9.000E+00
      21    -1     0     0   512   502  0.000000000E+00  0.000000000E+00 -2.236059003E+02  2.236059003E+02  0.000000000E+00  0.00000E+00  9.000E+00
      25     1     1     2     0     0 -1.361933542E+02  1.489536328E+02  3.930029157E+02  4.591427950E+02  1.250000000E+02  0.00000E+00  9.000E+00
      25     1     1     2     0     0  1.574156145E+02 -1.693297149E+02  2.342811679E+02  3.520864861E+02  1.250000000E+02  0.00000E+00  9.000E+00
      21     1     1     2   512   501 -2.122226025E+01  2.037608213E+01 -1.299893995E+02  1.332772037E+02  1.907348633E-06  0.00000E+00  9.000E+00
#rwgt            1           1   2.7831942879120993E-002           4      310262           0
</event>
<event>
      5   9999  3.19816E-02  1.90637E+01 -1.00000E+00  1.68106E-01
      21    -1     0     0   511   501  0.000000000E+00  0.000000000E+00  3.140622049E+02  3.140622049E+02  0.000000000E+00  0.00000E+00  9.000E+00
      21    -1     0     0   501   502  0.000000000E+00  0.000000000E+00 -2.937629666E+02  2.937629666E+02  0.000000000E+00  0.00000E+00  9.000E+00
      25     1     1     2     0     0  9.019836266E+01  1.009179728E+02  1.121229814E+02  2.156774091E+02  1.250000000E+02  0.00000E+00  9.000E+00
      25     1     1     2     0     0 -7.165981937E+01 -1.053618948E+02 -2.081878215E+02  2.742324335E+02  1.250000000E+02  0.00000E+00  9.000E+00
      21     1     1     2   511   502 -1.853854328E+01  4.443922020E+00  1.163640784E+02  1.179153288E+02  0.000000000E+00  0.00000E+00  9.000E+00
#rwgt            1           1   2.6778747420413005E-002           4      310393           0
</event>
<event>
      5   9999  3.19816E-02  4.66837E+02 -1.00000E+00  9.97062E-02
      21    -1     0     0   502   501  0.000000000E+00  0.000000000E+00  8.586353171E+02  8.586353171E+02  0.000000000E+00  0.00000E+00  9.000E+00
      21    -1     0     0   501   512  0.000000000E+00  0.000000000E+00 -2.609837632E+03  2.609837632E+03  0.000000000E+00  0.00000E+00  9.000E+00
      25     1     1     2     0     0 -3.034354369E+02 -2.190177116E+02  6.931256331E+02  7.975524846E+02  1.250000000E+02  0.00000E+00  9.000E+00
      25     1     1     2     0     0 -1.051592111E+02 -6.784839359E+00  1.822844866E+01  1.645046202E+02  1.250000000E+02  0.00000E+00  9.000E+00
      21     1     1     2   502   512  4.085946480E+02  2.258025510E+02 -2.462556396E+03  2.506415844E+03  3.051757812E-05  0.00000E+00  9.000E+00
#rwgt            1           1   2.8048987963762952E-002           4      310545           0
</event>
<event>
      5   9999  3.19816E-02  8.98897E+01 -1.00000E+00  1.25946E-01
      21    -1     0     0   511   501  0.000000000E+00  0.000000000E+00  1.315247800E+02  1.315247800E+02  0.000000000E+00  0.00000E+00  9.000E+00
      21    -1     0     0   501   502  0.000000000E+00  0.000000000E+00 -1.398151639E+03  1.398151639E+03  0.000000000E+00  0.00000E+00  9.000E+00
      25     1     1     2     0     0  2.413483011E+02 -2.797600059E+02 -6.967009026E+02  7.984558918E+02  1.250000000E+02  0.00000E+00  9.000E+00
      25     1     1     2     0     0 -2.761042088E+02  1.968613307E+02 -5.019620049E+02  6.185295240E+02  1.250000000E+02  0.00000E+00  9.000E+00
      21     1     1     2   511   502  3.475590767E+01  8.289867518E+01 -6.796395096E+01  1.126910027E+02  9.536743164E-07  0.00000E+00  9.000E+00
#rwgt            1           1   2.6534007688378904E-002           4      310633           0
</event>
<event>
      5   9999  3.19816E-02  5.01183E+00 -1.00000E+00  2.38337E-01
      21    -1     0     0   502   501  0.000000000E+00  0.000000000E+00  1.484666443E+03  1.484666443E+03  0.000000000E+00  0.00000E+00  9.000E+00
      21    -1     0     0   501   512  0.000000000E+00  0.000000000E+00 -4.387722854E+02  4.387722854E+02  0.000000000E+00  0.00000E+00  9.000E+00
      25     1     1     2     0     0 -7.737191401E+02 -1.445686098E+02  4.106289339E+02  8.965391860E+02  1.250000000E+02  0.00000E+00  9.000E+00
      25     1     1     2     0     0  7.787168841E+02  1.441930843E+02  6.321894584E+02  1.021019169E+03  1.250000000E+02  0.00000E+00  9.000E+00
      21     1     1     2   502   512 -4.997744059E+00  3.755255273E-01  3.075765621E+00  5.880374075E+00  8.429369702E-08  0.00000E+00  9.000E+00
#rwgt            1           1   2.7504940466479281E-002           4      310747           0
</event>
<event>
      5   9999  3.19816E-02  1.96144E+01 -1.00000E+00  1.67070E-01
      21    -1     0     0   502   501  0.000000000E+00  0.000000000E+00  2.841217519E+02  2.841217519E+02  0.000000000E+00  0.00000E+00  9.000E+00
       2    -1     0     0   501     0  0.000000000E+00  0.000000000E+00 -1.363357626E+03  1.363357626E+03  0.000000000E+00  0.00000E+00  9.000E+00
      25     1     1     2     0     0  1.601908041E+02 -1.301827495E+01  1.944976871E+02  2.815757793E+02  1.250000000E+02  0.00000E+00  9.000E+00
      25     1     1     2     0     0 -1.656243573E+02 -5.828500809E+00 -1.882087434E+02  2.802015886E+02  1.250000000E+02  0.00000E+00  9.000E+00
       2     1     1     2   502     0  5.433553222E+00  1.884677576E+01 -1.085524818E+03  1.085702010E+03  2.157918644E-05  0.00000E+00  9.000E+00
#rwgt            1           1   2.6304297011934704E-002           4      311202           0
</event>
<event>
      5   9999  3.19816E-02  1.44835E+01 -1.00000E+00  1.78829E-01
      21    -1     0     0   511   501  0.000000000E+00  0.000000000E+00  5.331441112E+02  5.331441112E+02  0.000000000E+00  0.00000E+00  9.000E+00
      21    -1     0     0   501   502  0.000000000E+00  0.000000000E+00 -1.298695375E+02  1.298695375E+02  0.000000000E+00  0.00000E+00  9.000E+00
      25     1     1     2     0     0  2.096400221E+02  7.195020125E+01  1.605375668E+02  3.008705380E+02  1.250000000E+02  0.00000E+00  9.000E+00
      25     1     1     2     0     0 -2.018331102E+02 -8.414951450E+01  2.163354795E+02  3.320297951E+02  1.250000000E+02  0.00000E+00  9.000E+00
      21     1     1     2   511   502 -7.806911855E+00  1.219931324E+01  2.640152750E+01  3.011331550E+01  4.768371582E-07  0.00000E+00  9.000E+00
#rwgt            1           1   2.3191115562938975E-002           4      311336           0
</event>
<event>
      5   9999  3.19816E-02  2.98960E+02 -1.00000E+00  1.05641E-01
      21    -1     0     0   502   512  0.000000000E+00  0.000000000E+00  3.655875566E+02  3.655875566E+02  0.000000000E+00  0.00000E+00  9.000E+00
      21    -1     0     0   501   502  0.000000000E+00  0.000000000E+00 -1.358963240E+03  1.358963240E+03  0.000000000E+00  0.00000E+00  9.000E+00
      25     1     1     2     0     0 -2.100049774E+02  1.562365971E+02  5.906159779E+00  2.901238486E+02  1.250000000E+02  0.00000E+00  9.000E+00
      25     1     1     2     0     0  2.156339966E+02  1.426708592E+02 -1.085848882E+03  1.123185554E+03  1.250000000E+02  0.00000E+00  9.000E+00
      21     1     1     2   501   512 -5.629019200E+00 -2.989074563E+02  8.656703849E+01  3.112413942E+02  7.387129490E-06  0.00000E+00  9.000E+00
#rwgt            1           1   2.8371884531188159E-002           4      311602           0
</event>
<event>
      5   9999  3.19816E-02  2.00368E+03  7.55638E-03  8.42876E-02
      -2    -1     0     0     0   501  0.000000000E+00  0.000000000E+00  3.661492123E+03  3.661492123E+03  0.000000000E+00  0.00000E+00  9.000E+00
       2    -1     0     0   502     0  0.000000000E+00  0.000000000E+00 -1.836203492E+03  1.836203492E+03  0.000000000E+00  0.00000E+00  9.000E+00
      25     1     1     2     0     0  1.081590762E+03 -3.790131978E+02  1.649339026E+03  2.012320503E+03  1.250000000E+02  0.00000E+00  9.000E+00
      25     1     1     2     0     0  7.071135774E+02  1.281942696E+03 -4.138201790E+01  1.469940189E+03  1.250000000E+02  0.00000E+00  9.000E+00
      21     1     1     2   502   501 -1.788704340E+03 -9.029294982E+02  2.173316228E+02  2.015434923E+03  1.595802358E-05  0.00000E+00  9.000E+00
#rwgt            3           4   1.5121975385156079E-006           4      311646           0
</event>
<event>
      5   9999  3.19816E-02  3.59310E+01 -1.00000E+00  1.47790E-01
      21    -1     0     0   502   511  0.000000000E+00  0.000000000E+00  1.339789322E+02  1.339789322E+02  0.000000000E+00  0.00000E+00  9.000E+00
      21    -1     0     0   501   502  0.000000000E+00  0.000000000E+00 -1.822556801E+03  1.822556801E+03  0.000000000E+00  0.00000E+00  9.000E+00
      25     1     1     2     0     0 -1.049764918E+02  3.377763632E+02 -2.967581654E+02  4.783339253E+02  1.250000000E+02  0.00000E+00  9.000E+00
      25     1     1     2     0     0  9.807064215E+01 -3.025152955E+02 -1.400213329E+03  1.441303480E+03  1.250000000E+02  0.00000E+00  9.000E+00
      21     1     1     2   501   511  6.905849695E+00 -3.526106769E+01  8.393625456E+00  3.689832792E+01  1.161908429E-06  0.00000E+00  9.000E+00
#rwgt            1           1   2.7900565883660879E-002           4      311695           0
</event>
<event>
      5   9999  3.19816E-02  1.61031E+02 -1.00000E+00  1.15185E-01
      21    -1     0     0   502   501  0.000000000E+00  0.000000000E+00  6.898372277E+02  6.898372277E+02  0.000000000E+00  0.00000E+00  9.000E+00
      21    -1     0     0   501   512  0.000000000E+00  0.000000000E+00 -1.382926773E+02  1.382926773E+02  0.000000000E+00  0.00000E+00  9.000E+00
      25     1     1     2     0     0  1.852224353E+02  1.751770067E+02  3.106103163E+02  4.208302541E+02  1.250000000E+02  0.00000E+00  9.000E+00
      25     1     1     2     0     0 -1.047495272E+02 -3.569595337E+01  1.328925473E+02  2.133825056E+02  1.250000000E+02  0.00000E+00  9.000E+00
      21     1     1     2   502   512 -8.047290813E+01 -1.394810533E+02  1.080416867E+02  1.939171453E+02  1.348699152E-06  0.00000E+00  9.000E+00
#rwgt            1           1   2.6542183083408694E-002           4      311834           0
</event>
<event>
      5   9999  3.19816E-02  4.24190E+01 -1.00000E+00  1.43276E-01
      21    -1     0     0   502   501  0.000000000E+00  0.000000000E+00  2.310606493E+02  2.310606493E+02  0.000000000E+00  0.00000E+00  9.000E+00
      21    -1     0     0   501   511  0.000000000E+00  0.000000000E+00 -2.951236941E+02  2.951236941E+02  0.000000000E+00  0.00000E+00  9.000E+00
      25     1     1     2     0     0  1.263280708E+01 -1.448581049E+02 -1.268736545E+02  2.299247324E+02  1.250000000E+02  0.00000E+00  9.000E+00
      25     1     1     2     0     0 -4.989575203E+01  1.651274915E+02  1.040639601E+02  2.370885537E+02  1.250000000E+02  0.00000E+00  9.000E+00
      21     1     1     2   502   511  3.726294494E+01 -2.026938655E+01 -4.125335042E+01  5.917105726E+01  1.066240300E-06  0.00000E+00  9.000E+00
#rwgt            1           1   2.6139123587177567E-002           4      311892           0
</event>
<event>
      5   9999  3.19816E-02  8.92425E+01 -1.00000E+00  1.26093E-01
      21    -1     0     0   502   501  0.000000000E+00  0.000000000E+00  3.962329388E+02  3.962329388E+02  0.000000000E+00  0.00000E+00  9.000E+00
      21    -1     0     0   512   502  0.000000000E+00  0.000000000E+00 -2.364943780E+02  2.364943780E+02  0.000000000E+00  0.00000E+00  9.000E+00
      25     1     1     2     0     0 -9.530562439E+00 -1.047748695E+02  2.745159510E+02  3.194567455E+02  1.250000000E+02  0.00000E+00  9.000E+00
      25     1     1     2     0     0 -7.188342446E+01  1.413261053E+02 -7.256667612E+01  2.145488691E+02  1.250000000E+02  0.00000E+00  9.000E+00
      21     1     1     2   512   501  8.141398689E+01 -3.655123576E+01 -4.221071405E+01  9.872170216E+01  6.743495762E-07  0.00000E+00  9.000E+00
#rwgt            1           1   2.9356521736011828E-002           4      311966           0
</event>
<event>
      5   9999  3.19816E-02  1.06476E+01 -1.00000E+00  1.92659E-01
      21    -1     0     0   502   511  0.000000000E+00  0.000000000E+00  7.436342058E+02  7.436342058E+02  0.000000000E+00  0.00000E+00  9.000E+00
      21    -1     0     0   501   502  0.000000000E+00  0.000000000E+00 -4.667737380E+02  4.667737380E+02  0.000000000E+00  0.00000E+00  9.000E+00
      25     1     1     2     0     0  4.210119695E+02  1.096942658E+02  4.129521701E+02  6.127302875E+02  1.250000000E+02  0.00000E+00  9.000E+00
      25     1     1     2     0     0 -4.232785014E+02 -1.200977976E+02 -2.238773093E+02  5.092486822E+02  1.250000000E+02  0.00000E+00  9.000E+00
      21     1     1     2   501   511  2.266531823E+00  1.040353177E+01  8.778560706E+01  8.842897403E+01  0.000000000E+00  0.00000E+00  9.000E+00
#rwgt            1           1   2.5659685427600939E-002           4      312008           0
</event>
<event>
      5   9999  3.19816E-02  3.25856E+01 -1.00000E+00  1.50587E-01
      21    -1     0     0   502   512  0.000000000E+00  0.000000000E+00  6.637773376E+02  6.637773376E+02  0.000000000E+00  0.00000E+00  9.000E+00
      21    -1     0     0   501   502  0.000000000E+00  0.000000000E+00 -4.090789760E+02  4.090789760E+02  0.000000000E+00  0.00000E+00  9.000E+00
      25     1     1     2     0     0  2.325065088E+02  4.654254407E+01 -3.107335092E+02  4.103727559E+02  1.250000000E+02  0.00000E+00  9.000E+00
      25     1     1     2     0     0 -2.640579470E+02 -5.468658555E+01  5.526002906E+02  6.274625910E+02  1.250000000E+02  0.00000E+00  9.000E+00
      21     1     1     2   501   512  3.155143815E+01  8.144041484E+00  1.283158023E+01  3.502096675E+01  6.078504936E-07  0.00000E+00  9.000E+00
#rwgt            1           1   3.0735954605806890E-002           4      312231           0
</event>
<event>
      5   9999  3.19816E-02  9.69167E+00 -1.00000E+00  1.97343E-01
      21    -1     0     0   502   501  0.000000000E+00  0.000000000E+00  4.759123022E+02  4.759123022E+02  0.000000000E+00  0.00000E+00  9.000E+00
      21    -1     0     0   501   511  0.000000000E+00  0.000000000E+00 -1.392179028E+02  1.392179028E+02  0.000000000E+00  0.00000E+00  9.000E+00
      25     1     1     2     0     0  1.689613745E+02 -1.091043267E+02  2.664606311E+02  3.564799687E+02  1.250000000E+02  0.00000E+00  9.000E+00
      25     1     1     2     0     0 -1.695575032E+02  9.943101222E+01  7.860319034E+01  2.458449402E+02  1.250000000E+02  0.00000E+00  9.000E+00
      21     1     1     2   502   511  5.961287030E-01  9.673314515E+00 -8.369422003E+00  1.280529608E+01  2.064765462E-07  0.00000E+00  9.000E+00
#rwgt            1           1   2.8681257692358551E-002           4      312373           0
</event>
<event>
      5   9999  3.19816E-02  3.60072E+02 -1.00000E+00  1.03079E-01
      21    -1     0     0   502   501  0.000000000E+00  0.000000000E+00  1.712639054E+03  1.712639054E+03  0.000000000E+00  0.00000E+00  9.000E+00
      21    -1     0     0   512   502  0.000000000E+00  0.000000000E+00 -2.569828948E+03  2.569828948E+03  0.000000000E+00  0.00000E+00  9.000E+00
      25     1     1     2     0     0  5.494538241E+02 -1.595807681E+03  7.911138924E+02  1.868150917E+03  1.250000000E+02  0.00000E+00  9.000E+00
      25     1     1     2     0     0 -2.671786292E+02  1.372261899E+03 -1.290492340E+03  1.906694160E+03  1.250000000E+02  0.00000E+00  9.000E+00
      21     1     1     2   512   501 -2.822751949E+02  2.235457819E+02 -3.578114462E+02  5.076229243E+02  3.814697266E-06  0.00000E+00  9.000E+00
#rwgt            2          11   5.8243703752187161E-003           4      312697           0
</event>
<event>
      5   9999  3.19816E-02  9.93555E+01 -1.00000E+00  1.23954E-01
      21    -1     0     0   502   511  0.000000000E+00  0.000000000E+00  3.733987104E+02  3.733987104E+02  0.000000000E+00  0.00000E+00  9.000E+00
      21    -1     0     0   501   502  0.000000000E+00  0.000000000E+00 -2.278274660E+02  2.278274660E+02  0.000000000E+00  0.00000E+00  9.000E+00
      25     1     1     2     0     0 -9.730614171E+01  6.446421140E+01 -1.506744709E+02  2.279296294E+02  1.250000000E+02  0.00000E+00  9.000E+00
      25     1     1     2     0     0  5.829980082E+00 -2.568759865E+01  1.635780022E+02  2.075490404E+02  1.250000000E+02  0.00000E+00  9.000E+00
      21     1     1     2   501   511  9.147616162E+01 -3.877661275E+01  1.326677132E+02  1.657475066E+02  3.303624740E-06  0.00000E+00  9.000E+00
#rwgt            1           1   2.9382180273772231E-002           4      312732           0
</event>
<event>
      5   9999  3.19816E-02  1.32814E+02 -1.00000E+00  1.18527E-01
      21    -1     0     0   502   501  0.000000000E+00  0.000000000E+00  5.110268310E+02  5.110268310E+02  0.000000000E+00  0.00000E+00  9.000E+00
       2    -1     0     0   501     0  0.000000000E+00  0.000000000E+00 -9.703423957E+02  9.703423957E+02  0.000000000E+00  0.00000E+00  9.000E+00
      25     1     1     2     0     0 -2.405797609E+01 -5.565891763E+01 -7.474254234E+00  1.391314695E+02  1.250000000E+02  0.00000E+00  9.000E+00
      25     1     1     2     0     0 -1.071528450E+02  3.508716129E+01  4.240983779E+02  4.562863961E+02  1.250000000E+02  0.00000E+00  9.000E+00
       2     1     1     2   502     0  1.312108211E+02  2.057175634E+01 -8.759396884E+02  8.859513612E+02  0.000000000E+00  0.00000E+00  9.000E+00
#rwgt            1           1   2.9030531662816828E-002           4      312819           0
</event>
<event>
      5   9999  3.19816E-02  1.08969E+02 -1.00000E+00  1.22173E-01
      21    -1     0     0   502   501  0.000000000E+00  0.000000000E+00  3.790649149E+02  3.790649149E+02  0.000000000E+00  0.00000E+00  9.000E+00
      21    -1     0     0   511   502  0.000000000E+00  0.000000000E+00 -1.656270135E+02  1.656270135E+02  0.000000000E+00  0.00000E+00  9.000E+00
      25     1     1     2     0     0  8.401812239E+01  2.336537118E+01  1.820147725E+02  2.374012697E+02  1.250000000E+02  0.00000E+00  9.000E+00
      25     1     1     2     0     0  2.595220347E+00 -8.948885776E+01  9.538452475E+01  1.809370012E+02  1.250000000E+02  0.00000E+00  9.000E+00
      21     1     1     2   511   501 -8.661334274E+01  6.612348658E+01 -6.396139579E+01  1.263536575E+02  2.132480600E-06  0.00000E+00  9.000E+00
#rwgt            1           1   4.0147210577506406E-002           4      312878           0
</event>
<event>
      5   9999  3.19816E-02  3.94297E+01 -1.00000E+00  1.45228E-01
      21    -1     0     0   502   512  0.000000000E+00  0.000000000E+00  1.614892604E+02  1.614892604E+02  0.000000000E+00  0.00000E+00  9.000E+00
      21    -1     0     0   501   502  0.000000000E+00  0.000000000E+00 -1.081095708E+03  1.081095708E+03  0.000000000E+00  0.00000E+00  9.000E+00
      25     1     1     2     0     0 -3.406763457E+01 -1.587809243E+02 -9.350816598E+02  9.572746190E+02  1.250000000E+02  0.00000E+00  9.000E+00
      25     1     1     2     0     0  1.564067338E+01  1.936399366E+02  4.587547007E+01  2.355220042E+02  1.250000000E+02  0.00000E+00  9.000E+00
      21     1     1     2   501   512  1.842696119E+01 -3.485901231E+01 -3.040025756E+01  4.978834500E+01  7.539457465E-07  0.00000E+00  9.000E+00
#rwgt            1           1   2.6927012382338963E-002           4      312928           0
</event>
<event>
      5   9999  3.19816E-02  6.73588E+02 -1.00000E+00  9.53092E-02
       2    -1     0     0   502     0  0.000000000E+00  0.000000000E+00  3.067895855E+03  3.067895855E+03  0.000000000E+00  0.00000E+00  9.000E+00
      21    -1     0     0   501   502  0.000000000E+00  0.000000000E+00 -7.435999909E+02  7.435999909E+02  0.000000000E+00  0.00000E+00  9.000E+00
      25     1     1     2     0     0 -1.434360641E+02 -1.069742109E+02 -4.074817150E+02  4.622593799E+02  1.250000000E+02  0.00000E+00  9.000E+00
      25     1     1     2     0     0  4.985179509E+02  6.793707730E+02  2.493082522E+03  2.634606281E+03  1.250000000E+02  0.00000E+00  9.000E+00
       2     1     1     2   501     0 -3.550818868E+02 -5.723965621E+02  2.386950567E+02  7.146301846E+02  8.529922400E-06  0.00000E+00  9.000E+00
#rwgt            2          18   1.0029265809253813E-003           4      313058           0
</event>
<event>
      5   9999  3.19816E-02  5.96079E+01 -1.00000E+00  1.34856E-01
      21    -1     0     0   502   501  0.000000000E+00  0.000000000E+00  5.009952570E+02  5.009952570E+02  0.000000000E+00  0.00000E+00  9.000E+00
      21    -1     0     0   501   511  0.000000000E+00  0.000000000E+00 -3.302949900E+02  3.302949900E+02  0.000000000E+00  0.00000E+00  9.000E+00
      25     1     1     2     0     0  1.382847084E+02 -2.927968785E+02  1.412521812E+02  3.747397114E+02  1.250000000E+02  0.00000E+00  9.000E+00
      25     1     1     2     0     0 -1.246101415E+02  3.508150475E+02  4.406124492E+01  3.951775274E+02  1.250000000E+02  0.00000E+00  9.000E+00
      21     1     1     2   502   511 -1.367456691E+01 -5.801816897E+01 -1.461315901E+01  6.137300813E+01  1.430511475E-06  0.00000E+00  9.000E+00
#rwgt            1           1   2.9859444306778726E-002           4      313107           0
</event>
<event>
      5   9999  3.19816E-02  3.51728E+02 -1.00000E+00  1.03395E-01
      21    -1     0     0   502   501  0.000000000E+00  0.000000000E+00  9.593615363E+02  9.593615363E+02  0.000000000E+00  0.00000E+00  9.000E+00
      21    -1     0     0   501   512  0.000000000E+00  0.000000000E+00 -9.240552640E+02  9.240552640E+02  0.000000000E+00  0.00000E+00  9.000E+00
      25     1     1     2     0     0 -5.181490220E+02  3.928420004E+01  7.044948109E+02  8.842847934E+02  1.250000000E+02  0.00000E+00  9.000E+00
      25     1     1     2     0     0  2.040347854E+02  1.189717203E+02 -5.764594860E+02  6.353857119E+02  1.250000000E+02  0.00000E+00  9.000E+00
      21     1     1     2   502   512  3.141142366E+02 -1.582559203E+02 -9.272905256E+01  3.637462950E+02  5.560829062E-06  0.00000E+00  9.000E+00
#rwgt            1           1   3.4724433998990070E-002           4      313216           0
</event>
<event>
      5   9999  3.19816E-02  1.05817E+02 -1.00000E+00  1.22733E-01
      21    -1     0     0   502   511  0.000000000E+00  0.000000000E+00  8.009954588E+02  8.009954588E+02  0.000000000E+00  0.00000E+00  9.000E+00
      21    -1     0     0   501   502  0.000000000E+00  0.000000000E+00 -1.480789230E+02  1.480789230E+02  0.000000000E+00  0.00000E+00  9.000E+00
      25     1     1     2     0     0  1.540173669E+01  1.176399370E+02 -1.364200912E+01  1.728799372E+02  1.250000000E+02  0.00000E+00  9.000E+00
      25     1     1     2     0     0 -1.126851777E+02 -1.592725565E+02  2.280962039E+02  3.251439293E+02  1.250000000E+02  0.00000E+00  9.000E+00
      21     1     1     2   501   511  9.728344097E+01  4.163261944E+01  4.384623410E+02  4.510505153E+02  5.394796609E-06  0.00000E+00  9.000E+00
#rwgt            2          11   1.8709098284601200E-003           4      313294           0
</event>
<event>
      5   9999  3.19816E-02  1.18833E+01 -1.00000E+00  1.87475E-01
      21    -1     0     0   502   501  0.000000000E+00  0.000000000E+00  3.054115442E+02  3.054115442E+02  0.000000000E+00  0.00000E+00  9.000E+00
      21    -1     0     0   512   502  0.000000000E+00  0.000000000E+00 -3.981275574E+02  3.981275574E+02  0.000000000E+00  0.00000E+00  9.000E+00
      25     1     1     2     0     0  2.782782006E+02  5.545038757E+01  7.879550704E+01  3.199175430E+02  1.250000000E+02  0.00000E+00  9.000E+00
      25     1     1     2     0     0 -2.891694910E+02 -5.069720158E+01 -1.372352458E+02  3.473437972E+02  1.250000000E+02  0.00000E+00  9.000E+00
      21     1     1     2   512   501  1.089129047E+01 -4.753185989E+00 -3.427627439E+01  3.627776139E+01  4.768371582E-07  0.00000E+00  9.000E+00
#rwgt            1           1   2.9479697541120193E-002           4      313314           0
</event>
<event>
      5   9999  3.19816E-02  1.45213E+02 -1.00000E+00  1.16955E-01
      21    -1     0     0   502   501  0.000000000E+00  0.000000000E+00  7.946070849E+02  7.946070849E+02  0.000000000E+00  0.00000E+00  9.000E+00
      21    -1     0     0   511   502  0.000000000E+00  0.000000000E+00 -1.348459080E+03  1.348459080E+03  0.000000000E+00  0.00000E+00  9.000E+00
      25     1     1     2     0     0  8.473389253E+02  1.102581384E+01  1.521595901E+02  8.699898642E+02  1.250000000E+02  0.00000E+00  9.000E+00
      25     1     1     2     0     0 -8.679418927E+02 -1.547702423E+02 -5.006005753E+02  1.021519894E+03  1.250000000E+02  0.00000E+00  9.000E+00
      21     1     1     2   511   501  2.060296732E+01  1.437444285E+02 -2.054110104E+02  2.515564075E+02  2.697398305E-06  0.00000E+00  9.000E+00
#rwgt            1           1   2.8253404570153500E-002           4      313512           0
</event>
<event>
      5   9999  3.19816E-02  1.89719E+02 -1.00000E+00  1.12489E-01
      21    -1     0     0   502   501  0.000000000E+00  0.000000000E+00  3.053950249E+02  3.053950249E+02  0.000000000E+00  0.00000E+00  9.000E+00
       4    -1     0     0   501     0  0.000000000E+00  0.000000000E+00 -7.638492833E+02  7.638492833E+02  0.000000000E+00  0.00000E+00  9.000E+00
      25     1     1     2     0     0  2.809914877E+02 -1.281276494E+02 -2.869901394E+02  4.397286104E+02  1.250000000E+02  0.00000E+00  9.000E+00
      25     1     1     2     0     0 -1.966459194E+02 -4.181086946E+01  1.324344245E+02  2.712593652E+02  1.250000000E+02  0.00000E+00  9.000E+00
       4     1     1     2   502     0 -8.434556831E+01  1.699385188E+02 -3.038985436E+02  3.582563326E+02  3.814697266E-06  0.00000E+00  9.000E+00
#rwgt            1           1   2.5658989131800203E-002           4      313622           0
</event>
<event>
      5   9999  3.19816E-02  1.14119E+02 -1.00000E+00  1.21302E-01
      21    -1     0     0   502   511  0.000000000E+00  0.000000000E+00  5.679799125E+02  5.679799125E+02  0.000000000E+00  0.00000E+00  9.000E+00
      21    -1     0     0   501   502  0.000000000E+00  0.000000000E+00 -3.116309597E+02  3.116309597E+02  0.000000000E+00  0.00000E+00  9.000E+00
      25     1     1     2     0     0 -2.212758527E+02  9.099329210E+01 -3.724293980E+01  2.724973739E+02  1.250000000E+02  0.00000E+00  9.000E+00
      25     1     1     2     0     0  1.839241393E+02 -1.988265858E+02  6.723395679E+00  2.983794636E+02  1.250000000E+02  0.00000E+00  9.000E+00
      21     1     1     2   501   511  3.735171340E+01  1.078332937E+02  2.868684970E+02  3.087340348E+02  0.000000000E+00  0.00000E+00  9.000E+00
#rwgt            1           1   2.7424761460605521E-002           4      313651           0
</event>
<event>
      5   9999  3.19816E-02  9.64054E+01 -1.00000E+00  1.24547E-01
      21    -1     0     0   502   501  0.000000000E+00  0.000000000E+00  1.783605955E+03  1.783605955E+03  0.000000000E+00  0.00000E+00  9.000E+00
      21    -1     0     0   512   502  0.000000000E+00  0.000000000E+00 -5.120510006E+02  5.120510006E+02  0.000000000E+00  0.00000E+00  9.000E+00
      25     1     1     2     0     0 -5.055268764E+02  3.101797524E+02  3.613269590E+02  7.056564836E+02  1.250000000E+02  0.00000E+00  9.000E+00
      25     1     1     2     0     0  4.152119907E+02 -2.764571146E+02  1.188777460E+03  1.295239894E+03  1.250000000E+02  0.00000E+00  9.000E+00
      21     1     1     2   512   501  9.031488577E+01 -3.372263776E+01 -2.785494640E+02  2.947605787E+02  3.814697266E-06  0.00000E+00  9.000E+00
#rwgt            1           1   3.6731006600619558E-002           4      313752           0
</event>
<event>
      5   9999  3.19816E-02  5.71357E+01 -1.00000E+00  1.35849E-01
      21    -1     0     0   511   501  0.000000000E+00  0.000000000E+00  1.647336377E+02  1.647336377E+02  0.000000000E+00  0.00000E+00  9.000E+00
      21    -1     0     0   501   502  0.000000000E+00  0.000000000E+00 -6.542208168E+02  6.542208168E+02  0.000000000E+00  0.00000E+00  9.000E+00
      25     1     1     2     0     0  1.720469688E+02  1.358085281E+01 -5.298040167E+02  5.710533208E+02  1.250000000E+02  0.00000E+00  9.000E+00
      25     1     1     2     0     0 -1.240417971E+02 -4.456452156E+01  7.054710338E+00  1.817887041E+02  1.250000000E+02  0.00000E+00  9.000E+00
      21     1     1     2   511   502 -4.800517176E+01  3.098366875E+01  3.326212722E+01  6.611242964E+01  6.743495762E-07  0.00000E+00  9.000E+00
#rwgt            1           1   2.8322843406744413E-002           4      313836           0
</event>
<event>
      5   9999  3.19816E-02  2.00175E+02 -1.00000E+00  1.11634E-01
      21    -1     0     0   512   501  0.000000000E+00  0.000000000E+00  8.365182905E+01  8.365182905E+01  0.000000000E+00  0.00000E+00  9.000E+00
      21    -1     0     0   501   502  0.000000000E+00  0.000000000E+00 -1.924192062E+03  1.924192062E+03  0.000000000E+00  0.00000E+00  9.000E+00
      25     1     1     2     0     0 -3.124315744E+02 -6.607779595E+00 -1.124396061E+03  1.173690186E+03  1.250000000E+02  0.00000E+00  9.000E+00
      25     1     1     2     0     0  1.470977477E+02  1.194564718E+02 -3.595317224E+02  4.252007237E+02  1.250000000E+02  0.00000E+00  9.000E+00
      21     1     1     2   512   502  1.653338267E+02 -1.128486922E+02 -3.566124498E+02  4.089529813E+02  6.607249480E-06  0.00000E+00  9.000E+00
#rwgt            1           1   2.8889288126351560E-002           4      313899           0
</event>
<event>
      5   9999  3.19816E-02  7.09710E+00 -1.00000E+00  2.14712E-01
      21    -1     0     0   502   501  0.000000000E+00  0.000000000E+00  5.491495169E+02  5.491495169E+02  0.000000000E+00  0.00000E+00  9.000E+00
      21    -1     0     0   511   502  0.000000000E+00  0.000000000E+00 -1.212728755E+02  1.212728755E+02  0.000000000E+00  0.00000E+00  9.000E+00
      25     1     1     2     0     0 -1.802549046E+01  1.728586259E+02  2.765071219E+02  3.496944542E+02  1.250000000E+02  0.00000E+00  9.000E+00
      25     1     1     2     0     0  2.133263049E+01 -1.791380855E+02  1.845749929E+02  2.867724931E+02  1.250000000E+02  0.00000E+00  9.000E+00
      21     1     1     2   511   501 -3.307140031E+00  6.279459590E+00 -3.320547343E+01  3.395544513E+01  4.768371582E-07  0.00000E+00  9.000E+00
#rwgt            1           1   3.1937587889055458E-002           4      313961           0
</event>
<event>
      5   9999  3.19816E-02  1.05934E+02 -1.00000E+00  1.22712E-01
      21    -1     0     0   512   501  0.000000000E+00  0.000000000E+00  1.557849718E+03  1.557849718E+03  0.000000000E+00  0.00000E+00  9.000E+00
      21    -1     0     0   501   502  0.000000000E+00  0.000000000E+00 -1.905710909E+02  1.905710909E+02  0.000000000E+00  0.00000E+00  9.000E+00
      25     1     1     2     0     0  3.931243174E+02  3.385294408E+01  2.240698670E+02  4.706644835E+02  1.250000000E+02  0.00000E+00  9.000E+00
      25     1     1     2     0     0 -3.797053020E+02 -1.389332990E+02  6.671880700E+02  7.900908168E+02  1.250000000E+02  0.00000E+00  9.000E+00
      21     1     1     2   512   502 -1.341901535E+01  1.050803549E+02  4.760206898E+02  4.876655084E+02  0.000000000E+00  0.00000E+00  9.000E+00
#rwgt            1           1   3.1945912911247966E-002           4      314181           0
</event>
<event>
      5   9999  3.19816E-02  1.70527E+02 -1.00000E+00  1.14228E-01
      21    -1     0     0   502   501  0.000000000E+00  0.000000000E+00  1.049124573E+03  1.049124573E+03  0.000000000E+00  0.00000E+00  9.000E+00
      21    -1     0     0   511   502  0.000000000E+00  0.000000000E+00 -1.201771537E+02  1.201771537E+02  0.000000000E+00  0.00000E+00  9.000E+00
      25     1     1     2     0     0  1.209341462E+02  2.646870895E+00  1.636310329E+02  2.388141298E+02  1.250000000E+02  0.00000E+00  9.000E+00
      25     1     1     2     0     0 -2.887818833E+02 -3.275796454E+01  6.549537383E+02  7.273633615E+02  1.250000000E+02  0.00000E+00  9.000E+00
      21     1     1     2   511   501  1.678477371E+02  3.011109364E+01  1.103626478E+02  2.031242350E+02  0.000000000E+00  0.00000E+00  9.000E+00
#rwgt            1           1   3.1763401891125871E-002           4      314234           0
</event>
<event>
      5   9999  3.19816E-02  4.79504E+01 -1.00000E+00  1.40121E-01
      21    -1     0     0   502   512  0.000000000E+00  0.000000000E+00  2.578217477E+02  2.578217477E+02  0.000000000E+00  0.00000E+00  9.000E+00
      21    -1     0     0   501   502  0.000000000E+00  0.000000000E+00 -3.163840258E+02  3.163840258E+02  0.000000000E+00  0.00000E+00  9.000E+00
      25     1     1     2     0     0  1.403479321E+02 -1.781656269E+02  7.926568643E+00  2.590914185E+02  1.250000000E+02  0.00000E+00  9.000E+00
      25     1     1     2     0     0 -9.936916749E+01  2.030651532E+02 -6.803361742E+01  2.671390293E+02  1.250000000E+02  0.00000E+00  9.000E+00
      21     1     1     2   501   512 -4.097876464E+01 -2.489952627E+01  1.544770703E+00  4.797532571E+01  5.372690075E-07  0.00000E+00  9.000E+00
#rwgt            1           1   2.6978600995683992E-002           4      314286           0
</event>
<event>
      5   9999  3.19816E-02  5.56707E+01 -1.00000E+00  1.36465E-01
      21    -1     0     0   511   501  0.000000000E+00  0.000000000E+00  4.915411233E+02  4.915411233E+02  0.000000000E+00  0.00000E+00  9.000E+00
      21    -1     0     0   501   502  0.000000000E+00  0.000000000E+00 -9.932859307E+02  9.932859307E+02  0.000000000E+00  0.00000E+00  9.000E+00
      25     1     1     2     0     0  3.622000470E+02 -2.687703647E+02 -6.479486840E+02  7.993052484E+02  1.250000000E+02  0.00000E+00  9.000E+00
      25     1     1     2     0     0 -3.065422551E+02  2.699674355E+02 -9.530961518E+01  4.376750999E+02  1.250000000E+02  0.00000E+00  9.000E+00
      21     1     1     2   511   502 -5.565779195E+01 -1.197070825E+00  2.415134918E+02  2.478467057E+02  2.697398305E-06  0.00000E+00  9.000E+00
#rwgt            1           1   2.9796040956958536E-002           4      314420           0
</event>
<event>
      5   9999  3.19816E-02  4.92044E+01 -1.00000E+00  1.39474E-01
      21    -1     0     0   502   501  0.000000000E+00  0.000000000E+00  3.225643964E+02  3.225643964E+02  0.000000000E+00  0.00000E+00  9.000E+00
      21    -1     0     0   512   502  0.000000000E+00  0.000000000E+00 -1.150047404E+03  1.150047404E+03  0.000000000E+00  0.00000E+00  9.000E+00
      25     1     1     2     0     0  4.279644067E+01  1.155801401E+02  2.881934411E+02  3.374474235E+02  1.250000000E+02  0.00000E+00  9.000E+00
      25     1     1     2     0     0 -2.093232178E+01 -7.150030761E+01 -9.819314655E+02  9.926554584E+02  1.250000000E+02  0.00000E+00  9.000E+00
      21     1     1     2   512   501 -2.186411889E+01 -4.407983251E+01 -1.337449831E+02  1.425089184E+02  2.697398305E-06  0.00000E+00  9.000E+00
#rwgt            1           1   3.0785013025088653E-002           4      314545           0
</event>
<event>
      5   9999  3.19816E-02  1.68823E+02 -1.00000E+00  1.14395E-01
      21    -1     0     0   502   511  0.000000000E+00  0.000000000E+00  4.040310205E+02  4.040310205E+02  0.000000000E+00  0.00000E+00  9.000E+00
      21    -1     0     0   501   502  0.000000000E+00  0.000000000E+00 -5.571306970E+02  5.571306970E+02  0.000000000E+00  0.00000E+00  9.000E+00
      25     1     1     2     0     0  1.617979370E+02  1.522309056E+02 -2.211391985E+02  3.374616514E+02  1.250000000E+02  0.00000E+00  9.000E+00
      25     1     1     2     0     0 -2.829696889E+02 -2.697829541E+02 -5.592142356E+01  4.142546232E+02  1.250000000E+02  0.00000E+00  9.000E+00
      21     1     1     2   501   511  1.211717519E+02  1.175520485E+02  1.239609455E+02  2.094454430E+02  3.303624740E-06  0.00000E+00  9.000E+00
#rwgt            1           1   2.9661141513533988E-002           4      314672           0
</event>
<event>
      5   9999  3.19816E-02  1.48723E+02 -1.00000E+00  1.16541E-01
      21    -1     0     0   502   501  0.000000000E+00  0.000000000E+00  3.348224475E+02  3.348224475E+02  0.000000000E+00  0.00000E+00  9.000E+00
      21    -1     0     0   512   502  0.000000000E+00  0.000000000E+00 -3.039844592E+02  3.039844592E+02  0.000000000E+00  0.00000E+00  9.000E+00
      25     1     1     2     0     0 -8.719341707E+01  3.089811547E+01 -3.301193074E+01  1.589722400E+02  1.250000000E+02  0.00000E+00  9.000E+00
      25     1     1     2     0     0 -2.900241944E+01  6.192975600E+01  2.213306773E+02  2.632274752E+02  1.250000000E+02  0.00000E+00  9.000E+00
      21     1     1     2   512   501  1.161958365E+02 -9.282787148E+01 -1.574807582E+02  2.166071914E+02  1.907348633E-06  0.00000E+00  9.000E+00
#rwgt            1           1   2.7742369805875838E-002           4      314728           0
</event>
<event>
      5   9999  3.19816E-02  4.34034E+01 -1.00000E+00  1.42675E-01
      21    -1     0     0   502   501  0.000000000E+00  0.000000000E+00  1.934631205E+02  1.934631205E+02  0.000000000E+00  0.00000E+00  9.000E+00
      21    -1     0     0   511   502  0.000000000E+00  0.000000000E+00 -8.935724231E+02  8.935724231E+02  0.000000000E+00  0.00000E+00  9.000E+00
      25     1     1     2     0     0 -1.224849307E+02 -1.131355627E+02 -7.822100064E+02  8.094934885E+02  1.250000000E+02  0.00000E+00  9.000E+00
      25     1     1     2     0     0  1.108097829E+02  7.133186953E+01  1.218216807E+02  2.187065739E+02  1.250000000E+02  0.00000E+00  9.000E+00
      21     1     1     2   511   501  1.167514786E+01  4.180369315E+01 -3.972097689E+01  5.883548116E+01  4.768371582E-07  0.00000E+00  9.000E+00
#rwgt            1           1   3.4831088651306789E-002           4      314768           0
</event>
<event>
      5   9999  3.19816E-02  2.61276E+02 -1.00000E+00  1.07580E-01
      21    -1     0     0   502   501  0.000000000E+00  0.000000000E+00  1.979703626E+02  1.979703626E+02  0.000000000E+00  0.00000E+00  9.000E+00
       2    -1     0     0   501     0  0.000000000E+00  0.000000000E+00 -2.041423159E+03  2.041423159E+03  0.000000000E+00  0.00000E+00  9.000E+00
      25     1     1     2     0     0 -3.207529181E+02  8.402768292E+01 -1.258524186E+01  3.545792919E+02  1.250000000E+02  0.00000E+00  9.000E+00
      25     1     1     2     0     0  8.447364213E+01  2.749531366E+01 -3.660023423E+02  3.968305722E+02  1.250000000E+02  0.00000E+00  9.000E+00
       2     1     1     2   502     0  2.362792759E+02 -1.115229966E+02 -1.464865212E+03  1.487983657E+03  2.157918644E-05  0.00000E+00  9.000E+00
#rwgt            2          13   1.8906845316507030E-003           4      314988           0
</event>
<event>
      5   9999  3.19816E-02  2.03732E+02 -1.00000E+00  1.11357E-01
      21    -1     0     0   502   501  0.000000000E+00  0.000000000E+00  5.675746231E+02  5.675746231E+02  0.000000000E+00  0.00000E+00  9.000E+00
      -5    -1     0     0     0   502  0.000000000E+00  0.000000000E+00 -8.282523951E+02  8.282523951E+02  0.000000000E+00  0.00000E+00  9.000E+00
      25     1     1     2     0     0  1.092063872E+02 -1.760454707E+02  4.378431669E+02  5.002496193E+02  1.250000000E+02  0.00000E+00  9.000E+00
      25     1     1     2     0     0  2.006928301E+01  3.335076809E+02 -4.472639138E+02  5.721015277E+02  1.250000000E+02  0.00000E+00  9.000E+00
      -5     1     1     2     0   501 -1.292756702E+02 -1.574622102E+02 -2.512570251E+02  3.234758712E+02  3.814697266E-06  0.00000E+00  9.000E+00
#rwgt            2           6   1.6623533549018321E-005           4      315067           0
</event>
<event>
      5   9999  3.19816E-02  1.34839E+02 -1.00000E+00  1.18258E-01
       2    -1     0     0   502     0  0.000000000E+00  0.000000000E+00  2.924695007E+03  2.924695007E+03  0.000000000E+00  0.00000E+00  9.000E+00
      21    -1     0     0   501   502  0.000000000E+00  0.000000000E+00 -1.202232743E+03  1.202232743E+03  0.000000000E+00  0.00000E+00  9.000E+00
      25     1     1     2     0     0 -2.909770886E+02  3.130889007E+02  8.718753569E+02  9.790219424E+02  1.250000000E+02  0.00000E+00  9.000E+00
      25     1     1     2     0     0  3.684497023E+02 -4.234494709E+02 -1.074179784E+03  1.218421867E+03  1.250000000E+02  0.00000E+00  9.000E+00
       2     1     1     2   501     0 -7.747261372E+01  1.103605702E+02  1.924766691E+03  1.929483940E+03  3.737624730E-05  0.00000E+00  9.000E+00
#rwgt            1           1   2.6428420043953627E-002           4      315101           0
</event>
<event>
      5   9999  3.19816E-02  3.03697E+01 -1.00000E+00  1.52671E-01
      21    -1     0     0   502   501  0.000000000E+00  0.000000000E+00  2.456852222E+02  2.456852222E+02  0.000000000E+00  0.00000E+00  9.000E+00
      21    -1     0     0   511   502  0.000000000E+00  0.000000000E+00 -3.266074042E+02  3.266074042E+02  0.000000000E+00  0.00000E+00  9.000E+00
      25     1     1     2     0     0 -1.202369164E+02  1.130969627E+02 -8.472773390E+01  2.237222115E+02  1.250000000E+02  0.00000E+00  9.000E+00
      25     1     1     2     0     0  1.372531168E+02 -1.382517935E+02  9.668755022E+01  2.508494745E+02  1.250000000E+02  0.00000E+00  9.000E+00
      21     1     1     2   511   501 -1.701620033E+01  2.515483085E+01 -9.288199835E+01  9.772094047E+01  1.348699152E-06  0.00000E+00  9.000E+00
#rwgt            1           1   2.6790104704915985E-002           4      315164           0
</event>
<event>
      5   9999  3.19816E-02  1.93588E+01 -1.00000E+00  1.67545E-01
      21    -1     0     0   512   501  0.000000000E+00  0.000000000E+00  1.834796249E+03  1.834796249E+03  0.000000000E+00  0.00000E+00  9.000E+00
      21    -1     0     0   501   502  0.000000000E+00  0.000000000E+00 -1.382461383E+02  1.382461383E+02  0.000000000E+00  0.00000E+00  9.000E+00
      25     1     1     2     0     0 -2.042708917E+02  7.352814728E+01  1.150942214E+03  1.177890473E+03  1.250000000E+02  0.00000E+00  9.000E+00
      25     1     1     2     0     0  2.061756019E+02 -9.279302495E+01  9.321852876E+00  2.585165783E+02  1.250000000E+02  0.00000E+00  9.000E+00
      21     1     1     2   512   502 -1.904710167E+00  1.926487767E+01  5.362860435E+02  5.366353360E+02  0.000000000E+00  0.00000E+00  9.000E+00
#rwgt            1           1   2.8698613839155306E-002           4      315360           0
</event>
<event>
      5   9999  3.19816E-02  1.19083E+02 -1.00000E+00  1.20510E-01
       1    -1     0     0   502     0  0.000000000E+00  0.000000000E+00  1.621450689E+03  1.621450689E+03  0.000000000E+00  0.00000E+00  9.000E+00
      21    -1     0     0   501   502  0.000000000E+00  0.000000000E+00 -1.469060469E+02  1.469060469E+02  0.000000000E+00  0.00000E+00  9.000E+00
      25     1     1     2     0     0  2.450879239E+01  4.035780410E+01  7.139966948E+02  7.263922587E+02  1.250000000E+02  0.00000E+00  9.000E+00
      25     1     1     2     0     0 -1.300766053E+02  1.474377454E+01 -7.648725044E+01  1.965008947E+02  1.250000000E+02  0.00000E+00  9.000E+00
       1     1     1     2   501     0  1.055678129E+02 -5.510157864E+01  8.370351978E+02  8.454635826E+02  1.078959322E-05  0.00000E+00  9.000E+00
#rwgt            1           1   2.3917975511076529E-002           4      315499           0
</event>
<event>
      5   9999  3.19816E-02  2.73360E+01 -1.00000E+00  1.55899E-01
      21    -1     0     0   502   511  0.000000000E+00  0.000000000E+00  6.012540820E+02  6.012540820E+02  0.000000000E+00  0.00000E+00  9.000E+00
      21    -1     0     0   501   502  0.000000000E+00  0.000000000E+00 -1.641926059E+02  1.641926059E+02  0.000000000E+00  0.00000E+00  9.000E+00
      25     1     1     2     0     0  1.398269530E+02  1.742598097E+02  2.049485948E+02  3.279435692E+02  1.250000000E+02  0.00000E+00  9.000E+00
      25     1     1     2     0     0 -1.488636644E+02 -1.484606538E+02  4.536463019E+01  2.487647603E+02  1.250000000E+02  0.00000E+00  9.000E+00
      21     1     1     2   501   511  9.036711450E+00 -2.579915591E+01  1.867482511E+02  1.887383583E+02  3.814697266E-06  0.00000E+00  9.000E+00
#rwgt            1           1   2.9686965565726451E-002           4      315561           0
</event>
<event>
      5   9999  3.19816E-02  1.53578E+02 -1.00000E+00  1.15989E-01
      21    -1     0     0   502   501  0.000000000E+00  0.000000000E+00  1.094045837E+02  1.094045837E+02  0.000000000E+00  0.00000E+00  9.000E+00
      21    -1     0     0   512   502  0.000000000E+00  0.000000000E+00 -1.057677261E+03  1.057677261E+03  0.000000000E+00  0.00000E+00  9.000E+00
      25     1     1     2     0     0  1.493366038E+02 -2.549541744E+02 -4.944766459E+02  5.894363457E+02  1.250000000E+02  0.00000E+00  9.000E+00
      25     1     1     2     0     0 -1.134020689E+02  1.056393473E+02 -2.089970938E+02  2.886598104E+02  1.250000000E+02  0.00000E+00  9.000E+00
      21     1     1     2   512   501 -3.593453494E+01  1.493148271E+02 -2.447989376E+02  2.889856887E+02  3.814697266E-06  0.00000E+00  9.000E+00
#rwgt            1           1   2.7831876829232650E-002           4      315628           0
</event>
<event>
      5   9999  3.19816E-02  2.96247E+01 -1.00000E+00  1.53421E-01
       1    -1     0     0   502     0  0.000000000E+00  0.000000000E+00  8.659151225E+02  8.659151225E+02  0.000000000E+00  0.00000E+00  9.000E+00
      21    -1     0     0   501   502  0.000000000E+00  0.000000000E+00 -2.134441007E+02  2.134441007E+02  0.000000000E+00  0.00000E+00  9.000E+00
      25     1     1     2     0     0  2.866094752E+02  1.864629314E+02  1.577121581E+02  3.967512330E+02  1.250000000E+02  0.00000E+00  9.000E+00
      25     1     1     2     0     0 -2.569923195E+02 -1.871302014E+02  2.201176794E+02  4.063736671E+02  1.250000000E+02  0.00000E+00  9.000E+00
       1     1     1     2   501     0 -2.961715575E+01  6.672699506E-01  2.746411843E+02  2.762343231E+02  3.814697266E-06  0.00000E+00  9.000E+00
#rwgt            1           1   2.8999305123317918E-002           4      315668           0
</event>
<event>
      5   9999  3.19816E-02  1.35234E+01 -1.00000E+00  1.81731E-01
      21    -1     0     0   502   511  0.000000000E+00  0.000000000E+00  3.549045847E+02  3.549045847E+02  0.000000000E+00  0.00000E+00  9.000E+00
      21    -1     0     0   501   502  0.000000000E+00  0.000000000E+00 -2.153834380E+02  2.153834380E+02  0.000000000E+00  0.00000E+00  9.000E+00
      25     1     1     2     0     0  1.263677887E+02  7.991231187E+01 -1.286351259E+02  2.335097241E+02  1.250000000E+02  0.00000E+00  9.000E+00
      25     1     1     2     0     0 -1.130789215E+02 -7.740441917E+01  2.252377228E+02  2.917795715E+02  1.250000000E+02  0.00000E+00  9.000E+00
      21     1     1     2   501   511 -1.328886726E+01 -2.507892704E+00  4.291854982E+01  4.499872706E+01  0.000000000E+00  0.00000E+00  9.000E+00
#rwgt            1           1   2.8124114235458221E-002           4      315771           0
</event>
<event>
      5   9999  3.19816E-02  9.83240E+01 -1.00000E+00  1.24159E-01
       1    -1     0     0   502     0  0.000000000E+00  0.000000000E+00  1.727641394E+03  1.727641394E+03  0.000000000E+00  0.00000E+00  9.000E+00
      21    -1     0     0   501   502  0.000000000E+00  0.000000000E+00 -4.657385740E+02  4.657385740E+02  0.000000000E+00  0.00000E+00  9.000E+00
      25     1     1     2     0     0  2.020827790E+02 -8.207323215E+01  1.512326682E+03  1.533078751E+03  1.250000000E+02  0.00000E+00  9.000E+00
      25     1     1     2     0     0 -1.037666135E+02  8.331390187E+01 -4.235375697E+02  4.612133880E+02  1.250000000E+02  0.00000E+00  9.000E+00
       1     1     1     2   501     0 -9.831616551E+01 -1.240669713E+00  1.731137080E+02  1.990878288E+02  1.907348633E-06  0.00000E+00  9.000E+00
#rwgt            1           1   2.0684701614798521E-002           4      315990           0
</event>
<event>
      5   9999  3.19816E-02  8.79655E+01 -1.00000E+00  1.26386E-01
      21    -1     0     0   502   501  0.000000000E+00  0.000000000E+00  3.815512564E+02  3.815512564E+02  0.000000000E+00  0.00000E+00  9.000E+00
       1    -1     0     0   501     0  0.000000000E+00  0.000000000E+00 -7.704781716E+02  7.704781716E+02  0.000000000E+00  0.00000E+00  9.000E+00
      25     1     1     2     0     0 -2.344815744E+02 -2.358811617E+02  1.837952468E+02  4.000340284E+02  1.250000000E+02  0.00000E+00  9.000E+00
      25     1     1     2     0     0  1.885073813E+02  1.608858592E+02 -1.408588538E+02  3.112643719E+02  1.250000000E+02  0.00000E+00  9.000E+00
       1     1     1     2   502     0  4.597419304E+01  7.499530252E+01 -4.318633082E+02  4.407310277E+02  5.394796609E-06  0.00000E+00  9.000E+00
#rwgt            1           1   2.7837074619731894E-002           4      316092           0
</event>
<event>
      5   9999  3.19816E-02  1.92492E+02 -1.00000E+00  1.12256E-01
      21    -1     0     0   502   511  0.000000000E+00  0.000000000E+00  1.937633875E+03  1.937633875E+03  0.000000000E+00  0.00000E+00  9.000E+00
      21    -1     0     0   501   502  0.000000000E+00  0.000000000E+00 -1.178203460E+03  1.178203460E+03  0.000000000E+00  0.00000E+00  9.000E+00
      25     1     1     2     0     0 -9.986086043E+02  2.763876749E+02 -6.632126691E+02  1.236561901E+03  1.250000000E+02  0.00000E+00  9.000E+00
      25     1     1     2     0     0  8.331455135E+02 -3.747506926E+02  7.777627142E+02  1.206279142E+03  1.250000000E+02  0.00000E+00  9.000E+00
      21     1     1     2   501   511  1.654630907E+02  9.836301762E+01  6.448803703E+02  6.729962925E+02  1.525878906E-05  0.00000E+00  9.000E+00
#rwgt            1           1   7.0199619260043020E-002           4      316186           0
</event>
<event>
      5   9999  3.19816E-02  2.20461E+01 -1.00000E+00  1.62953E-01
      21    -1     0     0   502   501  0.000000000E+00  0.000000000E+00  4.267047372E+01  4.267047372E+01  0.000000000E+00  0.00000E+00  9.000E+00
      21    -1     0     0   501   512  0.000000000E+00  0.000000000E+00 -8.178054413E+02  8.178054413E+02  0.000000000E+00  0.00000E+00  9.000E+00
      25     1     1     2     0     0 -1.314249037E+01 -1.353433883E+01 -6.267202921E+02  6.393428094E+02  1.250000000E+02  0.00000E+00  9.000E+00
      25     1     1     2     0     0 -7.027311196E+00  2.243440533E+01 -8.243871734E+01  1.515711970E+02  1.250000000E+02  0.00000E+00  9.000E+00
      21     1     1     2   502   512  2.016980157E+01 -8.900066507E+00 -6.597595813E+01  6.956190862E+01  0.000000000E+00  0.00000E+00  9.000E+00
#rwgt            1           1   2.5020825059958833E-002           4      316282           0
</event>
<event>
      5   9999  3.19816E-02  7.95409E+01 -1.00000E+00  1.28471E-01
      21    -1     0     0   502   511  0.000000000E+00  0.000000000E+00  8.465626451E+02  8.465626451E+02  0.000000000E+00  0.00000E+00  9.000E+00
      21    -1     0     0   501   502  0.000000000E+00  0.000000000E+00 -1.322960825E+02  1.322960825E+02  0.000000000E+00  0.00000E+00  9.000E+00
      25     1     1     2     0     0  2.366830226E+00  2.718266246E+02  4.282894258E+02  5.224482252E+02  1.250000000E+02  0.00000E+00  9.000E+00
      25     1     1     2     0     0  1.540641465E+01 -1.942968051E+02  9.637934039E+01  2.508038743E+02  1.250000000E+02  0.00000E+00  9.000E+00
      21     1     1     2   501   511 -1.777324488E+01 -7.752981950E+01  1.895977964E+02  2.056066281E+02  2.697398305E-06  0.00000E+00  9.000E+00
#rwgt            1           1   2.5234130379308103E-002           4      316395           0
</event>
<event>
      5   9999  3.19816E-02  1.14579E+02 -1.00000E+00  1.21227E-01
      21    -1     0     0   502   512  0.000000000E+00  0.000000000E+00  7.168130735E+02  7.168130735E+02  0.000000000E+00  0.00000E+00  9.000E+00
      21    -1     0     0   501   502  0.000000000E+00  0.000000000E+00 -2.424676914E+02  2.424676914E+02  0.000000000E+00  0.00000E+00  9.000E+00
      25     1     1     2     0     0  1.546432094E+02  2.785668208E+02  5.219272941E+01  3.462124736E+02  1.250000000E+02  0.00000E+00  9.000E+00
      25     1     1     2     0     0 -4.168123403E+01 -2.977496434E+02  2.724790760E+02  4.245727526E+02  1.250000000E+02  0.00000E+00  9.000E+00
      21     1     1     2   501   512 -1.129619754E+02  1.918282259E+01  1.496735766E+02  1.884955387E+02  1.907348633E-06  0.00000E+00  9.000E+00
#rwgt            1           1   2.7147848673481245E-002           4      316435           0
</event>
<event>
      5   9999  3.19816E-02  5.21500E+01 -1.00000E+00  1.38040E-01
      21    -1     0     0   502   501  0.000000000E+00  0.000000000E+00  9.350079188E+02  9.350079188E+02  0.000000000E+00  0.00000E+00  9.000E+00
       1    -1     0     0   501     0  0.000000000E+00  0.000000000E+00 -3.235971826E+02  3.235971826E+02  0.000000000E+00  0.00000E+00  9.000E+00
      25     1     1     2     0     0  3.954512986E+02  2.835506478E+02  3.096395490E+02  5.901562079E+02  1.250000000E+02  0.00000E+00  9.000E+00
      25     1     1     2     0     0 -3.481763733E+02 -3.055665695E+02  3.527435881E+02  5.955256118E+02  1.250000000E+02  0.00000E+00  9.000E+00
       1     1     1     2   502     0 -4.727492526E+01  2.201592168E+01 -5.097240089E+01  7.292328173E+01  9.536743164E-07  0.00000E+00  9.000E+00
#rwgt            1           1   2.5994709060523827E-002           4      316471           0
</event>
<event>
      5   9999  3.19816E-02  5.85422E+01 -1.00000E+00  1.35277E-01
      21    -1     0     0   502   501  0.000000000E+00  0.000000000E+00  1.211551711E+03  1.211551711E+03  0.000000000E+00  0.00000E+00  9.000E+00
      21    -1     0     0   501   511  0.000000000E+00  0.000000000E+00 -1.365259796E+02  1.365259796E+02  0.000000000E+00  0.00000E+00  9.000E+00
      25     1     1     2     0     0  2.697588384E+02  1.731736749E+02  5.738827124E+02  6.691227990E+02  1.250000000E+02  0.00000E+00  9.000E+00
      25     1     1     2     0     0 -3.281353937E+02 -1.775742122E+02  4.688832737E+02  6.121127035E+02  1.250000000E+02  0.00000E+00  9.000E+00
      21     1     1     2   502   511  5.837655534E+01  4.400537240E+00  3.225974532E+01  6.684218810E+01  1.168007728E-06  0.00000E+00  9.000E+00
#rwgt            1           1   2.8662748820783870E-002           4      316607           0
</event>
<event>
      5   9999  3.19816E-02  5.45685E+02 -1.00000E+00  9.77851E-02
       2    -1     0     0   502     0  0.000000000E+00  0.000000000E+00  5.014370595E+02  5.014370595E+02  0.000000000E+00  0.00000E+00  9.000E+00
      21    -1     0     0   501   502  0.000000000E+00  0.000000000E+00 -1.636150718E+03  1.636150718E+03  0.000000000E+00  0.00000E+00  9.000E+00
      25     1     1     2     0     0  4.585023346E+02 -6.167795117E+02 -8.294367423E+02  1.137643031E+03  1.250000000E+02  0.00000E+00  9.000E+00
      25     1     1     2     0     0 -3.229181399E+02  8.820704299E+01 -2.794956803E+02  4.536512348E+02  1.250000000E+02  0.00000E+00  9.000E+00
       2     1     1     2   501     0 -1.355841947E+02  5.285724687E+02 -2.578123574E+01  5.462935115E+02  5.672157885E-06  0.00000E+00  9.000E+00
#rwgt            2          18   3.0218524768509976E-004           4      316683           0
</event>
<event>
      5   9999  3.19816E-02  8.06994E+01 -1.00000E+00  1.28167E-01
      21    -1     0     0   502   501  0.000000000E+00  0.000000000E+00  2.801352771E+02  2.801352771E+02  0.000000000E+00  0.00000E+00  9.000E+00
      21    -1     0     0   501   511  0.000000000E+00  0.000000000E+00 -4.817389462E+02  4.817389462E+02  0.000000000E+00  0.00000E+00  9.000E+00
      25     1     1     2     0     0  2.029464024E+02 -4.745658304E+01 -2.742651110E+02  3.664501612E+02  1.250000000E+02  0.00000E+00  9.000E+00
      25     1     1     2     0     0 -1.411317290E+02  9.933467137E+01  1.673915436E+02  2.709805726E+02  1.250000000E+02  0.00000E+00  9.000E+00
      21     1     1     2   502   511 -6.181467341E+01 -5.187808833E+01 -9.473010174E+01  1.244434895E+02  1.348699152E-06  0.00000E+00  9.000E+00
#rwgt            1           1   2.6590552939871608E-002           4      316702           0
</event>
<event>
      5   9999  3.19816E-02  1.86825E+01 -1.00000E+00  1.68848E-01
      21    -1     0     0   502   501  0.000000000E+00  0.000000000E+00  1.839872657E+02  1.839872657E+02  0.000000000E+00  0.00000E+00  9.000E+00
      21    -1     0     0   501   512  0.000000000E+00  0.000000000E+00 -3.079641534E+02  3.079641534E+02  0.000000000E+00  0.00000E+00  9.000E+00
      25     1     1     2     0     0  1.415865977E+02  1.485962097E+01 -1.729725887E+02  2.565386705E+02  1.250000000E+02  0.00000E+00  9.000E+00
      25     1     1     2     0     0 -1.321394346E+02 -3.097757534E+01  7.847756664E+01  2.005097724E+02  1.250000000E+02  0.00000E+00  9.000E+00
      21     1     1     2   502   512 -9.447163117E+00  1.611795438E+01 -2.948186564E+01  3.490297617E+01  0.000000000E+00  0.00000E+00  9.000E+00
#rwgt            1           1   2.7243930221107025E-002           4      316796           0
</event>
<event>
      5   9999  3.19816E-02  1.74953E+01 -1.00000E+00  1.71311E-01
      21    -1     0     0   502   501  0.000000000E+00  0.000000000E+00  2.664492913E+02  2.664492913E+02  0.000000000E+00  0.00000E+00  9.000E+00
      21    -1     0     0   511   502  0.000000000E+00  0.000000000E+00 -1.742735406E+02  1.742735406E+02  0.000000000E+00  0.00000E+00  9.000E+00
      25     1     1     2     0     0  1.546989414E+02 -5.919213710E+01  4.888975495E+01  2.131916502E+02  1.250000000E+02  0.00000E+00  9.000E+00
      25     1     1     2     0     0 -1.483164799E+02  4.290261834E+01  5.542032037E+01  2.062397265E+02  1.250000000E+02  0.00000E+00  9.000E+00
      21     1     1     2   511   501 -6.382461513E+00  1.628951876E+01 -1.213432461E+01  2.129145533E+01  3.371747881E-07  0.00000E+00  9.000E+00
#rwgt            1           1   2.8416404611839800E-002           4      316988           0
</event>
<event>
      5   9999  3.19816E-02  1.06480E+02 -1.00000E+00  1.22614E-01
      21    -1     0     0   502   501  0.000000000E+00  0.000000000E+00  1.281543666E+03  1.281543666E+03  0.000000000E+00  0.00000E+00  9.000E+00
      21    -1     0     0   501   512  0.000000000E+00  0.000000000E+00 -1.558401411E+02  1.558401411E+02  0.000000000E+00  0.00000E+00  9.000E+00
      25     1     1     2     0     0 -2.819724104E+02  1.654412920E+02  3.828667213E+02  5.187400000E+02  1.250000000E+02  0.00000E+00  9.000E+00
      25     1     1     2     0     0  3.867514470E+02 -1.464837654E+02  6.253984477E+02  7.601199863E+02  1.250000000E+02  0.00000E+00  9.000E+00
      21     1     1     2   502   512 -1.047790365E+02 -1.895752665E+01  1.174383560E+02  1.585238209E+02  1.907348633E-06  0.00000E+00  9.000E+00
#rwgt            1           1   2.8263740873548091E-002           4      317173           0
</event>
<event>
      5   9999  3.19816E-02  4.56420E+01 -1.00000E+00  1.41374E-01
       3    -1     0     0   502     0  0.000000000E+00  0.000000000E+00  6.733944900E+02  6.733944900E+02  0.000000000E+00  0.00000E+00  9.000E+00
      21    -1     0     0   501   502  0.000000000E+00  0.000000000E+00 -8.507405626E+02  8.507405626E+02  0.000000000E+00  0.00000E+00  9.000E+00
      25     1     1     2     0     0 -1.788748821E+02  5.975765778E+01 -6.778145421E+02  7.145801247E+02  1.250000000E+02  0.00000E+00  9.000E+00
      25     1     1     2     0     0  1.447095432E+02 -9.002178664E+01 -8.096732321E+01  2.263304694E+02  1.250000000E+02  0.00000E+00  9.000E+00
       3     1     1     2   501     0  3.416533895E+01  3.026412886E+01  5.814357928E+02  5.832244585E+02  1.321449896E-05  0.00000E+00  9.000E+00
#rwgt            1           1   2.9339129855268733E-002           4      317271           0
</event>
<event>
      5   9999  3.19816E-02  1.92005E+02 -1.00000E+00  1.12297E-01
      21    -1     0     0   502   501  0.000000000E+00  0.000000000E+00  7.703512930E+02  7.703512930E+02  0.000000000E+00  0.00000E+00  9.000E+00
      21    -1     0     0   501   511  0.000000000E+00  0.000000000E+00 -3.938478025E+02  3.938478025E+02  0.000000000E+00  0.00000E+00  9.000E+00
      25     1     1     2     0     0  2.711113640E+02  4.272666124E+02  6.422699193E+01  5.251744817E+02  1.250000000E+02  0.00000E+00  9.000E+00
      25     1     1     2     0     0 -1.167979075E+02 -3.130159053E+02  2.555780804E+02  4.388232712E+02  1.250000000E+02  0.00000E+00  9.000E+00
      21     1     1     2   502   511 -1.543134565E+02 -1.142507072E+02  5.669841817E+01  2.002013426E+02  3.303624740E-06  0.00000E+00  9.000E+00
#rwgt            2          11   4.5918728004221377E-003           4      317375           0
</event>
<event>
      5   9999  3.19816E-02  8.69947E+01 -1.00000E+00  1.26612E-01
      21    -1     0     0   502   501  0.000000000E+00  0.000000000E+00  4.340920546E+02  4.340920546E+02  0.000000000E+00  0.00000E+00  9.000E+00
      21    -1     0     0   512   502  0.000000000E+00  0.000000000E+00 -4.206271089E+02  4.206271089E+02  0.000000000E+00  0.00000E+00  9.000E+00
      25     1     1     2     0     0  2.210614806E+02 -1.533696990E+02 -1.744090812E+02  3.441423693E+02  1.250000000E+02  0.00000E+00  9.000E+00
      25     1     1     2     0     0 -2.872007557E+02  2.098822420E+02  1.927356234E+02  4.234463957E+02  1.250000000E+02  0.00000E+00  9.000E+00
      21     1     1     2   512   501  6.613927510E+01 -5.651254294E+01 -4.861596475E+00  8.713039849E+01  6.610474888E-07  0.00000E+00  9.000E+00
#rwgt            1           1   2.9329135969188045E-002           4      317410           0
</event>
<event>
      5   9999  3.19816E-02  1.31034E+02 -1.00000E+00  1.18769E-01
      21    -1     0     0   502   501  0.000000000E+00  0.000000000E+00  6.366252781E+02  6.366252781E+02  0.000000000E+00  0.00000E+00  9.000E+00
      21    -1     0     0   501   511  0.000000000E+00  0.000000000E+00 -3.815999580E+02  3.815999580E+02  0.000000000E+00  0.00000E+00  9.000E+00
      25     1     1     2     0     0 -2.430947834E+02 -2.993297925E+02  1.965437479E+02  4.504973288E+02  1.250000000E+02  0.00000E+00  9.000E+00
      25     1     1     2     0     0  2.842154635E+02  1.749150593E+02  1.707615189E+02  3.951685767E+02  1.250000000E+02  0.00000E+00  9.000E+00
      21     1     1     2   502   511 -4.112068015E+01  1.244147332E+02 -1.122799467E+02  1.725593307E+02  2.697398305E-06  0.00000E+00  9.000E+00
#rwgt            2          11   3.1103414216882030E-003           4      317524           0
</event>
<event>
      5   9999  3.19816E-02  2.28502E+02 -1.00000E+00  1.09581E-01
       2    -1     0     0   502     0  0.000000000E+00  0.000000000E+00  2.315440609E+03  2.315440609E+03  0.000000000E+00  0.00000E+00  9.000E+00
      21    -1     0     0   501   502  0.000000000E+00  0.000000000E+00 -2.755826454E+02  2.755826454E+02  0.000000000E+00  0.00000E+00  9.000E+00
      25     1     1     2     0     0 -1.379659861E+02 -1.660821543E+02 -1.989922640E+02  3.191250796E+02  1.250000000E+02  0.00000E+00  9.000E+00
      25     1     1     2     0     0 -4.703086631E+01  3.195725006E+01  5.160002100E+02  5.339610332E+02  1.250000000E+02  0.00000E+00  9.000E+00
       2     1     1     2   501     0  1.849968524E+02  1.341249043E+02  1.722850018E+03  1.737937142E+03  2.157918644E-05  0.00000E+00  9.000E+00
#rwgt            2          18   2.1545569993869649E-003           4      317664           0
</event>
<event>
      5   9999  3.19816E-02  1.24931E+02 -1.00000E+00  1.19631E-01
      21    -1     0     0   502   501  0.000000000E+00  0.000000000E+00  8.774171234E+02  8.774171234E+02  0.000000000E+00  0.00000E+00  9.000E+00
      21    -1     0     0   501   511  0.000000000E+00  0.000000000E+00 -2.479923857E+03  2.479923857E+03  0.000000000E+00  0.00000E+00  9.000E+00
      25     1     1     2     0     0 -2.961235737E+02 -1.129247596E+02 -6.243251738E+01  3.463581838E+02  1.250000000E+02  0.00000E+00  9.000E+00
      25     1     1     2     0     0  4.081157765E+02  5.755878374E+01  6.704839199E+02  7.968972251E+02  1.250000000E+02  0.00000E+00  9.000E+00
      21     1     1     2   502   511 -1.119922028E+02  5.536597587E+01 -2.210558136E+03  2.214085571E+03  3.051757812E-05  0.00000E+00  9.000E+00
#rwgt            2          11   4.6024733337795259E-003           4      317773           0
</event>
<event>
      5   9999  3.19816E-02  1.35574E+01 -1.00000E+00  1.81623E-01
      21    -1     0     0   502   512  0.000000000E+00  0.000000000E+00  8.358924091E+02  8.358924091E+02  0.000000000E+00  0.00000E+00  9.000E+00
      21    -1     0     0   501   502  0.000000000E+00  0.000000000E+00 -1.768259854E+02  1.768259854E+02  0.000000000E+00  0.00000E+00  9.000E+00
      25     1     1     2     0     0 -2.438499420E+02 -2.063547541E+02  4.223953649E+02  5.441396172E+02  1.250000000E+02  0.00000E+00  9.000E+00
      25     1     1     2     0     0  2.458688987E+02  2.197610310E+02  1.540304448E+02  3.848334757E+02  1.250000000E+02  0.00000E+00  9.000E+00
      21     1     1     2   501   512 -2.018956636E+00 -1.340627689E+01  8.264061409E+01  8.374530161E+01  1.907348633E-06  0.00000E+00  9.000E+00
#rwgt            1           1   2.8515654860760062E-002           4      317793           0
</event>
<event>
      5   9999  3.19816E-02  3.33020E+02 -1.00000E+00  1.04139E-01
      21    -1     0     0   502   501  0.000000000E+00  0.000000000E+00  1.200611717E+03  1.200611717E+03  0.000000000E+00  0.00000E+00  9.000E+00
      21    -1     0     0   501   511  0.000000000E+00  0.000000000E+00 -6.019704905E+02  6.019704905E+02  0.000000000E+00  0.00000E+00  9.000E+00
      25     1     1     2     0     0 -1.455411682E+02 -3.136908387E+02 -2.079402139E+02  4.224314222E+02  1.250000000E+02  0.00000E+00  9.000E+00
      25     1     1     2     0     0 -1.827602647E+02  2.578288014E+02  9.563949634E+02  1.014984399E+03  1.250000000E+02  0.00000E+00  9.000E+00
      21     1     1     2   502   511  3.283014329E+02  5.586203727E+01 -1.498135227E+02  3.651663862E+02  7.387129490E-06  0.00000E+00  9.000E+00
#rwgt            2          11   3.9840802508495747E-003           4      318045           0
</event>
<event>
      5   9999  3.19816E-02  3.28449E+01 -1.00000E+00  1.50356E-01
      21    -1     0     0   512   501  0.000000000E+00  0.000000000E+00  2.734423706E+02  2.734423706E+02  0.000000000E+00  0.00000E+00  9.000E+00
      21    -1     0     0   501   502  0.000000000E+00  0.000000000E+00 -6.244965918E+02  6.244965918E+02  0.000000000E+00  0.00000E+00  9.000E+00
      25     1     1     2     0     0  3.517909790E+02  6.521197130E+01 -1.152063308E+02  3.961148732E+02  1.250000000E+02  0.00000E+00  9.000E+00
      25     1     1     2     0     0 -3.845830663E+02 -6.707466478E+01 -2.221313198E+02  4.662300599E+02  1.250000000E+02  0.00000E+00  9.000E+00
      21     1     1     2   512   502  3.279208726E+01  1.862693485E+00 -1.371657053E+01  3.559402929E+01  4.129530925E-07  0.00000E+00  9.000E+00
#rwgt            1           1   3.0910727599140882E-002           4      318080           0
</event>
<event>
      5   9999  3.19816E-02  1.50934E+02 -1.00000E+00  1.16287E-01
      21    -1     0     0   502   501  0.000000000E+00  0.000000000E+00  7.671921387E+01  7.671921387E+01  0.000000000E+00  0.00000E+00  9.000E+00
       2    -1     0     0   501     0  0.000000000E+00  0.000000000E+00 -3.613519668E+03  3.613519668E+03  0.000000000E+00  0.00000E+00  9.000E+00
      25     1     1     2     0     0 -3.549067489E+01 -1.013888035E+02 -8.952301889E+01  1.875597196E+02  1.250000000E+02  0.00000E+00  9.000E+00
      25     1     1     2     0     0 -7.293013741E+01  2.063939411E+02 -3.219984550E+03  3.229836338E+03  1.250000000E+02  0.00000E+00  9.000E+00
       2     1     1     2   502     0  1.084208123E+02 -1.050051376E+02 -2.272928853E+02  2.728428250E+02  6.031565972E-06  0.00000E+00  9.000E+00
#rwgt            1           1   2.8672155877800157E-002           4      318220           0
</event>
<event>
      5   9999  3.19816E-02  1.81348E+01 -1.00000E+00  1.69955E-01
      21    -1     0     0   511   501  0.000000000E+00  0.000000000E+00  1.267743624E+03  1.267743624E+03  0.000000000E+00  0.00000E+00  9.000E+00
      21    -1     0     0   501   502  0.000000000E+00  0.000000000E+00 -1.570496226E+02  1.570496226E+02  0.000000000E+00  0.00000E+00  9.000E+00
      25     1     1     2     0     0 -2.980504721E+02 -1.990191741E+02  2.167959115E+02  4.371134668E+02  1.250000000E+02  0.00000E+00  9.000E+00
      25     1     1     2     0     0  3.161851605E+02  1.989675436E+02  7.963351285E+02  8.884457080E+02  1.250000000E+02  0.00000E+00  9.000E+00
      21     1     1     2   511   502 -1.813468835E+01  5.163048002E-02  9.756296153E+01  9.923407202E+01  1.348699152E-06  0.00000E+00  9.000E+00
#rwgt            1           1   2.9161759458898335E-002           4      318267           0
</event>
<event>
      5   9999  3.19816E-02  3.77069E+01 -1.00000E+00  1.46448E-01
      21    -1     0     0   512   501  0.000000000E+00  0.000000000E+00  2.685909203E+03  2.685909203E+03  0.000000000E+00  0.00000E+00  9.000E+00
      21    -1     0     0   501   502  0.000000000E+00  0.000000000E+00 -7.074769764E+01  7.074769764E+01  0.000000000E+00  0.00000E+00  9.000E+00
      25     1     1     2     0     0 -4.576952720E+01 -4.108642540E+01  3.738696092E+02  3.989817398E+02  1.250000000E+02  0.00000E+00  9.000E+00
      25     1     1     2     0     0  7.486992601E+01  6.506506043E+01  5.167373675E+01  1.677323552E+02  1.250000000E+02  0.00000E+00  9.000E+00
      21     1     1     2   512   502 -2.910039881E+01 -2.397863503E+01  2.189618160E+03  2.189942806E+03  4.315837288E-05  0.00000E+00  9.000E+00
#rwgt            1           1   3.0735752310285046E-002           4      318462           0
</event>
<event>
      5   9999  3.48170E-02  1.05982E+02 -1.00000E+00  1.22704E-01
      21    -1     0     0   502   501  0.000000000E+00  0.000000000E+00  2.249149157E+01  2.249149157E+01  0.000000000E+00  0.00000E+00  9.000E+00
       2    -1     0     0   501     0  0.000000000E+00  0.000000000E+00 -2.591776853E+03  2.591776853E+03  0.000000000E+00  0.00000E+00  9.000E+00
      25     1     1     2     0     0  1.323861985E+02 -2.044741043E+01 -5.336926859E+02  5.642668563E+02  1.250000000E+02  0.00000E+00  9.000E+00
      25     1     1     2     0     0 -2.644173674E+01  2.325029730E+01 -1.354675419E+03  1.360885826E+03  1.250000000E+02  0.00000E+00  9.000E+00
       2     1     1     2   502     0 -1.059444617E+02 -2.802886872E+00 -6.809172570E+02  6.891156623E+02  7.629394531E-06  0.00000E+00  9.000E+00
#rwgt            1           1  0.10662051444245960                4      318544           0
</event>
<event>
      5   9999  3.19816E-02  1.29263E+02 -1.00000E+00  1.19013E-01
      21    -1     0     0   502   501  0.000000000E+00  0.000000000E+00  1.537803564E+03  1.537803564E+03  0.000000000E+00  0.00000E+00  9.000E+00
      21    -1     0     0   501   511  0.000000000E+00  0.000000000E+00 -9.216330095E+02  9.216330095E+02  0.000000000E+00  0.00000E+00  9.000E+00
      25     1     1     2     0     0  6.002497838E+02  7.919297284E+02  4.358151350E+02  1.092251038E+03  1.250000000E+02  0.00000E+00  9.000E+00
      25     1     1     2     0     0 -6.964954208E+02 -8.782177561E+02  3.244882495E+02  1.173579960E+03  1.250000000E+02  0.00000E+00  9.000E+00
      21     1     1     2   502   511  9.624563703E+01  8.628802767E+01 -1.441328298E+02  1.936055759E+02  3.814697266E-06  0.00000E+00  9.000E+00
#rwgt            2          11   7.1477889086662303E-003           4      318593           0
</event>
<event>
      5   9999  3.19816E-02  3.08855E+01 -1.00000E+00  1.52168E-01
      21    -1     0     0   512   501  0.000000000E+00  0.000000000E+00  5.998901063E+02  5.998901063E+02  0.000000000E+00  0.00000E+00  9.000E+00
      21    -1     0     0   501   502  0.000000000E+00  0.000000000E+00 -1.378979028E+03  1.378979028E+03  0.000000000E+00  0.00000E+00  9.000E+00
      25     1     1     2     0     0  1.556325799E+02 -8.267336534E+02 -2.021130165E+02  8.741765869E+02  1.250000000E+02  0.00000E+00  9.000E+00
      25     1     1     2     0     0 -1.267464659E+02  8.158018880E+02 -6.281710188E+02  1.044902491E+03  1.250000000E+02  0.00000E+00  9.000E+00
      21     1     1     2   512   502 -2.888611406E+01  1.093176538E+01  5.119511407E+01  5.979005590E+01  1.348699152E-06  0.00000E+00  9.000E+00
#rwgt            1           1   3.0011013134458812E-002           4      318613           0
</event>
<event>
      5   9999  3.19816E-02  9.05799E+01 -1.00000E+00  1.25792E-01
      21    -1     0     0   511   501  0.000000000E+00  0.000000000E+00  9.198095871E+01  9.198095871E+01  0.000000000E+00  0.00000E+00  9.000E+00
      21    -1     0     0   501   502  0.000000000E+00  0.000000000E+00 -2.024825992E+03  2.024825992E+03  0.000000000E+00  0.00000E+00  9.000E+00
      25     1     1     2     0     0  8.962099500E+01 -2.616480685E+02 -7.076630180E+02  7.700023256E+02  1.250000000E+02  0.00000E+00  9.000E+00
      25     1     1     2     0     0 -5.479761003E+01  3.452665988E+02 -1.194975815E+03  1.251320902E+03  1.250000000E+02  0.00000E+00  9.000E+00
      21     1     1     2   511   502 -3.482338497E+01 -8.361853032E+01 -3.020620033E+01  9.548372266E+01  1.305872339E-06  0.00000E+00  9.000E+00
#rwgt            1           1   3.2691585941888889E-002           4      318835           0
</event>
<event>
      5   9999  3.19816E-02  1.92346E+02 -1.00000E+00  1.12268E-01
      21    -1     0     0   502   512  0.000000000E+00  0.000000000E+00  3.527238213E+02  3.527238213E+02  0.000000000E+00  0.00000E+00  9.000E+00
      21    -1     0     0   501   502  0.000000000E+00  0.000000000E+00 -3.582860544E+02  3.582860544E+02  0.000000000E+00  0.00000E+00  9.000E+00
      25     1     1     2     0     0  8.572860323E+01  2.117027767E+02 -8.936570730E+01  2.752792922E+02  1.250000000E+02  0.00000E+00  9.000E+00
      25     1     1     2     0     0 -5.059082736E+01 -2.259363357E+01 -1.002251055E+02  1.695286875E+02  1.250000000E+02  0.00000E+00  9.000E+00
      21     1     1     2   501   512 -3.513777587E+01 -1.891091431E+02  1.840285797E+02  2.662018960E+02  0.000000000E+00  0.00000E+00  9.000E+00
#rwgt            1           1   2.6345000763949057E-002           4      318950           0
</event>
<event>
      5   9999  3.19816E-02  1.73827E+02 -1.00000E+00  1.13911E-01
      21    -1     0     0   502   501  0.000000000E+00  0.000000000E+00  1.286809807E+03  1.286809807E+03  0.000000000E+00  0.00000E+00  9.000E+00
      21    -1     0     0   501   511  0.000000000E+00  0.000000000E+00 -2.658007829E+02  2.658007829E+02  0.000000000E+00  0.00000E+00  9.000E+00
      25     1     1     2     0     0  1.011033211E+00  2.961410621E+02  3.247496950E-02  3.214429217E+02  1.250000000E+02  0.00000E+00  9.000E+00
      25     1     1     2     0     0  1.554337938E+02 -2.203734165E+02  1.014579727E+03  1.057223311E+03  1.250000000E+02  0.00000E+00  9.000E+00
      21     1     1     2   502   511 -1.564448270E+02 -7.576764559E+01  6.396822063E+00  1.739443570E+02  1.372201971E-06  0.00000E+00  9.000E+00
#rwgt            1           1   2.3915555119138607E-002           4      318997           0
</event>
<event>
      5   9999  3.19816E-02  7.81030E+00 -1.00000E+00  2.09043E-01
      21    -1     0     0   502   512  0.000000000E+00  0.000000000E+00  1.866273795E+02  1.866273795E+02  0.000000000E+00  0.00000E+00  9.000E+00
      21    -1     0     0   501   502  0.000000000E+00  0.000000000E+00 -3.417638807E+02  3.417638807E+02  0.000000000E+00  0.00000E+00  9.000E+00
      25     1     1     2     0     0  1.132858587E+02 -1.021941045E+02 -2.347062256E+02  3.065767981E+02  1.250000000E+02  0.00000E+00  9.000E+00
      25     1     1     2     0     0 -1.154151330E+02  9.467965086E+01  6.497256031E+01  2.052591601E+02  1.250000000E+02  0.00000E+00  9.000E+00
      21     1     1     2   501   512  2.129274247E+00  7.514453632E+00  1.459716411E+01  1.655530194E+01  2.920019320E-07  0.00000E+00  9.000E+00
#rwgt            1           1   2.9182234422998037E-002           4      319057           0
</event>
<event>
      5   9999  3.19816E-02  5.08188E+01 -1.00000E+00  1.38674E-01
      21    -1     0     0   502   501  0.000000000E+00  0.000000000E+00  1.758396359E+03  1.758396359E+03  0.000000000E+00  0.00000E+00  9.000E+00
      21    -1     0     0   511   502  0.000000000E+00  0.000000000E+00 -8.141035277E+02  8.141035277E+02  0.000000000E+00  0.00000E+00  9.000E+00
      25     1     1     2     0     0 -5.078869499E+02  8.559001045E+02  5.832459484E+02  1.160308140E+03  1.250000000E+02  0.00000E+00  9.000E+00
      25     1     1     2     0     0  5.585095012E+02 -8.603620728E+02  5.816643950E+02  1.185796874E+03  1.250000000E+02  0.00000E+00  9.000E+00
      21     1     1     2   511   501 -5.062255134E+01  4.461968272E+00 -2.206175119E+02  2.263948728E+02  0.000000000E+00  0.00000E+00  9.000E+00
#rwgt            1           1   2.9032482473570841E-002           4      319310           0
</event>
<event>
      5   9999  3.19816E-02  5.19714E+01 -1.00000E+00  1.38124E-01
      21    -1     0     0   502   512  0.000000000E+00  0.000000000E+00  9.601131636E+02  9.601131636E+02  0.000000000E+00  0.00000E+00  9.000E+00
      21    -1     0     0   501   502  0.000000000E+00  0.000000000E+00 -1.009701787E+03  1.009701787E+03  0.000000000E+00  0.00000E+00  9.000E+00
      25     1     1     2     0     0  6.682074661E+02 -6.847219486E+02 -3.306676035E+01  9.654345008E+02  1.250000000E+02  0.00000E+00  9.000E+00
      25     1     1     2     0     0 -6.192556153E+02  7.021788080E+02 -4.405219407E+01  9.455676556E+02  1.250000000E+02  0.00000E+00  9.000E+00
      21     1     1     2   501   512 -4.895185083E+01 -1.745685944E+01  2.753033101E+01  5.881279425E+01  9.536743164E-07  0.00000E+00  9.000E+00
#rwgt            1           1   3.5880587897996793E-002           4      319461           0
</event>
<event>
      5   9999  3.19816E-02  2.86874E+01 -1.00000E+00  1.54402E-01
      21    -1     0     0   502   501  0.000000000E+00  0.000000000E+00  2.021767508E+02  2.021767508E+02  0.000000000E+00  0.00000E+00  9.000E+00
      21    -1     0     0   501   511  0.000000000E+00  0.000000000E+00 -5.445515220E+02  5.445515220E+02  0.000000000E+00  0.00000E+00  9.000E+00
      25     1     1     2     0     0 -7.816824210E+01 -1.580485355E+01 -4.475706964E+02  4.714918830E+02  1.250000000E+02  0.00000E+00  9.000E+00
      25     1     1     2     0     0  7.240184531E+01  4.390675496E+01  1.558716302E+02  2.170041369E+02  1.250000000E+02  0.00000E+00  9.000E+00
      21     1     1     2   502   511  5.766396788E+00 -2.810190142E+01 -5.067570500E+01  5.823225285E+01  6.743495762E-07  0.00000E+00  9.000E+00
#rwgt            1           1   2.7897833163428299E-002           4      319648           0
</event>
<event>
      5   9999  3.19816E-02  8.38618E+01 -1.00000E+00  1.27366E-01
      21    -1     0     0   502   501  0.000000000E+00  0.000000000E+00  5.631064255E+02  5.631064255E+02  0.000000000E+00  0.00000E+00  9.000E+00
      -2    -1     0     0     0   502  0.000000000E+00  0.000000000E+00 -3.324627131E+02  3.324627131E+02  0.000000000E+00  0.00000E+00  9.000E+00
      25     1     1     2     0     0 -3.471802255E+01 -3.443017632E+02  3.317582866E+02  4.954165984E+02  1.250000000E+02  0.00000E+00  9.000E+00
      25     1     1     2     0     0 -4.360166079E+00  2.701014254E+02 -1.064588354E+02  3.161206648E+02  1.250000000E+02  0.00000E+00  9.000E+00
      -2     1     1     2     0   501  3.907818863E+01  7.420033783E+01  5.344261213E+00  8.403187543E+01  2.577513255E-06  0.00000E+00  9.000E+00
#rwgt            1           1   2.6928920502486128E-002           4      319886           0
</event>
<event>
      5   9999  3.19816E-02  2.93717E+01 -1.00000E+00  1.53681E-01
      21    -1     0     0   502   511  0.000000000E+00  0.000000000E+00  1.850352440E+02  1.850352440E+02  0.000000000E+00  0.00000E+00  9.000E+00
      21    -1     0     0   501   502  0.000000000E+00  0.000000000E+00 -6.278805956E+02  6.278805956E+02  0.000000000E+00  0.00000E+00  9.000E+00
      25     1     1     2     0     0 -1.998428664E+02 -1.114969803E+02 -4.214854289E+02  4.956245702E+02  1.250000000E+02  0.00000E+00  9.000E+00
      25     1     1     2     0     0  2.260663087E+02  1.247268182E+02 -1.507244659E+01  2.872541275E+02  1.250000000E+02  0.00000E+00  9.000E+00
      21     1     1     2   501   511 -2.622344234E+01 -1.322983787E+01 -6.287476074E+00  3.003714190E+01  4.129530925E-07  0.00000E+00  9.000E+00
#rwgt            1           1   2.5737182924758066E-002           4      319986           0
</event>
<event>
      5   9999  3.19816E-02  2.81708E+01 -1.00000E+00  1.54962E-01
      21    -1     0     0   512   501  0.000000000E+00  0.000000000E+00  2.728573590E+02  2.728573590E+02  0.000000000E+00  0.00000E+00  9.000E+00
      21    -1     0     0   501   502  0.000000000E+00  0.000000000E+00 -5.062345062E+02  5.062345062E+02  0.000000000E+00  0.00000E+00  9.000E+00
      25     1     1     2     0     0  1.567678709E+02  1.521609834E+02 -3.178399053E+02  4.054335157E+02  1.250000000E+02  0.00000E+00  9.000E+00
      25     1     1     2     0     0 -1.341848582E+02 -1.690014254E+02 -3.418198680E+01  2.517150496E+02  1.250000000E+02  0.00000E+00  9.000E+00
      21     1     1     2   512   502 -2.258301274E+01  1.684044196E+01  1.186447448E+02  1.219433000E+02  1.348699152E-06  0.00000E+00  9.000E+00
#rwgt            1           1   2.8593061621545540E-002           4      320132           0
</event>
<event>
      5   9999  3.19816E-02  2.84137E+01 -1.00000E+00  1.54697E-01
      21    -1     0     0   502   501  0.000000000E+00  0.000000000E+00  2.755901554E+02  2.755901554E+02  0.000000000E+00  0.00000E+00  9.000E+00
      21    -1     0     0   501   511  0.000000000E+00  0.000000000E+00 -7.191535574E+02  7.191535574E+02  0.000000000E+00  0.00000E+00  9.000E+00
      25     1     1     2     0     0 -5.057211212E+00 -3.604342426E+02 -3.194876002E+02  4.976301290E+02  1.250000000E+02  0.00000E+00  9.000E+00
      25     1     1     2     0     0 -6.698116407E+00  3.863021354E+02 -3.961978988E+01  4.080060445E+02  1.250000000E+02  0.00000E+00  9.000E+00
      21     1     1     2   502   511  1.175532762E+01 -2.586789281E+01 -8.445601191E+01  8.910753926E+01  9.536743164E-07  0.00000E+00  9.000E+00
#rwgt            1           1   2.9876303330739606E-002           4      320234           0
</event>
<event>
      5   9999  3.19816E-02  9.45763E+01 -1.00000E+00  1.24927E-01
       2    -1     0     0   502     0  0.000000000E+00  0.000000000E+00  2.565000051E+03  2.565000051E+03  0.000000000E+00  0.00000E+00  9.000E+00
      21    -1     0     0   501   502  0.000000000E+00  0.000000000E+00 -5.468443247E+02  5.468443247E+02  0.000000000E+00  0.00000E+00  9.000E+00
      25     1     1     2     0     0 -3.600281958E+02 -8.865915245E+02  5.343645122E+02  1.103102563E+03  1.250000000E+02  0.00000E+00  9.000E+00
      25     1     1     2     0     0  4.536503571E+02  8.999915160E+02  7.341295371E+02  1.253137883E+03  1.250000000E+02  0.00000E+00  9.000E+00
       2     1     1     2   501     0 -9.362216133E+01 -1.339999149E+01  7.496616768E+02  7.556039297E+02  1.525878906E-05  0.00000E+00  9.000E+00
#rwgt            1           1   3.4193960654506583E-002           4      320417           0
</event>
<event>
      5   9999  3.19816E-02  4.06760E+01 -1.00000E+00  1.44390E-01
      21    -1     0     0   502   501  0.000000000E+00  0.000000000E+00  1.221603865E+02  1.221603865E+02  0.000000000E+00  0.00000E+00  9.000E+00
      21    -1     0     0   511   502  0.000000000E+00  0.000000000E+00 -1.654545431E+03  1.654545431E+03  0.000000000E+00  0.00000E+00  9.000E+00
      25     1     1     2     0     0 -1.542752459E+00 -3.601240624E+02 -1.149886737E+03  1.211427352E+03  1.250000000E+02  0.00000E+00  9.000E+00
      25     1     1     2     0     0 -1.631010391E+00  3.195720228E+02 -2.443360437E+02  4.212529409E+02  1.250000000E+02  0.00000E+00  9.000E+00
      21     1     1     2   511   501  3.173762850E+00  4.055203957E+01 -1.381622640E+02  1.440255251E+02  2.697398305E-06  0.00000E+00  9.000E+00
#rwgt            1           1   2.9105181768575565E-002           4      320567           0
</event>
<event>
      5   9999  3.19816E-02  2.74846E+02 -1.00000E+00  1.06843E-01
      21    -1     0     0   502   501  0.000000000E+00  0.000000000E+00  3.787195863E+02  3.787195863E+02  0.000000000E+00  0.00000E+00  9.000E+00
       1    -1     0     0   501     0  0.000000000E+00  0.000000000E+00 -2.709434652E+03  2.709434652E+03  0.000000000E+00  0.00000E+00  9.000E+00
      25     1     1     2     0     0 -2.328682335E+02 -6.725443722E+02 -3.287726382E+02  7.938891575E+02  1.250000000E+02  0.00000E+00  9.000E+00
      25     1     1     2     0     0  9.437223033E+01  4.351435082E+02 -2.595475440E+02  5.303262375E+02  1.250000000E+02  0.00000E+00  9.000E+00
       1     1     1     2   502     0  1.384960031E+02  2.374008640E+02 -1.742394883E+03  1.763938843E+03  0.000000000E+00  0.00000E+00  9.000E+00
#rwgt            1           1   3.0329084233321878E-002           4      320693           0
</event>
<event>
      5   9999  3.19816E-02  2.30328E+02 -1.00000E+00  1.09460E-01
       2    -1     0     0   502     0  0.000000000E+00  0.000000000E+00  1.670341442E+03  1.670341442E+03  0.000000000E+00  0.00000E+00  9.000E+00
      21    -1     0     0   501   502  0.000000000E+00  0.000000000E+00 -2.401469007E+02  2.401469007E+02  0.000000000E+00  0.00000E+00  9.000E+00
      25     1     1     2     0     0  8.089675568E+01  3.109922629E+02  6.169899256E+02  7.067970295E+02  1.250000000E+02  0.00000E+00  9.000E+00
      25     1     1     2     0     0 -1.042914476E+02 -5.401288522E+02  2.949999747E+02  6.366049545E+02  1.250000000E+02  0.00000E+00  9.000E+00
       2     1     1     2   501     0  2.339469192E+01  2.291365893E+02  5.182046408E+02  5.670863584E+02  1.078959322E-05  0.00000E+00  9.000E+00
#rwgt            1           1   2.7449354033429987E-002           4      320756           0
</event>
<event>
      5   9999  3.19816E-02  1.71932E+02 -1.00000E+00  1.14092E-01
      21    -1     0     0   511   501  0.000000000E+00  0.000000000E+00  1.702519166E+03  1.702519166E+03  0.000000000E+00  0.00000E+00  9.000E+00
      21    -1     0     0   501   502  0.000000000E+00  0.000000000E+00 -1.268589881E+02  1.268589881E+02  0.000000000E+00  0.00000E+00  9.000E+00
      25     1     1     2     0     0  7.013428662E+01 -8.429699299E+00 -1.445521079E+01  1.443046469E+02  1.250000000E+02  0.00000E+00  9.000E+00
      25     1     1     2     0     0 -5.513076325E+01  1.797059026E+02  2.618315511E+02  3.457085097E+02  1.250000000E+02  0.00000E+00  9.000E+00
      21     1     1     2   511   502 -1.500352337E+01 -1.712762033E+02  1.328283838E+03  1.339364998E+03  0.000000000E+00  0.00000E+00  9.000E+00
#rwgt            2          11   1.9044958333807509E-003           4      320982           0
</event>
<event>
      5   9999  3.19816E-02  2.19473E+01 -1.00000E+00  1.63107E-01
      21    -1     0     0   512   501  0.000000000E+00  0.000000000E+00  7.126208357E+02  7.126208357E+02  0.000000000E+00  0.00000E+00  9.000E+00
      21    -1     0     0   501   502  0.000000000E+00  0.000000000E+00 -1.891122408E+02  1.891122408E+02  0.000000000E+00  0.00000E+00  9.000E+00
      25     1     1     2     0     0  2.449268139E+02  1.271427201E+02  1.248810745E+02  3.276807870E+02  1.250000000E+02  0.00000E+00  9.000E+00
      25     1     1     2     0     0 -2.257043405E+02 -1.165511411E+02  1.424354937E+02  3.169218952E+02  1.250000000E+02  0.00000E+00  9.000E+00
      21     1     1     2   512   502 -1.922247337E+01 -1.059157897E+01  2.561920268E+02  2.571303942E+02  5.394796609E-06  0.00000E+00  9.000E+00
#rwgt            1           1   2.8591780639694069E-002           4      321002           0
</event>
<event>
      5   9999  3.19816E-02  9.73405E+01 -1.00000E+00  1.24357E-01
      21    -1     0     0   502   511  0.000000000E+00  0.000000000E+00  4.461099485E+02  4.461099485E+02  0.000000000E+00  0.00000E+00  9.000E+00
      21    -1     0     0   501   502  0.000000000E+00  0.000000000E+00 -9.029491467E+02  9.029491467E+02  0.000000000E+00  0.00000E+00  9.000E+00
      25     1     1     2     0     0  1.378785279E+02 -3.007192152E+02  2.049339175E+02  4.087364008E+02  1.250000000E+02  0.00000E+00  9.000E+00
      25     1     1     2     0     0 -1.542184020E+02  2.047599074E+02 -7.540592647E+02  8.061887557E+02  1.250000000E+02  0.00000E+00  9.000E+00
      21     1     1     2   501   511  1.633987411E+01  9.595930778E+01  9.228614898E+01  1.341339388E+02  2.336015456E-06  0.00000E+00  9.000E+00
#rwgt            2          11   4.0898500511408146E-003           4      321180           0
</event>
<event>
      5   9999  3.19816E-02  4.51796E+01 -1.00000E+00  1.41635E-01
      21    -1     0     0   502   501  0.000000000E+00  0.000000000E+00  1.672063620E+03  1.672063620E+03  0.000000000E+00  0.00000E+00  9.000E+00
      21    -1     0     0   512   502  0.000000000E+00  0.000000000E+00 -2.817735719E+02  2.817735719E+02  0.000000000E+00  0.00000E+00  9.000E+00
      25     1     1     2     0     0  3.523522803E+02  3.859885108E+01  5.597289921E+02  6.742132788E+02  1.250000000E+02  0.00000E+00  9.000E+00
      25     1     1     2     0     0 -3.789629780E+02 -2.087680925E+00  1.014529421E+03  1.090189086E+03  1.250000000E+02  0.00000E+00  9.000E+00
      21     1     1     2   512   501  2.661069778E+01 -3.651117016E+01 -1.839683644E+02  1.894348276E+02  0.000000000E+00  0.00000E+00  9.000E+00
#rwgt            1           1   2.6179840743586799E-002           4      321230           0
</event>
<event>
      5   9999  3.19816E-02  3.79909E+02 -1.00000E+00  1.02363E-01
      21    -1     0     0   502   501  0.000000000E+00  0.000000000E+00  2.248883473E+03  2.248883473E+03  0.000000000E+00  0.00000E+00  9.000E+00
      21    -1     0     0   511   502  0.000000000E+00  0.000000000E+00 -5.368481778E+02  5.368481778E+02  0.000000000E+00  0.00000E+00  9.000E+00
      25     1     1     2     0     0 -4.581536828E+02  8.847863179E+02  7.698352989E+02  1.265315381E+03  1.250000000E+02  0.00000E+00  9.000E+00
      25     1     1     2     0     0  1.564164013E+02 -6.539500211E+02  9.111091332E+02  1.139237277E+03  1.250000000E+02  0.00000E+00  9.000E+00
      21     1     1     2   511   501  3.017372815E+02 -2.308362969E+02  3.109086308E+01  3.811789931E+02  6.598640682E-06  0.00000E+00  9.000E+00
#rwgt            1           1   3.4434020679674049E-002           4      321400           0
</event>
<event>
      5   9999  3.19816E-02  9.88452E+01 -1.00000E+00  1.24055E-01
      21    -1     0     0   502   512  0.000000000E+00  0.000000000E+00  9.654531941E+02  9.654531941E+02  0.000000000E+00  0.00000E+00  9.000E+00
      21    -1     0     0   501   502  0.000000000E+00  0.000000000E+00 -1.620512917E+02  1.620512917E+02  0.000000000E+00  0.00000E+00  9.000E+00
      25     1     1     2     0     0  1.433652102E+02  1.306443206E+02  5.522018441E+01  2.372673403E+02  1.250000000E+02  0.00000E+00  9.000E+00
      25     1     1     2     0     0 -2.373973084E+02 -1.001757958E+02  2.433361982E+02  3.758060370E+02  1.250000000E+02  0.00000E+00  9.000E+00
      21     1     1     2   501   512  9.403209819E+01 -3.046852476E+01  5.048455198E+02  5.144311085E+02  9.344061824E-06  0.00000E+00  9.000E+00
#rwgt            1           1   2.7197412688702630E-002           4      321464           0
</event>
<event>
      5   9999  3.19816E-02  5.06904E+01 -1.00000E+00  1.38737E-01
      21    -1     0     0   502   501  0.000000000E+00  0.000000000E+00  6.219175330E+02  6.219175330E+02  0.000000000E+00  0.00000E+00  9.000E+00
      21    -1     0     0   511   502  0.000000000E+00  0.000000000E+00 -6.576326951E+02  6.576326951E+02  0.000000000E+00  0.00000E+00  9.000E+00
      25     1     1     2     0     0  3.834231151E+02 -2.158722555E+02 -1.266887410E+01  4.576020282E+02  1.250000000E+02  0.00000E+00  9.000E+00
      25     1     1     2     0     0 -3.449464435E+02  1.828712976E+02  2.917077391E+02  5.031385152E+02  1.250000000E+02  0.00000E+00  9.000E+00
      21     1     1     2   511   501 -3.847667155E+01  3.300095782E+01 -3.147540271E+02  3.188096847E+02  3.814697266E-06  0.00000E+00  9.000E+00
#rwgt            1           1   2.6777091950406090E-002           4      321555           0
</event>
<event>
      5   9999  3.19816E-02  2.91618E+01 -1.00000E+00  1.53900E-01
      21    -1     0     0   502   512  0.000000000E+00  0.000000000E+00  6.134414012E+01  6.134414012E+01  0.000000000E+00  0.00000E+00  9.000E+00
      21    -1     0     0   501   502  0.000000000E+00  0.000000000E+00 -8.298733790E+02  8.298733790E+02  0.000000000E+00  0.00000E+00  9.000E+00
      25     1     1     2     0     0 -7.716129343E+01  5.273091002E+01 -6.546727675E+02  6.730199451E+02  1.250000000E+02  0.00000E+00  9.000E+00
      25     1     1     2     0     0  4.906746996E+01 -6.055051226E+01 -6.436586049E+01  1.607543005E+02  1.250000000E+02  0.00000E+00  9.000E+00
      21     1     1     2   501   512  2.809382347E+01  7.819602236E+00 -4.949061090E+01  5.744327344E+01  6.743495762E-07  0.00000E+00  9.000E+00
#rwgt            1           1   2.3498200736996367E-002           4      321673           0
</event>
<event>
      5   9999  3.19816E-02  1.35961E+02 -1.00000E+00  1.18110E-01
      21    -1     0     0   502   511  0.000000000E+00  0.000000000E+00  2.484576483E+02  2.484576483E+02  0.000000000E+00  0.00000E+00  9.000E+00
      21    -1     0     0   501   502  0.000000000E+00  0.000000000E+00 -1.981245112E+03  1.981245112E+03  0.000000000E+00  0.00000E+00  9.000E+00
      25     1     1     2     0     0 -2.660512117E+02  4.290132262E-01 -1.695755252E+03  1.721044539E+03  1.250000000E+02  0.00000E+00  9.000E+00
      25     1     1     2     0     0  2.619615733E+02 -1.363283668E+02 -1.277752174E+02  3.451967492E+02  1.250000000E+02  0.00000E+00  9.000E+00
      21     1     1     2   501   511  4.089638347E+00  1.358993535E+02  9.074300618E+01  1.634614713E+02  2.336015456E-06  0.00000E+00  9.000E+00
#rwgt            2          11   5.1580156883061883E-003           4      321970           0
</event>
<event>
      5   9999  3.19816E-02  1.22017E+02 -1.00000E+00  1.20062E-01
      21    -1     0     0   502   501  0.000000000E+00  0.000000000E+00  1.019346391E+02  1.019346391E+02  0.000000000E+00  0.00000E+00  9.000E+00
       2    -1     0     0   501     0  0.000000000E+00  0.000000000E+00 -1.979005353E+03  1.979005353E+03  0.000000000E+00  0.00000E+00  9.000E+00
      25     1     1     2     0     0  8.992835841E+01  2.320231073E+02 -1.821087882E+02  3.327317880E+02  1.250000000E+02  0.00000E+00  9.000E+00
      25     1     1     2     0     0 -2.045560040E+02 -1.902070966E+02 -1.191149872E+03  1.229831255E+03  1.250000000E+02  0.00000E+00  9.000E+00
       2     1     1     2   502     0  1.146276456E+02 -4.181601074E+01 -5.038120536E+02  5.183769490E+02  5.394796609E-06  0.00000E+00  9.000E+00
#rwgt            1           1   2.7385537987060414E-002           4      321990           0
</event>
<event>
      5   9999  3.19816E-02  2.16985E+01 -1.00000E+00  1.63500E-01
      21    -1     0     0   502   501  0.000000000E+00  0.000000000E+00  1.663296489E+03  1.663296489E+03  0.000000000E+00  0.00000E+00  9.000E+00
      21    -1     0     0   501   511  0.000000000E+00  0.000000000E+00 -2.222914030E+02  2.222914030E+02  0.000000000E+00  0.00000E+00  9.000E+00
      25     1     1     2     0     0 -4.882553177E+01  3.639974113E+02  1.223405986E+02  4.067803708E+02  1.250000000E+02  0.00000E+00  9.000E+00
      25     1     1     2     0     0  6.501676710E+01 -3.495520185E+02  1.371155854E+03  1.422008147E+03  1.250000000E+02  0.00000E+00  9.000E+00
      21     1     1     2   502   511 -1.619123534E+01 -1.444539278E+01 -5.249136610E+01  5.679937490E+01  1.348699152E-06  0.00000E+00  9.000E+00
#rwgt            1           1   3.1050331549888018E-002           4      322073           0
</event>
<event>
      5   9999  3.19816E-02  2.02130E+01 -1.00000E+00  1.65990E-01
      21    -1     0     0   502   501  0.000000000E+00  0.000000000E+00  2.361995664E+03  2.361995664E+03  0.000000000E+00  0.00000E+00  9.000E+00
      21    -1     0     0   512   502  0.000000000E+00  0.000000000E+00 -4.211976834E+01  4.211976834E+01  0.000000000E+00  0.00000E+00  9.000E+00
      25     1     1     2     0     0 -1.278163049E+02 -1.820474280E+02  5.479992031E+02  6.044885445E+02  1.250000000E+02  0.00000E+00  9.000E+00
      25     1     1     2     0     0  1.164304867E+02  1.653462369E+02  1.760404388E+03  1.776385106E+03  1.250000000E+02  0.00000E+00  9.000E+00
      21     1     1     2   512   501  1.138581815E+01  1.670119103E+01  1.147230438E+01  2.324178144E+01  5.840038640E-07  0.00000E+00  9.000E+00
#rwgt            1           1   7.0380473748938119E-002           4      322280           0
</event>
<event>
      5   9999  3.19816E-02  6.24626E+01 -1.00000E+00  1.33776E-01
      21    -1     0     0   502   501  0.000000000E+00  0.000000000E+00  7.731845428E+02  7.731845428E+02  0.000000000E+00  0.00000E+00  9.000E+00
      21    -1     0     0   511   502  0.000000000E+00  0.000000000E+00 -7.934597254E+02  7.934597254E+02  0.000000000E+00  0.00000E+00  9.000E+00
      25     1     1     2     0     0  2.654414256E+01 -7.196624104E+02  2.165986954E+02  7.623375705E+02  1.250000000E+02  0.00000E+00  9.000E+00
      25     1     1     2     0     0 -6.395031833E+01  6.696388201E+02 -1.553692050E+02  7.016198276E+02  1.250000000E+02  0.00000E+00  9.000E+00
      21     1     1     2   511   501  3.740617577E+01  5.002359032E+01 -8.150467306E+01  1.026868702E+02  9.536743164E-07  0.00000E+00  9.000E+00
#rwgt            1           1   2.1732115478781656E-002           4      322453           0
</event>
<event>
      5   9999  3.19816E-02  3.57137E+01 -1.00000E+00  1.47961E-01
      21    -1     0     0   512   501  0.000000000E+00  0.000000000E+00  6.834184323E+02  6.834184323E+02  0.000000000E+00  0.00000E+00  9.000E+00
      21    -1     0     0   501   502  0.000000000E+00  0.000000000E+00 -3.607967001E+02  3.607967001E+02  0.000000000E+00  0.00000E+00  9.000E+00
      25     1     1     2     0     0 -1.103313825E+02 -5.602645470E+00  1.017363726E+02  1.953962464E+02  1.250000000E+02  0.00000E+00  9.000E+00
      25     1     1     2     0     0  1.360159621E+02  3.041743653E+01 -2.853722066E+02  3.413031771E+02  1.250000000E+02  0.00000E+00  9.000E+00
      21     1     1     2   512   502 -2.568457966E+01 -2.481479106E+01  5.062575662E+02  5.075157089E+02  0.000000000E+00  0.00000E+00  9.000E+00
#rwgt            1           1   2.5996133306313656E-002           4      322616           0
</event>
<event>
      5   9999  3.19816E-02  8.23061E+01 -1.00000E+00  1.27755E-01
      21    -1     0     0   502   501  0.000000000E+00  0.000000000E+00  1.364165858E+03  1.364165858E+03  0.000000000E+00  0.00000E+00  9.000E+00
      21    -1     0     0   511   502  0.000000000E+00  0.000000000E+00 -1.839684560E+02  1.839684560E+02  0.000000000E+00  0.00000E+00  9.000E+00
      25     1     1     2     0     0  1.732871271E+02  3.003321987E+02  7.934350660E+02  8.748668824E+02  1.250000000E+02  0.00000E+00  9.000E+00
      25     1     1     2     0     0 -2.555927263E+02 -3.006113116E+02  4.151211950E+02  5.862127676E+02  1.250000000E+02  0.00000E+00  9.000E+00
      21     1     1     2   511   501  8.230559920E+01  2.791128281E-01 -2.835885934E+01  8.705466367E+01  2.023048729E-06  0.00000E+00  9.000E+00
#rwgt            1           1   3.2201911024633809E-002           4      322694           0
</event>
<event>
      5   9999  3.19816E-02  2.33839E+02 -1.00000E+00  1.09231E-01
      21    -1     0     0   502   501  0.000000000E+00  0.000000000E+00  1.112890013E+03  1.112890013E+03  0.000000000E+00  0.00000E+00  9.000E+00
      21    -1     0     0   512   502  0.000000000E+00  0.000000000E+00 -1.527004065E+03  1.527004065E+03  0.000000000E+00  0.00000E+00  9.000E+00
      25     1     1     2     0     0  1.555000018E+01  6.452549474E+02  6.690665793E+02  9.380143054E+02  1.250000000E+02  0.00000E+00  9.000E+00
      25     1     1     2     0     0  7.148062886E+01 -4.282149591E+02  1.270206739E+02  4.692939198E+02  1.250000000E+02  0.00000E+00  9.000E+00
      21     1     1     2   512   501 -8.703062904E+01 -2.170399883E+02 -1.210201305E+03  1.232585853E+03  2.157918644E-05  0.00000E+00  9.000E+00
#rwgt            2          11   4.0917450491208748E-003           4      322868           0
</event>
<event>
      5   9999  3.19816E-02  6.97499E+01 -1.00000E+00  1.31299E-01
       1    -1     0     0   502     0  0.000000000E+00  0.000000000E+00  3.429522921E+02  3.429522921E+02  0.000000000E+00  0.00000E+00  9.000E+00
      21    -1     0     0   501   502  0.000000000E+00  0.000000000E+00 -9.365194765E+02  9.365194765E+02  0.000000000E+00  0.00000E+00  9.000E+00
      25     1     1     2     0     0  3.533320684E+01 -3.269064878E+01 -7.196711553E+02  7.320305224E+02  1.250000000E+02  0.00000E+00  9.000E+00
      25     1     1     2     0     0 -8.638743985E+01  8.021453736E+01 -1.709097470E+02  2.423474848E+02  1.250000000E+02  0.00000E+00  9.000E+00
       1     1     1     2   501     0  5.105423301E+01 -4.752388858E+01  2.970137178E+02  3.050937614E+02  6.607249480E-06  0.00000E+00  9.000E+00
#rwgt            1           1   3.4057657898755908E-002           4      322888           0
</event>
<event>
      5   9999  3.19816E-02  2.73967E+01 -1.00000E+00  1.55829E-01
      21    -1     0     0   502   511  0.000000000E+00  0.000000000E+00  1.190025961E+03  1.190025961E+03  0.000000000E+00  0.00000E+00  9.000E+00
      21    -1     0     0   501   502  0.000000000E+00  0.000000000E+00 -1.852406112E+03  1.852406112E+03  0.000000000E+00  0.00000E+00  9.000E+00
      25     1     1     2     0     0 -2.328785847E+02 -2.616302601E+02 -2.798310408E+02  4.654172747E+02  1.250000000E+02  0.00000E+00  9.000E+00
      25     1     1     2     0     0  2.602739561E+02  2.613613167E+02 -1.453978880E+03  1.505234817E+03  1.250000000E+02  0.00000E+00  9.000E+00
      21     1     1     2   501   511 -2.739537139E+01  2.689433796E-01  1.071429770E+03  1.071779982E+03  2.642899792E-05  0.00000E+00  9.000E+00
#rwgt            1           1   2.9843548424681426E-002           4      322929           0
</event>
<event>
      5   9999  3.19816E-02  6.28365E+01 -1.00000E+00  1.33640E-01
      21    -1     0     0   512   501  0.000000000E+00  0.000000000E+00  2.671026603E+02  2.671026603E+02  0.000000000E+00  0.00000E+00  9.000E+00
      21    -1     0     0   501   502  0.000000000E+00  0.000000000E+00 -6.353856768E+02  6.353856768E+02  0.000000000E+00  0.00000E+00  9.000E+00
      25     1     1     2     0     0  3.366195465E+02  6.696981732E+01 -9.945831687E+01  3.785691909E+02  1.250000000E+02  0.00000E+00  9.000E+00
      25     1     1     2     0     0 -2.738893102E+02 -6.331690953E+01 -3.192421663E+02  4.433564548E+02  1.250000000E+02  0.00000E+00  9.000E+00
      21     1     1     2   512   502 -6.273023631E+01 -3.652907787E+00  5.041746674E+01  8.056269134E+01  1.907348633E-06  0.00000E+00  9.000E+00
#rwgt            1           1   3.1620520041136989E-002           4      323110           0
</event>
<event>
      5   9999  3.19816E-02  1.04811E+02 -1.00000E+00  1.22917E-01
      21    -1     0     0   502   501  0.000000000E+00  0.000000000E+00  1.522641341E+03  1.522641341E+03  0.000000000E+00  0.00000E+00  9.000E+00
      21    -1     0     0   511   502  0.000000000E+00  0.000000000E+00 -1.597785253E+03  1.597785253E+03  0.000000000E+00  0.00000E+00  9.000E+00
      25     1     1     2     0     0  2.112867327E+02 -1.475937690E+02  6.066659169E+02  6.708908546E+02  1.250000000E+02  0.00000E+00  9.000E+00
      25     1     1     2     0     0 -1.367787126E+02  2.213086230E+02  8.584699950E+02  9.056940185E+02  1.250000000E+02  0.00000E+00  9.000E+00
      21     1     1     2   511   501 -7.450802003E+01 -7.371485399E+01 -1.540279824E+03  1.543841721E+03  0.000000000E+00  0.00000E+00  9.000E+00
#rwgt            1           1   2.9779882176231467E-002           4      323236           0
</event>
<event>
      5   9999  3.19816E-02  1.15370E+01 -1.00000E+00  1.88843E-01
      21    -1     0     0   502   501  0.000000000E+00  0.000000000E+00  7.480182969E+02  7.480182969E+02  0.000000000E+00  0.00000E+00  9.000E+00
      21    -1     0     0   501   512  0.000000000E+00  0.000000000E+00 -7.004043019E+02  7.004043019E+02  0.000000000E+00  0.00000E+00  9.000E+00
      25     1     1     2     0     0 -1.386251360E+02 -2.808881012E+02 -5.629853579E+01  3.419204276E+02  1.250000000E+02  0.00000E+00  9.000E+00
      25     1     1     2     0     0  1.477957020E+02  2.738878290E+02  5.586638713E+02  6.516045070E+02  1.250000000E+02  0.00000E+00  9.000E+00
      21     1     1     2   502   512 -9.170566012E+00  7.000272128E+00 -4.547513406E+02  4.548976642E+02  7.629394531E-06  0.00000E+00  9.000E+00
#rwgt            1           1   2.9524189052699826E-002           4      323294           0
</event>
<event>
      5   9999  3.19816E-02  5.93093E+01 -1.00000E+00  1.34973E-01
      21    -1     0     0   502   511  0.000000000E+00  0.000000000E+00  7.677555476E+02  7.677555476E+02  0.000000000E+00  0.00000E+00  9.000E+00
      21    -1     0     0   501   502  0.000000000E+00  0.000000000E+00 -1.903163058E+03  1.903163058E+03  0.000000000E+00  0.00000E+00  9.000E+00
      25     1     1     2     0     0  2.752644377E+02 -1.000905718E+03 -1.201294708E+03  1.592581785E+03  1.250000000E+02  0.00000E+00  9.000E+00
      25     1     1     2     0     0 -3.160423711E+02  9.578389041E+02  5.354824004E+01  1.017757614E+03  1.250000000E+02  0.00000E+00  9.000E+00
      21     1     1     2   501   511  4.077793345E+01  4.306681416E+01  1.233895768E+01  6.057920613E+01  5.591411304E-07  0.00000E+00  9.000E+00
#rwgt            1           1   5.8964355572346729E-002           4      323610           0
</event>
<event>
      5   9999  3.19816E-02  1.66746E+01 -1.00000E+00  1.73160E-01
      21    -1     0     0   502   501  0.000000000E+00  0.000000000E+00  2.472673568E+02  2.472673568E+02  0.000000000E+00  0.00000E+00  9.000E+00
      21    -1     0     0   501   512  0.000000000E+00  0.000000000E+00 -6.851509746E+02  6.851509746E+02  0.000000000E+00  0.00000E+00  9.000E+00
      25     1     1     2     0     0  2.961805501E+02 -1.706400258E+02 -1.085033470E+02  3.797879842E+02  1.250000000E+02  0.00000E+00  9.000E+00
      25     1     1     2     0     0 -2.940928242E+02  1.871834193E+02 -1.975257910E+02  4.197256959E+02  1.250000000E+02  0.00000E+00  9.000E+00
      21     1     1     2   502   512 -2.087725885E+00 -1.654339347E+01 -1.318544798E+02  1.329046512E+02  2.697398305E-06  0.00000E+00  9.000E+00
#rwgt            1           1   2.8557080836089637E-002           4      323707           0
</event>
<event>
      5   9999  3.19816E-02  2.12841E+01 -1.00000E+00  1.64170E-01
      21    -1     0     0   502   501  0.000000000E+00  0.000000000E+00  1.248868660E+03  1.248868660E+03  0.000000000E+00  0.00000E+00  9.000E+00
      21    -1     0     0   501   511  0.000000000E+00  0.000000000E+00 -8.069656742E+02  8.069656742E+02  0.000000000E+00  0.00000E+00  9.000E+00
      25     1     1     2     0     0 -3.656176289E+02  7.626604186E+02 -2.786099756E+02  8.992083647E+02  1.250000000E+02  0.00000E+00  9.000E+00
      25     1     1     2     0     0  3.562922358E+02 -7.817928029E+02  7.290405307E+02  1.133697155E+03  1.250000000E+02  0.00000E+00  9.000E+00
      21     1     1     2   502   511  9.325393064E+00  1.913238429E+01 -8.527569368E+00  2.292881427E+01  4.129530925E-07  0.00000E+00  9.000E+00
#rwgt            1           1   3.5656020387929872E-002           4      323936           0
</event>
<event>
      5   9999  3.19816E-02  3.37492E+01 -1.00000E+00  1.49571E-01
      21    -1     0     0   502   512  0.000000000E+00  0.000000000E+00  5.772872448E+02  5.772872448E+02  0.000000000E+00  0.00000E+00  9.000E+00
      21    -1     0     0   501   502  0.000000000E+00  0.000000000E+00 -1.396698791E+03  1.396698791E+03  0.000000000E+00  0.00000E+00  9.000E+00
      25     1     1     2     0     0  9.297990405E+01  8.340684493E+02 -2.058179711E+02  8.730987790E+02  1.250000000E+02  0.00000E+00  9.000E+00
      25     1     1     2     0     0 -6.121599210E+01 -8.226639249E+02 -6.451462446E+02  1.054685739E+03  1.250000000E+02  0.00000E+00  9.000E+00
      21     1     1     2   501   512 -3.176391195E+01 -1.140452442E+01  3.155266958E+01  4.620151769E+01  6.743495762E-07  0.00000E+00  9.000E+00
#rwgt            1           1   2.9787534136807806E-002           4      324136           0
</event>
<event>
      5   9999  3.19816E-02  2.06047E+01 -1.00000E+00  1.65309E-01
      21    -1     0     0   502   511  0.000000000E+00  0.000000000E+00  4.376692308E+01  4.376692308E+01  0.000000000E+00  0.00000E+00  9.000E+00
      21    -1     0     0   501   502  0.000000000E+00  0.000000000E+00 -7.280377667E+02  7.280377667E+02  0.000000000E+00  0.00000E+00  9.000E+00
      25     1     1     2     0     0 -8.270793873E+01 -7.207603459E+01 -2.649046021E+02  3.127858790E+02  1.250000000E+02  0.00000E+00  9.000E+00
      25     1     1     2     0     0  9.264016935E+01  5.402321413E+01 -3.877777323E+02  4.213042586E+02  1.250000000E+02  0.00000E+00  9.000E+00
      21     1     1     2   501   511 -9.932230628E+00  1.805282046E+01 -3.158850925E+01  3.771455221E+01  3.371747881E-07  0.00000E+00  9.000E+00
#rwgt            1           1   3.0589530073886314E-002           4      324304           0
</event>
<event>
      5   9999  3.19816E-02  2.04741E+02 -1.00000E+00  1.11279E-01
      21    -1     0     0   502   501  0.000000000E+00  0.000000000E+00  1.467159094E+03  1.467159094E+03  0.000000000E+00  0.00000E+00  9.000E+00
      21    -1     0     0   512   502  0.000000000E+00  0.000000000E+00 -1.306076641E+03  1.306076641E+03  0.000000000E+00  0.00000E+00  9.000E+00
      25     1     1     2     0     0 -3.175499184E+02 -8.157751653E+02 -4.654497874E+02  9.992975411E+02  1.250000000E+02  0.00000E+00  9.000E+00
      25     1     1     2     0     0  1.277190011E+02  7.390737335E+02  1.054187324E+03  1.299799231E+03  1.250000000E+02  0.00000E+00  9.000E+00
      21     1     1     2   512   501  1.898309173E+02  7.670143177E+01 -4.276550829E+02  4.741389636E+02  5.394796609E-06  0.00000E+00  9.000E+00
#rwgt            2          11   3.7722288849282469E-003           4      324501           0
</event>
<event>
      5   9999  3.19816E-02  1.26189E+02 -1.00000E+00  1.19449E-01
      21    -1     0     0   502   501  0.000000000E+00  0.000000000E+00  1.103211793E+02  1.103211793E+02  0.000000000E+00  0.00000E+00  9.000E+00
      21    -1     0     0   511   502  0.000000000E+00  0.000000000E+00 -2.009550667E+03  2.009550667E+03  0.000000000E+00  0.00000E+00  9.000E+00
      25     1     1     2     0     0 -3.215285715E+01 -3.577496594E+02 -7.275314960E+02  8.209419606E+02  1.250000000E+02  0.00000E+00  9.000E+00
      25     1     1     2     0     0 -9.236259638E+01  3.782315906E+02 -7.004240780E+02  8.110541748E+02  1.250000000E+02  0.00000E+00  9.000E+00
      21     1     1     2   511   501  1.245154535E+02 -2.048193124E+01 -4.712739140E+02  4.878757113E+02  0.000000000E+00  0.00000E+00  9.000E+00
#rwgt            1           1   2.7354809647987206E-002           4      324611           0
</event>
<event>
      5   9999  3.19816E-02  4.40959E+02 -1.00000E+00  1.00427E-01
       2    -1     0     0   502     0  0.000000000E+00  0.000000000E+00  2.231219854E+03  2.231219854E+03  0.000000000E+00  0.00000E+00  9.000E+00
      21    -1     0     0   501   502  0.000000000E+00  0.000000000E+00 -1.377382779E+02  1.377382779E+02  0.000000000E+00  0.00000E+00  9.000E+00
      25     1     1     2     0     0 -2.015003808E+02  7.351848619E+01  8.544515226E+02  8.897863653E+02  1.250000000E+02  0.00000E+00  9.000E+00
      25     1     1     2     0     0 -2.383176226E+02 -1.052158086E+02  2.027804329E+02  3.530022090E+02  1.250000000E+02  0.00000E+00  9.000E+00
       2     1     1     2   501     0  4.398180034E+02  3.169732237E+01  1.036249620E+03  1.126169557E+03  1.525878906E-05  0.00000E+00  9.000E+00
#rwgt            1           1   3.1001570012605340E-002           4      324693           0
</event>
<event>
      5   9999  3.19816E-02  5.67981E+01 -1.00000E+00  1.35989E-01
       2    -1     0     0   502     0  0.000000000E+00  0.000000000E+00  2.136991875E+03  2.136991875E+03  0.000000000E+00  0.00000E+00  9.000E+00
      21    -1     0     0   501   502  0.000000000E+00  0.000000000E+00 -8.780760101E+02  8.780760101E+02  0.000000000E+00  0.00000E+00  9.000E+00
      25     1     1     2     0     0  4.718009205E+02 -6.273144463E+02  1.472622573E+02  8.083506019E+02  1.250000000E+02  0.00000E+00  9.000E+00
      25     1     1     2     0     0 -4.692724179E+02  6.840562287E+02 -2.252350116E+02  8.686226665E+02  1.250000000E+02  0.00000E+00  9.000E+00
       2     1     1     2   501     0 -2.528502638E+00 -5.674178237E+01  1.336888619E+03  1.338094617E+03  0.000000000E+00  0.00000E+00  9.000E+00
#rwgt            1           1   3.1683556493847569E-002           4      324736           0
</event>
<event>
      5   9999  3.19816E-02  3.68931E+01 -1.00000E+00  1.47052E-01
      21    -1     0     0   502   511  0.000000000E+00  0.000000000E+00  8.988887035E+02  8.988887035E+02  0.000000000E+00  0.00000E+00  9.000E+00
      21    -1     0     0   501   502  0.000000000E+00  0.000000000E+00 -5.159238207E+01  5.159238207E+01  0.000000000E+00  0.00000E+00  9.000E+00
      25     1     1     2     0     0  6.536163497E+00 -2.180177441E+01  8.053269791E+01  1.504279038E+02  1.250000000E+02  0.00000E+00  9.000E+00
      25     1     1     2     0     0 -4.334167374E+01  2.434247436E+01  2.674195945E+02  2.993481189E+02  1.250000000E+02  0.00000E+00  9.000E+00
      21     1     1     2   501   511  3.680551024E+01 -2.540699952E+00  4.993440290E+02  5.007050629E+02  7.629394531E-06  0.00000E+00  9.000E+00
#rwgt            1           1   2.1485381948354480E-002           4      324900           0
</event>
<event>
      5   9999  3.19816E-02  8.36390E+01 -1.00000E+00  1.27421E-01
      21    -1     0     0   502   501  0.000000000E+00  0.000000000E+00  2.028611867E+02  2.028611867E+02  0.000000000E+00  0.00000E+00  9.000E+00
      21    -1     0     0   501   512  0.000000000E+00  0.000000000E+00 -1.343498407E+03  1.343498407E+03  0.000000000E+00  0.00000E+00  9.000E+00
      25     1     1     2     0     0  2.077650626E+02 -3.245865920E+02 -1.405824759E+02  4.288487023E+02  1.250000000E+02  0.00000E+00  9.000E+00
      25     1     1     2     0     0 -2.463152324E+02  2.503615171E+02 -5.819111812E+02  6.910844419E+02  1.250000000E+02  0.00000E+00  9.000E+00
      21     1     1     2   502   512  3.855016980E+01  7.422507490E+01 -4.181435628E+02  4.264264491E+02  7.629394531E-06  0.00000E+00  9.000E+00
#rwgt            1           1   2.9281510138279499E-002           4      324982           0
</event>
<event>
      5   9999  3.19816E-02  7.01543E+01 -1.00000E+00  1.31172E-01
      21    -1     0     0   502   501  0.000000000E+00  0.000000000E+00  2.138311064E+02  2.138311064E+02  0.000000000E+00  0.00000E+00  9.000E+00
      21    -1     0     0   501   511  0.000000000E+00  0.000000000E+00 -4.161098311E+02  4.161098311E+02  0.000000000E+00  0.00000E+00  9.000E+00
      25     1     1     2     0     0  1.656816761E+00  9.160539221E+01  1.431958527E+02  2.110079268E+02  1.250000000E+02  0.00000E+00  9.000E+00
      25     1     1     2     0     0  3.626201168E+00 -2.165025299E+01 -3.200821515E+02  3.443246528E+02  1.250000000E+02  0.00000E+00  9.000E+00
      21     1     1     2   502   511 -5.283017929E+00 -6.995513922E+01 -2.539242593E+01  7.460835795E+01  0.000000000E+00  0.00000E+00  9.000E+00
#rwgt            2          11   2.7092063857465554E-003           4      325048           0
</event>
<event>
      5   9999  3.19816E-02  3.30429E+01 -1.00000E+00  1.50182E-01
      21    -1     0     0   512   501  0.000000000E+00  0.000000000E+00  3.100888670E+02  3.100888670E+02  0.000000000E+00  0.00000E+00  9.000E+00
      21    -1     0     0   501   502  0.000000000E+00  0.000000000E+00 -7.323218371E+02  7.323218371E+02  0.000000000E+00  0.00000E+00  9.000E+00
      25     1     1     2     0     0 -1.264439163E+02  3.125475909E+02 -7.013720020E+01  3.663581409E+02  1.250000000E+02  0.00000E+00  9.000E+00
      25     1     1     2     0     0  1.494230374E+02 -2.888033139E+02 -4.520897496E+02  5.707405189E+02  1.250000000E+02  0.00000E+00  9.000E+00
      21     1     1     2   512   502 -2.297912115E+01 -2.374427701E+01  9.999397972E+01  1.053120443E+02  2.336015456E-06  0.00000E+00  9.000E+00
#rwgt            1           1   2.7745040592615875E-002           4      325083           0
</event>
<event>
      5   9999  3.19816E-02  6.34591E+01 -1.00000E+00  1.33415E-01
      21    -1     0     0   511   501  0.000000000E+00  0.000000000E+00  8.465363936E+02  8.465363936E+02  0.000000000E+00  0.00000E+00  9.000E+00
      21    -1     0     0   501   502  0.000000000E+00  0.000000000E+00 -1.926471407E+02  1.926471407E+02  0.000000000E+00  0.00000E+00  9.000E+00
      25     1     1     2     0     0  2.730513315E+01  1.431738828E+02 -1.154399871E+02  2.240440172E+02  1.250000000E+02  0.00000E+00  9.000E+00
      25     1     1     2     0     0 -1.674640965E+01 -8.059940434E+01  2.458379968E+02  2.878159601E+02  1.250000000E+02  0.00000E+00  9.000E+00
      21     1     1     2   511   502 -1.055872350E+01 -6.257447848E+01  5.234912432E+02  5.273235569E+02  0.000000000E+00  0.00000E+00  9.000E+00
#rwgt            2          11   1.4200911569961134E-003           4      325680           0
</event>
<event>
      5   9999  3.19816E-02  1.25211E+01 -1.00000E+00  1.85108E-01
      21    -1     0     0   502   501  0.000000000E+00  0.000000000E+00  5.913252708E+02  5.913252708E+02  0.000000000E+00  0.00000E+00  9.000E+00
      21    -1     0     0   512   502  0.000000000E+00  0.000000000E+00 -2.991489582E+02  2.991489582E+02  0.000000000E+00  0.00000E+00  9.000E+00
      25     1     1     2     0     0  2.481248119E+02  2.148270976E+02  3.287949967E+02  4.810901724E+02  1.250000000E+02  0.00000E+00  9.000E+00
      25     1     1     2     0     0 -2.492539213E+02 -2.272972225E+02  1.123387593E+01  3.599204698E+02  1.250000000E+02  0.00000E+00  9.000E+00
      21     1     1     2   512   501  1.129109423E+00  1.247012489E+01 -4.785256004E+01  4.946358666E+01  0.000000000E+00  0.00000E+00  9.000E+00
#rwgt            1           1   2.5522850500732004E-002           4      325715           0
</event>
<event>
      5   9999  3.19816E-02  3.49732E+01 -1.00000E+00  1.48553E-01
      21    -1     0     0   502   501  0.000000000E+00  0.000000000E+00  5.581735708E+02  5.581735708E+02  0.000000000E+00  0.00000E+00  9.000E+00
      21    -1     0     0   501   511  0.000000000E+00  0.000000000E+00 -6.813175261E+02  6.813175261E+02  0.000000000E+00  0.00000E+00  9.000E+00
      25     1     1     2     0     0  2.214339161E+02 -5.069009902E+02 -1.099611377E+02  5.776660323E+02  1.250000000E+02  0.00000E+00  9.000E+00
      25     1     1     2     0     0 -2.507812181E+02  5.259236228E+02  4.101550711E+01  5.973224826E+02  1.250000000E+02  0.00000E+00  9.000E+00
      21     1     1     2   502   511  2.934730201E+01 -1.902263257E+01 -5.419832464E+01  6.450258195E+01  1.348699152E-06  0.00000E+00  9.000E+00
#rwgt            1           1   2.9923857269483697E-002           4      325951           0
</event>
<event>
      5   9999  3.19816E-02  3.07748E+01 -1.00000E+00  1.52275E-01
       2    -1     0     0   502     0  0.000000000E+00  0.000000000E+00  8.878454935E+02  8.878454935E+02  0.000000000E+00  0.00000E+00  9.000E+00
      21    -1     0     0   501   502  0.000000000E+00  0.000000000E+00 -1.088751705E+03  1.088751705E+03  0.000000000E+00  0.00000E+00  9.000E+00
      25     1     1     2     0     0 -6.512345866E+02  1.464742559E+02 -2.040053329E+02  7.090869976E+02  1.250000000E+02  0.00000E+00  9.000E+00
      25     1     1     2     0     0  6.802596514E+02 -1.362451867E+02 -4.349869719E+02  8.283444995E+02  1.250000000E+02  0.00000E+00  9.000E+00
       2     1     1     2   501     0 -2.902506482E+01 -1.022906915E+01  4.380860932E+02  4.391657014E+02  5.394796609E-06  0.00000E+00  9.000E+00
#rwgt            1           1   2.2082497956204317E-002           4      326103           0
</event>
<event>
      5   9999  3.19816E-02  6.70165E+01 -1.00000E+00  1.32186E-01
      21    -1     0     0   502   511  0.000000000E+00  0.000000000E+00  5.827985905E+02  5.827985905E+02  0.000000000E+00  0.00000E+00  9.000E+00
      21    -1     0     0   501   502  0.000000000E+00  0.000000000E+00 -1.624819176E+02  1.624819176E+02  0.000000000E+00  0.00000E+00  9.000E+00
      25     1     1     2     0     0 -1.005911890E+02  1.174999229E+02 -6.604458507E+01  2.095512023E+02  1.250000000E+02  0.00000E+00  9.000E+00
      25     1     1     2     0     0  7.141772454E+01 -5.716655581E+01  2.989580877E+02  3.367037937E+02  1.250000000E+02  0.00000E+00  9.000E+00
      21     1     1     2   501   511  2.917346443E+01 -6.033336711E+01  1.874031703E+02  1.990255120E+02  2.697398305E-06  0.00000E+00  9.000E+00
#rwgt            1           1   2.8283531056650334E-002           4      326331           0
</event>
<event>
      5   9999  3.19816E-02  8.75564E+01 -1.00000E+00  1.26481E-01
       2    -1     0     0   502     0  0.000000000E+00  0.000000000E+00  2.547183010E+03  2.547183010E+03  0.000000000E+00  0.00000E+00  9.000E+00
      21    -1     0     0   501   502  0.000000000E+00  0.000000000E+00 -2.850406034E+01  2.850406034E+01  0.000000000E+00  0.00000E+00  9.000E+00
      25     1     1     2     0     0  1.566113953E+02  7.014441210E+00  8.852922650E+02  9.077134602E+02  1.250000000E+02  0.00000E+00  9.000E+00
      25     1     1     2     0     0 -2.004889700E+02 -8.278301056E+01  1.205344989E+03  1.231068802E+03  1.250000000E+02  0.00000E+00  9.000E+00
       2     1     1     2   501     0  4.387757473E+01  7.576856935E+01  4.280416956E+02  4.369048075E+02  5.394796609E-06  0.00000E+00  9.000E+00
#rwgt            1           1   8.2469595152462549E-002           4      326385           0
</event>
<event>
      5   9999  3.19816E-02  7.65846E+00 -1.00000E+00  2.10179E-01
      21    -1     0     0   502   511  0.000000000E+00  0.000000000E+00  6.425470148E+01  6.425470148E+01  0.000000000E+00  0.00000E+00  9.000E+00
      21    -1     0     0   501   502  0.000000000E+00  0.000000000E+00 -6.624765470E+02  6.624765470E+02  0.000000000E+00  0.00000E+00  9.000E+00
      25     1     1     2     0     0 -1.171060462E+02 -8.219794046E+01 -1.828912642E+02  2.637129917E+02  1.250000000E+02  0.00000E+00  9.000E+00
      25     1     1     2     0     0  1.101403873E+02  8.538096823E+01 -4.150944617E+02  4.553561538E+02  1.250000000E+02  0.00000E+00  9.000E+00
      21     1     1     2   501   511  6.965658921E+00 -3.183027769E+00 -2.361196117E-01  7.662103005E+00  8.383972522E-08  0.00000E+00  9.000E+00
#rwgt            1           1   2.7791842000481955E-002           4      326485           0
</event>
<event>
      5   9999  3.19816E-02  6.20541E+01 -1.00000E+00  1.33927E-01
       2    -1     0     0   502     0  0.000000000E+00  0.000000000E+00  1.884539771E+03  1.884539771E+03  0.000000000E+00  0.00000E+00  9.000E+00
      21    -1     0     0   501   502  0.000000000E+00  0.000000000E+00 -6.790434079E+02  6.790434079E+02  0.000000000E+00  0.00000E+00  9.000E+00
      25     1     1     2     0     0  3.513895902E+02  1.140199251E+02 -1.218191253E+02  4.085830230E+02  1.250000000E+02  0.00000E+00  9.000E+00
      25     1     1     2     0     0 -2.909801499E+02 -1.282116901E+02 -3.426501290E+02  4.838820063E+02  1.250000000E+02  0.00000E+00  9.000E+00
       2     1     1     2   501     0 -6.040944025E+01  1.419176498E+01  1.669965617E+03  1.671118150E+03  2.157918644E-05  0.00000E+00  9.000E+00
#rwgt            1           1   3.0837267402334192E-002           4      326718           0
</event>
<event>
      5   9999  3.19816E-02  8.13940E+00 -1.00000E+00  2.06694E-01
      21    -1     0     0   502   501  0.000000000E+00  0.000000000E+00  4.262327936E+01  4.262327936E+01  0.000000000E+00  0.00000E+00  9.000E+00
      21    -1     0     0   511   502  0.000000000E+00  0.000000000E+00 -1.612392618E+03  1.612392618E+03  0.000000000E+00  0.00000E+00  9.000E+00
      25     1     1     2     0     0 -1.119142246E+02  1.930129210E+02 -7.882570259E+02  8.287055690E+02  1.250000000E+02  0.00000E+00  9.000E+00
      25     1     1     2     0     0  1.200430154E+02 -1.934284470E+02 -7.472941138E+02  7.911373978E+02  1.250000000E+02  0.00000E+00  9.000E+00
      21     1     1     2   511   501 -8.128790784E+00  4.155260072E-01 -3.421819862E+01  3.517293019E+01  4.768371582E-07  0.00000E+00  9.000E+00
#rwgt            1           1   2.9146898620340967E-002           4      326859           0
</event>
<event>
      5   9999  3.19816E-02  1.15784E+02 -1.00000E+00  1.21031E-01
      21    -1     0     0   502   501  0.000000000E+00  0.000000000E+00  1.559758432E+03  1.559758432E+03  0.000000000E+00  0.00000E+00  9.000E+00
      21    -1     0     0   512   502  0.000000000E+00  0.000000000E+00 -1.400054650E+02  1.400054650E+02  0.000000000E+00  0.00000E+00  9.000E+00
      25     1     1     2     0     0  2.779219601E+02  8.676613307E+01  2.210773030E+02  3.863536614E+02  1.250000000E+02  0.00000E+00  9.000E+00
      25     1     1     2     0     0 -1.693124568E+02 -4.664145424E+01  1.175788915E+03  1.195385588E+03  1.250000000E+02  0.00000E+00  9.000E+00
      21     1     1     2   512   501 -1.086095034E+02 -4.012467883E+01  2.288674947E+01  1.180246473E+02  1.966049969E-06  0.00000E+00  9.000E+00
#rwgt            1           1   3.1541115448827720E-002           4      327115           0
</event>
<event>
      5   9999  3.19816E-02  3.54219E+02 -1.00000E+00  1.03300E-01
      21    -1     0     0   511   501  0.000000000E+00  0.000000000E+00  5.121740295E+02  5.121740295E+02  0.000000000E+00  0.00000E+00  9.000E+00
      21    -1     0     0   501   502  0.000000000E+00  0.000000000E+00 -1.264103573E+03  1.264103573E+03  0.000000000E+00  0.00000E+00  9.000E+00
      25     1     1     2     0     0 -6.363369683E+02 -5.614455682E+01 -3.038122746E+02  7.183340774E+02  1.250000000E+02  0.00000E+00  9.000E+00
      25     1     1     2     0     0  4.724459284E+02 -2.578793278E+02 -4.354020124E+02  7.034961374E+02  1.250000000E+02  0.00000E+00  9.000E+00
      21     1     1     2   511   502  1.638910400E+02  3.140238846E+02 -1.271525670E+01  3.544473880E+02  4.234867017E-06  0.00000E+00  9.000E+00
#rwgt            2          11   3.6316391994981202E-003           4      327297           0
</event>
<event>
      5   9999  3.19816E-02  1.18715E+02 -1.00000E+00  1.20567E-01
       2    -1     0     0   502     0  0.000000000E+00  0.000000000E+00  1.632760675E+03  1.632760675E+03  0.000000000E+00  0.00000E+00  9.000E+00
      21    -1     0     0   501   502  0.000000000E+00  0.000000000E+00 -5.973438580E+01  5.973438580E+01  0.000000000E+00  0.00000E+00  9.000E+00
      25     1     1     2     0     0 -3.498448804E+01  1.676139287E+02  7.507879827E+02  7.801448189E+02  1.250000000E+02  0.00000E+00  9.000E+00
      25     1     1     2     0     0 -2.211812779E+00 -5.487644651E+01  7.507125749E+01  1.558108154E+02  1.250000000E+02  0.00000E+00  9.000E+00
       2     1     1     2   501     0  3.719630082E+01 -1.127374822E+02  7.471670489E+02  7.565394263E+02  1.078959322E-05  0.00000E+00  9.000E+00
#rwgt            1           1   3.0572340831570264E-002           4      327317           0
</event>
<event>
      5   9999  3.19816E-02  2.76590E+02 -1.00000E+00  1.06751E-01
       2    -1     0     0   502     0  0.000000000E+00  0.000000000E+00  4.604498428E+02  4.604498428E+02  0.000000000E+00  0.00000E+00  9.000E+00
      21    -1     0     0   501   502  0.000000000E+00  0.000000000E+00 -6.974090720E+02  6.974090720E+02  0.000000000E+00  0.00000E+00  9.000E+00
      25     1     1     2     0     0 -2.822952506E+01 -2.264855634E+02 -3.988714344E+02  4.762520737E+02  1.250000000E+02  0.00000E+00  9.000E+00
      25     1     1     2     0     0  2.830186485E+02  1.188537883E+02  2.215415382E+02  3.986620518E+02  1.250000000E+02  0.00000E+00  9.000E+00
       2     1     1     2   501     0 -2.547891235E+02  1.076317750E+02 -5.962933294E+01  2.829447893E+02  4.720447033E-06  0.00000E+00  9.000E+00
#rwgt            1           1   2.0699036858282168E-002           4      327350           0
</event>
<event>
      5   9999  3.35204E-02  1.69036E+02 -1.00000E+00  1.14374E-01
      21    -1     0     0   502   511  0.000000000E+00  0.000000000E+00  9.234010885E+02  9.234010885E+02  0.000000000E+00  0.00000E+00  9.000E+00
      21    -1     0     0   501   502  0.000000000E+00  0.000000000E+00 -8.935015229E+02  8.935015229E+02  0.000000000E+00  0.00000E+00  9.000E+00
      25     1     1     2     0     0  3.243827791E+01  7.265625280E+02 -2.368636928E+02  7.750321013E+02  1.250000000E+02  0.00000E+00  9.000E+00
      25     1     1     2     0     0 -1.834514760E+02 -8.025113313E+02  1.800605911E+02  8.518953558E+02  1.250000000E+02  0.00000E+00  9.000E+00
      21     1     1     2   501   511  1.510131981E+02  7.594880323E+01  8.670266745E+01  1.899751543E+02  2.336015456E-06  0.00000E+00  9.000E+00
#rwgt            1           1   3.4700981717368469E-002           4      327397           0
</event>
<event>
      5   9999  3.19816E-02  7.79886E+01 -1.00000E+00  1.28887E-01
      21    -1     0     0   502   512  0.000000000E+00  0.000000000E+00  2.449685368E+02  2.449685368E+02  0.000000000E+00  0.00000E+00  9.000E+00
      21    -1     0     0   501   502  0.000000000E+00  0.000000000E+00 -8.867398570E+02  8.867398570E+02  0.000000000E+00  0.00000E+00  9.000E+00
      25     1     1     2     0     0  2.184416895E+02  1.323503613E+02  3.931650140E+01  2.870612777E+02  1.250000000E+02  0.00000E+00  9.000E+00
      25     1     1     2     0     0 -1.582051701E+02 -8.281470518E+01 -7.236742236E+02  7.557886829E+02  1.250000000E+02  0.00000E+00  9.000E+00
      21     1     1     2   501   512 -6.023651948E+01 -4.953565615E+01  4.258640206E+01  8.885843320E+01  1.719260824E-06  0.00000E+00  9.000E+00
#rwgt            1           1   2.8829855771527593E-002           4      327462           0
</event>
<event>
      5   9999  3.19816E-02  3.82879E+01 -1.00000E+00  1.46028E-01
      21    -1     0     0   502   501  0.000000000E+00  0.000000000E+00  3.395758802E+03  3.395758802E+03  0.000000000E+00  0.00000E+00  9.000E+00
      21    -1     0     0   501   511  0.000000000E+00  0.000000000E+00 -3.727139408E+02  3.727139408E+02  0.000000000E+00  0.00000E+00  9.000E+00
      25     1     1     2     0     0  1.885965908E+02  2.744394046E+02  1.373435017E+02  3.812792917E+02  1.250000000E+02  0.00000E+00  9.000E+00
      25     1     1     2     0     0 -2.132596884E+02 -3.037257993E+02  3.122681326E+03  3.147140404E+03  1.250000000E+02  0.00000E+00  9.000E+00
      21     1     1     2   502   511  2.466309759E+01  2.928639472E+01 -2.369799663E+02  2.400530477E+02  1.175768662E-05  0.00000E+00  9.000E+00
#rwgt            1           1   2.7230934643784357E-002           4      327528           0
</event>
<event>
      5   9999  3.19816E-02  6.11514E+01 -1.00000E+00  1.34264E-01
      21    -1     0     0   502   501  0.000000000E+00  0.000000000E+00  4.034625843E+02  4.034625843E+02  0.000000000E+00  0.00000E+00  9.000E+00
       2    -1     0     0   501     0  0.000000000E+00  0.000000000E+00 -2.395629347E+03  2.395629347E+03  0.000000000E+00  0.00000E+00  9.000E+00
      25     1     1     2     0     0  8.560049080E+01  5.165523162E+02  5.885833224E+01  5.415191988E+02  1.250000000E+02  0.00000E+00  9.000E+00
      25     1     1     2     0     0 -1.428589832E+02 -4.950824644E+02 -5.821509469E+02  7.874262255E+02  1.250000000E+02  0.00000E+00  9.000E+00
       2     1     1     2   502     0  5.725849243E+01 -2.146985179E+01 -1.468874148E+03  1.470146507E+03  0.000000000E+00  0.00000E+00  9.000E+00
#rwgt            1           1   3.0901662242861193E-002           4      327706           0
</event>
<event>
      5   9999  3.19816E-02  1.44078E+02 -1.00000E+00  1.17091E-01
      21    -1     0     0   511   501  0.000000000E+00  0.000000000E+00  6.194543068E+02  6.194543068E+02  0.000000000E+00  0.00000E+00  9.000E+00
      21    -1     0     0   501   502  0.000000000E+00  0.000000000E+00 -9.875912886E+02  9.875912886E+02  0.000000000E+00  0.00000E+00  9.000E+00
      25     1     1     2     0     0  4.097396266E+02 -1.260772247E+02 -6.927694909E+02  8.242187791E+02  1.250000000E+02  0.00000E+00  9.000E+00
      25     1     1     2     0     0 -4.294358577E+02  2.688022600E+02  1.249115015E+02  5.365609882E+02  1.250000000E+02  0.00000E+00  9.000E+00
      21     1     1     2   511   502  1.969623106E+01 -1.427250352E+02  1.997210076E+02  2.462658281E+02  4.672030912E-06  0.00000E+00  9.000E+00
#rwgt            1           1   3.0693959959635576E-002           4      327823           0
</event>
<event>
      5   9999  3.19816E-02  2.68067E+01 -1.00000E+00  1.56514E-01
      21    -1     0     0   502   512  0.000000000E+00  0.000000000E+00  1.678254482E+02  1.678254482E+02  0.000000000E+00  0.00000E+00  9.000E+00
      21    -1     0     0   501   502  0.000000000E+00  0.000000000E+00 -2.444020230E+03  2.444020230E+03  0.000000000E+00  0.00000E+00  9.000E+00
      25     1     1     2     0     0 -2.942564617E+02  7.988249356E+01 -1.650518064E+03  1.683093271E+03  1.250000000E+02  0.00000E+00  9.000E+00
      25     1     1     2     0     0  2.674851111E+02 -8.125883766E+01 -7.455119185E+02  8.059555223E+02  1.250000000E+02  0.00000E+00  9.000E+00
      21     1     1     2   501   512  2.677135059E+01  1.376344102E+00  1.198352011E+02  1.227968849E+02  3.568322551E-06  0.00000E+00  9.000E+00
#rwgt            1           1   7.4939492124300150E-002           4      327883           0
</event>
<event>
      5   9999  3.19816E-02  3.74917E+01 -1.00000E+00  1.46606E-01
      21    -1     0     0   511   501  0.000000000E+00  0.000000000E+00  8.860801372E+02  8.860801372E+02  0.000000000E+00  0.00000E+00  9.000E+00
      21    -1     0     0   501   502  0.000000000E+00  0.000000000E+00 -5.890908475E+02  5.890908475E+02  0.000000000E+00  0.00000E+00  9.000E+00
      25     1     1     2     0     0  3.236777037E+02  3.809580698E+02  3.328441775E+02  6.134383044E+02  1.250000000E+02  0.00000E+00  9.000E+00
      25     1     1     2     0     0 -3.604791660E+02 -3.881190637E+02 -2.818480891E+02  6.128988351E+02  1.250000000E+02  0.00000E+00  9.000E+00
      21     1     1     2   511   502  3.680146238E+01  7.160993854E+00  2.459932013E+02  2.488338453E+02  0.000000000E+00  0.00000E+00  9.000E+00
#rwgt            1           1   2.6897857467693520E-002           4      328029           0
</event>
<event>
      5   9999  3.19816E-02  3.45502E+02 -1.00000E+00  1.03637E-01
      21    -1     0     0   502   512  0.000000000E+00  0.000000000E+00  1.007860390E+03  1.007860390E+03  0.000000000E+00  0.00000E+00  9.000E+00
      21    -1     0     0   501   502  0.000000000E+00  0.000000000E+00 -8.072248986E+02  8.072248986E+02  0.000000000E+00  0.00000E+00  9.000E+00
      25     1     1     2     0     0  4.536996246E+02  9.012644812E+01 -6.079751007E+02  7.740961498E+02  1.250000000E+02  0.00000E+00  9.000E+00
      25     1     1     2     0     0 -1.083444144E+02 -8.005284760E+01  2.612323490E+01  1.856189482E+02  1.250000000E+02  0.00000E+00  9.000E+00
      21     1     1     2   501   512 -3.453552101E+02 -1.007360053E+01  7.824873578E+02  8.553701910E+02  1.078959322E-05  0.00000E+00  9.000E+00
#rwgt            1           1   2.8979880918508484E-002           4      328222           0
</event>
<event>
      5   9999  3.19816E-02  4.80177E+01 -1.00000E+00  1.40085E-01
      21    -1     0     0   502   501  0.000000000E+00  0.000000000E+00  2.844972686E+02  2.844972686E+02  0.000000000E+00  0.00000E+00  9.000E+00
      21    -1     0     0   501   511  0.000000000E+00  0.000000000E+00 -5.153987308E+02  5.153987308E+02  0.000000000E+00  0.00000E+00  9.000E+00
      25     1     1     2     0     0 -1.638614148E+02  2.695825441E+02  3.707704988E+01  3.413576116E+02  1.250000000E+02  0.00000E+00  9.000E+00
      25     1     1     2     0     0  1.160510797E+02 -2.740402600E+02 -2.453978771E+02  4.054763067E+02  1.250000000E+02  0.00000E+00  9.000E+00
      21     1     1     2   502   511  4.781033509E+01  4.457715849E+00 -2.258063496E+01  5.306208106E+01  1.168007728E-06  0.00000E+00  9.000E+00
#rwgt            1           1   2.9930905939442327E-002           4      328258           0
</event>
<event>
      5   9999  3.19816E-02  4.25588E+01 -1.00000E+00  1.43190E-01
      21    -1     0     0   502   512  0.000000000E+00  0.000000000E+00  4.251996199E+02  4.251996199E+02  0.000000000E+00  0.00000E+00  9.000E+00
      21    -1     0     0   501   502  0.000000000E+00  0.000000000E+00 -4.133779912E+02  4.133779912E+02  0.000000000E+00  0.00000E+00  9.000E+00
      25     1     1     2     0     0  3.971922148E+01  2.417197714E+02  1.929906546E+02  3.359709172E+02  1.250000000E+02  0.00000E+00  9.000E+00
      25     1     1     2     0     0 -8.139041549E+01 -2.503665031E+02 -2.742972804E+02  4.002146719E+02  1.250000000E+02  0.00000E+00  9.000E+00
      21     1     1     2   501   512  4.167119401E+01  8.646731682E+00  9.312825445E+01  1.023920219E+02  1.348699152E-06  0.00000E+00  9.000E+00
#rwgt            1           1   2.9857322591915755E-002           4      328388           0
</event>
<event>
      5   9999  3.19816E-02  3.58532E+01 -1.00000E+00  1.47851E-01
      21    -1     0     0   511   501  0.000000000E+00  0.000000000E+00  5.574009260E+02  5.574009260E+02  0.000000000E+00  0.00000E+00  9.000E+00
      21    -1     0     0   501   502  0.000000000E+00  0.000000000E+00 -1.021591960E+02  1.021591960E+02  0.000000000E+00  0.00000E+00  9.000E+00
      25     1     1     2     0     0  1.468672328E+02 -4.972720237E+01  6.436422964E+01  2.093096576E+02  1.250000000E+02  0.00000E+00  9.000E+00
      25     1     1     2     0     0 -1.338950333E+02  1.630307119E+01  2.921081675E+02  3.451751028E+02  1.250000000E+02  0.00000E+00  9.000E+00
      21     1     1     2   511   502 -1.297219953E+01  3.342413119E+01  9.876933283E+01  1.050753616E+02  1.907348633E-06  0.00000E+00  9.000E+00
#rwgt            1           1   2.9537547119744764E-002           4      328510           0
</event>
<event>
      5   9999  3.19816E-02  1.43289E+01 -1.00000E+00  1.79277E-01
      21    -1     0     0   502   501  0.000000000E+00  0.000000000E+00  3.929328793E+02  3.929328793E+02  0.000000000E+00  0.00000E+00  9.000E+00
      21    -1     0     0   512   502  0.000000000E+00  0.000000000E+00 -3.774865356E+02  3.774865356E+02  0.000000000E+00  0.00000E+00  9.000E+00
      25     1     1     2     0     0  1.303114111E+01 -1.980666660E+02  3.081219396E+02  3.872523009E+02  1.250000000E+02  0.00000E+00  9.000E+00
      25     1     1     2     0     0  8.228653989E-01  1.944083619E+02 -2.624335707E+02  3.497022552E+02  1.250000000E+02  0.00000E+00  9.000E+00
      21     1     1     2   512   501 -1.385400651E+01  3.658304142E+00 -3.024202532E+01  3.346485890E+01  0.000000000E+00  0.00000E+00  9.000E+00
#rwgt            1           1   2.5170920469325900E-002           4      328576           0
</event>
<event>
      5   9999  3.19816E-02  9.78840E+01 -1.00000E+00  1.24247E-01
      21    -1     0     0   511   501  0.000000000E+00  0.000000000E+00  2.691594959E+02  2.691594959E+02  0.000000000E+00  0.00000E+00  9.000E+00
      21    -1     0     0   501   502  0.000000000E+00  0.000000000E+00 -2.784574664E+02  2.784574664E+02  0.000000000E+00  0.00000E+00  9.000E+00
      25     1     1     2     0     0  3.306482084E+00 -4.765273043E+01 -1.952771257E+02  2.367274200E+02  1.250000000E+02  0.00000E+00  9.000E+00
      25     1     1     2     0     0 -8.470033471E+01 -6.719229702E+00  1.085733392E+02  1.860979977E+02  1.250000000E+02  0.00000E+00  9.000E+00
      21     1     1     2   511   502  8.139385262E+01  5.437196013E+01  7.740581598E+01  1.247915448E+02  9.536743164E-07  0.00000E+00  9.000E+00
#rwgt            1           1   2.8174105664779497E-002           4      328839           0
</event>
<event>
      5   9999  3.19816E-02  4.66396E+01 -1.00000E+00  1.40822E-01
      21    -1     0     0   502   501  0.000000000E+00  0.000000000E+00  1.113867339E+03  1.113867339E+03  0.000000000E+00  0.00000E+00  9.000E+00
      21    -1     0     0   512   502  0.000000000E+00  0.000000000E+00 -2.141321343E+02  2.141321343E+02  0.000000000E+00  0.00000E+00  9.000E+00
      25     1     1     2     0     0 -9.337083135E+01 -4.094152434E+02  4.879501699E+02  6.557890835E+02  1.250000000E+02  0.00000E+00  9.000E+00
      25     1     1     2     0     0  1.237252800E+02  4.448251090E+02  4.013751161E+02  6.244231789E+02  1.250000000E+02  0.00000E+00  9.000E+00
      21     1     1     2   512   501 -3.035444860E+01 -3.540986564E+01  1.040991884E+01  4.778721111E+01  4.298152060E-07  0.00000E+00  9.000E+00
#rwgt            1           1   3.1476640866576325E-002           4      328899           0
</event>
<event>
      5   9999  3.19816E-02  6.03835E+00 -1.00000E+00  2.25043E-01
      21    -1     0     0   511   501  0.000000000E+00  0.000000000E+00  4.334954277E+02  4.334954277E+02  0.000000000E+00  0.00000E+00  9.000E+00
      21    -1     0     0   501   502  0.000000000E+00  0.000000000E+00 -8.242940061E+01  8.242940061E+01  0.000000000E+00  0.00000E+00  9.000E+00
      25     1     1     2     0     0  7.544030698E+01 -1.094585996E+02  1.727305982E+02  2.512633767E+02  1.250000000E+02  0.00000E+00  9.000E+00
      25     1     1     2     0     0 -7.821511938E+01  1.040955731E+02  1.470929065E+02  2.328407533E+02  1.250000000E+02  0.00000E+00  9.000E+00
      21     1     1     2   511   502  2.774812400E+00  5.363026463E+00  3.124252231E+01  3.182069824E+01  0.000000000E+00  0.00000E+00  9.000E+00
#rwgt            2          11   1.9912444599213723E-003           4      329127           0
</event>
<event>
      5   9999  3.19816E-02  2.64105E+01 -1.00000E+00  1.56986E-01
      21    -1     0     0   502   512  0.000000000E+00  0.000000000E+00  1.016225382E+02  1.016225382E+02  0.000000000E+00  0.00000E+00  9.000E+00
      21    -1     0     0   501   502  0.000000000E+00  0.000000000E+00 -2.588714902E+02  2.588714902E+02  0.000000000E+00  0.00000E+00  9.000E+00
      25     1     1     2     0     0  5.275348428E+01 -3.227648329E+01 -6.071326197E+01  1.521045747E+02  1.250000000E+02  0.00000E+00  9.000E+00
      25     1     1     2     0     0 -3.208911988E+01  1.582966664E+01 -1.170515745E+02  1.749467378E+02  1.250000000E+02  0.00000E+00  9.000E+00
      21     1     1     2   501   512 -2.066436440E+01  1.644681665E+01  2.051588447E+01  3.344271594E+01  5.840038640E-07  0.00000E+00  9.000E+00
#rwgt            1           1   1.1223431917470593E-002           4      329162           0
</event>
<event>
      5   9999  3.19816E-02  1.67438E+02 -1.00000E+00  1.14532E-01
      21    -1     0     0   502   501  0.000000000E+00  0.000000000E+00  1.468115943E+03  1.468115943E+03  0.000000000E+00  0.00000E+00  9.000E+00
      -4    -1     0     0     0   502  0.000000000E+00  0.000000000E+00 -4.548057289E+02  4.548057289E+02  0.000000000E+00  0.00000E+00  9.000E+00
      25     1     1     2     0     0  3.483337053E+02 -3.982906740E+02  7.939223656E+02  9.622419415E+02  1.250000000E+02  0.00000E+00  9.000E+00
      25     1     1     2     0     0 -4.677974621E+02  2.809708148E+02  4.196444350E+02  6.996467081E+02  1.250000000E+02  0.00000E+00  9.000E+00
      -4     1     1     2     0   501  1.194637567E+02  1.173198592E+02 -2.002565862E+02  2.610330225E+02  0.000000000E+00  0.00000E+00  9.000E+00
#rwgt            1           1   2.9474316531442446E-002           4      329230           0
</event>
<event>
      5   9999  3.19816E-02  7.02687E+01 -1.00000E+00  1.31136E-01
      -3    -1     0     0     0   501  0.000000000E+00  0.000000000E+00  1.568100967E+02  1.568100967E+02  0.000000000E+00  0.00000E+00  9.000E+00
      21    -1     0     0   501   502  0.000000000E+00  0.000000000E+00 -6.205506095E+02  6.205506095E+02  0.000000000E+00  0.00000E+00  9.000E+00
      25     1     1     2     0     0  1.372529364E+02 -2.210572879E+02 -1.871493378E+02  3.440269870E+02  1.250000000E+02  0.00000E+00  9.000E+00
      25     1     1     2     0     0 -1.367182977E+02  1.507906143E+02 -2.733247296E+02  3.629891322E+02  1.250000000E+02  0.00000E+00  9.000E+00
      -3     1     1     2     0   502 -5.346387375E-01  7.026667364E+01 -3.266445358E+00  7.034458705E+01  5.022376641E-07  0.00000E+00  9.000E+00
#rwgt            1           1   2.8761500221407901E-002           4      329333           0
</event>
<event>
      5   9999  3.19816E-02  2.51844E+01 -1.00000E+00  1.58512E-01
      21    -1     0     0   502   511  0.000000000E+00  0.000000000E+00  7.185585402E+02  7.185585402E+02  0.000000000E+00  0.00000E+00  9.000E+00
      21    -1     0     0   501   502  0.000000000E+00  0.000000000E+00 -8.271726303E+01  8.271726303E+01  0.000000000E+00  0.00000E+00  9.000E+00
      25     1     1     2     0     0 -6.805683391E+00 -1.602038308E+02  4.064046413E+02  4.544241600E+02  1.250000000E+02  0.00000E+00  9.000E+00
      25     1     1     2     0     0 -1.027136583E-01  1.844221700E+02  1.637337059E+02  2.764873844E+02  1.250000000E+02  0.00000E+00  9.000E+00
      21     1     1     2   501   511  6.908397049E+00 -2.421833920E+01  6.570293001E+01  7.036425879E+01  0.000000000E+00  0.00000E+00  9.000E+00
#rwgt            1           1   2.7254650323036395E-002           4      329436           0
</event>
<event>
      5   9999  3.19816E-02  6.27358E+01 -1.00000E+00  1.33677E-01
      21    -1     0     0   512   501  0.000000000E+00  0.000000000E+00  8.418235453E+02  8.418235453E+02  0.000000000E+00  0.00000E+00  9.000E+00
      21    -1     0     0   501   502  0.000000000E+00  0.000000000E+00 -1.846396566E+02  1.846396566E+02  0.000000000E+00  0.00000E+00  9.000E+00
      25     1     1     2     0     0 -9.702548136E+01 -3.231588837E+02  3.449008966E+02  4.984247553E+02  1.250000000E+02  0.00000E+00  9.000E+00
      25     1     1     2     0     0  1.560952682E+02  3.020274907E+02  2.540325519E+02  4.424295145E+02  1.250000000E+02  0.00000E+00  9.000E+00
      21     1     1     2   512   502 -5.906978683E+01  2.113139300E+01  5.825044016E+01  8.560893216E+01  1.168007728E-06  0.00000E+00  9.000E+00
#rwgt            1           1   1.9463432289930142E-002           4      329572           0
</event>
<event>
      5   9999  3.19816E-02  1.31302E+01 -1.00000E+00  1.83010E-01
      21    -1     0     0   502   511  0.000000000E+00  0.000000000E+00  2.736029200E+01  2.736029200E+01  0.000000000E+00  0.00000E+00  9.000E+00
      21    -1     0     0   501   502  0.000000000E+00  0.000000000E+00 -1.319956849E+03  1.319956849E+03  0.000000000E+00  0.00000E+00  9.000E+00
      25     1     1     2     0     0 -1.177794664E+01 -7.958364039E+01 -2.836385235E+02  3.202313037E+02  1.250000000E+02  0.00000E+00  9.000E+00
      25     1     1     2     0     0  2.410943694E+01  7.507417658E+01 -1.000743659E+03  1.011597879E+03  1.250000000E+02  0.00000E+00  9.000E+00
      21     1     1     2   501   511 -1.233149030E+01  4.509463814E+00 -8.214374508E+00  1.548795873E+01  2.064765462E-07  0.00000E+00  9.000E+00
#rwgt            1           1   3.5956731772782503E-002           4      329718           0
</event>
<event>
      5   9999  3.19816E-02  9.32321E+01 -1.00000E+00  1.25212E-01
      -4    -1     0     0     0   501  0.000000000E+00  0.000000000E+00  1.810379087E+03  1.810379087E+03  0.000000000E+00  0.00000E+00  9.000E+00
      21    -1     0     0   501   502  0.000000000E+00  0.000000000E+00 -8.035934216E+01  8.035934216E+01  0.000000000E+00  0.00000E+00  9.000E+00
      25     1     1     2     0     0  4.639748185E+01  1.009441511E+02  2.561051583E+01  1.691843565E+02  1.250000000E+02  0.00000E+00  9.000E+00
      25     1     1     2     0     0 -5.491081570E+01 -8.101517399E+00  7.305552596E+02  7.432474821E+02  1.250000000E+02  0.00000E+00  9.000E+00
      -4     1     1     2     0   502  8.513333847E+00 -9.284263369E+01  9.738539694E+02  9.783065906E+02  1.868812365E-05  0.00000E+00  9.000E+00
#rwgt            1           1   2.8179442697953205E-002           4      329868           0
</event>
<event>
      5   9999  3.19816E-02  1.72259E+01 -1.00000E+00  1.71904E-01
      21    -1     0     0   502   501  0.000000000E+00  0.000000000E+00  2.840222804E+02  2.840222804E+02  0.000000000E+00  0.00000E+00  9.000E+00
      -5    -1     0     0     0   502  0.000000000E+00  0.000000000E+00 -6.553371794E+02  6.553371794E+02  0.000000000E+00  0.00000E+00  9.000E+00
      25     1     1     2     0     0 -8.149930800E+01  2.790946392E+02 -1.821514720E+02  3.651576558E+02  1.250000000E+02  0.00000E+00  9.000E+00
      25     1     1     2     0     0  7.703692528E+01 -2.624567433E+02  7.461959501E+01  3.098569249E+02  1.250000000E+02  0.00000E+00  9.000E+00
      -5     1     1     2     0   501  4.462382715E+00 -1.663789598E+01 -2.637830220E+02  2.643448792E+02  3.814697266E-06  0.00000E+00  9.000E+00
#rwgt            1           1   2.5491770350930615E-002           4      329909           0
</event>
<event>
      5   9999  3.19816E-02  3.54740E+01 -1.00000E+00  1.48150E-01
       1    -1     0     0   502     0  0.000000000E+00  0.000000000E+00  3.072562121E+03  3.072562121E+03  0.000000000E+00  0.00000E+00  9.000E+00
      21    -1     0     0   501   502  0.000000000E+00  0.000000000E+00 -2.520808713E+02  2.520808713E+02  0.000000000E+00  0.00000E+00  9.000E+00
      25     1     1     2     0     0 -3.320421639E+02 -3.694467778E+02  5.039268166E+02  7.185472544E+02  1.250000000E+02  0.00000E+00  9.000E+00
      25     1     1     2     0     0  3.173440639E+02  3.371610019E+02  2.529973476E+02  5.422337632E+02  1.250000000E+02  0.00000E+00  9.000E+00
       1     1     1     2   501     0  1.469810000E+01  3.228577590E+01  2.063557086E+03  2.063861975E+03  3.051757812E-05  0.00000E+00  9.000E+00
#rwgt            1           1   2.7907257507180126E-002           4      330071           0
</event>
<event>
      5   9999  3.19816E-02  3.15895E+01 -1.00000E+00  1.51499E-01
      21    -1     0     0   502   501  0.000000000E+00  0.000000000E+00  1.331324685E+03  1.331324685E+03  0.000000000E+00  0.00000E+00  9.000E+00
      21    -1     0     0   511   502  0.000000000E+00  0.000000000E+00 -3.426887654E+02  3.426887654E+02  0.000000000E+00  0.00000E+00  9.000E+00
      25     1     1     2     0     0 -2.186686518E+02 -3.110291549E+01  1.031216091E+03  1.061986345E+03  1.250000000E+02  0.00000E+00  9.000E+00
      25     1     1     2     0     0  2.306556556E+02  1.876063226E+00  2.231523941E+02  3.444234923E+02  1.250000000E+02  0.00000E+00  9.000E+00
      21     1     1     2   511   501 -1.198700375E+01  2.922685227E+01 -2.657325657E+02  2.676036129E+02  5.394796609E-06  0.00000E+00  9.000E+00
#rwgt            1           1   2.9107619517201519E-002           4      330240           0
</event>
<event>
      5   9999  3.19816E-02  3.63689E+01 -1.00000E+00  1.47451E-01
      21    -1     0     0   502   512  0.000000000E+00  0.000000000E+00  2.626580286E+01  2.626580286E+01  0.000000000E+00  0.00000E+00  9.000E+00
      21    -1     0     0   501   502  0.000000000E+00  0.000000000E+00 -2.557844030E+03  2.557844030E+03  0.000000000E+00  0.00000E+00  9.000E+00
      25     1     1     2     0     0  9.335956449E+01  1.070098122E+02 -1.118208604E+03  1.134099903E+03  1.250000000E+02  0.00000E+00  9.000E+00
      25     1     1     2     0     0 -6.056213566E+01 -9.129275478E+01 -1.402124804E+03  1.411942316E+03  1.250000000E+02  0.00000E+00  9.000E+00
      21     1     1     2   501   512 -3.279742884E+01 -1.571705746E+01 -1.124481949E+01  3.806761351E+01  1.332800375E-06  0.00000E+00  9.000E+00
#rwgt            1           1   4.3307097436684108E-002           4      330366           0
</event>
<event>
      5   9999  3.19816E-02  9.01055E+01 -1.00000E+00  1.25898E-01
      21    -1     0     0   502   501  0.000000000E+00  0.000000000E+00  5.192747741E+02  5.192747741E+02  0.000000000E+00  0.00000E+00  9.000E+00
      21    -1     0     0   511   502  0.000000000E+00  0.000000000E+00 -2.679859570E+02  2.679859570E+02  0.000000000E+00  0.00000E+00  9.000E+00
      25     1     1     2     0     0 -1.872207088E+02  3.049844430E+01  3.247380342E+02  3.963099037E+02  1.250000000E+02  0.00000E+00  9.000E+00
      25     1     1     2     0     0  2.614122707E+02  2.063487861E+01 -3.361561098E+01  2.924332109E+02  1.250000000E+02  0.00000E+00  9.000E+00
      21     1     1     2   511   501 -7.419156196E+01 -5.113332290E+01 -3.983360626E+01  9.851761652E+01  6.743495762E-07  0.00000E+00  9.000E+00
#rwgt            1           1   2.6151143342122967E-002           4      330459           0
</event>
<event>
      5   9999  3.19816E-02  4.09761E+02 -1.00000E+00  1.01371E-01
      21    -1     0     0   502   501  0.000000000E+00  0.000000000E+00  2.268087756E+02  2.268087756E+02  0.000000000E+00  0.00000E+00  9.000E+00
       1    -1     0     0   501     0  0.000000000E+00  0.000000000E+00 -1.846097702E+03  1.846097702E+03  0.000000000E+00  0.00000E+00  9.000E+00
      25     1     1     2     0     0  1.991621212E+02 -1.409144131E+02 -1.149529034E+02  2.972567784E+02  1.250000000E+02  0.00000E+00  9.000E+00
      25     1     1     2     0     0 -2.755284054E+02 -2.616671491E+02 -2.900901191E+02  4.941284007E+02  1.250000000E+02  0.00000E+00  9.000E+00
       1     1     1     2   502     0  7.636628430E+01  4.025815622E+02 -1.214245903E+03  1.281521298E+03  2.642899792E-05  0.00000E+00  9.000E+00
#rwgt            2          12   7.7074242761905338E-004           4      330569           0
</event>
<event>
      5   9999  3.19816E-02  3.86534E+01 -1.00000E+00  1.45769E-01
      21    -1     0     0   502   511  0.000000000E+00  0.000000000E+00  6.394201507E+02  6.394201507E+02  0.000000000E+00  0.00000E+00  9.000E+00
      21    -1     0     0   501   502  0.000000000E+00  0.000000000E+00 -1.035257765E+03  1.035257765E+03  0.000000000E+00  0.00000E+00  9.000E+00
      25     1     1     2     0     0  2.277591546E+02 -4.988786752E+02 -7.572964354E+02  9.433329508E+02  1.250000000E+02  0.00000E+00  9.000E+00
      25     1     1     2     0     0 -2.569592403E+02  5.242053955E+02  3.424463107E+02  6.882687147E+02  1.250000000E+02  0.00000E+00  9.000E+00
      21     1     1     2   501   511  2.920008576E+01 -2.532672031E+01  1.901251043E+01  4.307625011E+01  6.307962682E-07  0.00000E+00  9.000E+00
#rwgt            1           1   3.0902703716077486E-002           4      330588           0
</event>
<event>
      5   9999  3.19816E-02  3.41729E+01 -1.00000E+00  1.49212E-01
      21    -1     0     0   512   501  0.000000000E+00  0.000000000E+00  2.607239446E+02  2.607239446E+02  0.000000000E+00  0.00000E+00  9.000E+00
      21    -1     0     0   501   502  0.000000000E+00  0.000000000E+00 -1.109536856E+03  1.109536856E+03  0.000000000E+00  0.00000E+00  9.000E+00
      25     1     1     2     0     0 -5.130856261E+02 -1.856759557E+01 -5.008073810E+02  7.280347850E+02  1.250000000E+02  0.00000E+00  9.000E+00
      25     1     1     2     0     0  4.854715533E+02 -1.563198762E+00 -3.436258071E+02  6.077736157E+02  1.250000000E+02  0.00000E+00  9.000E+00
      21     1     1     2   512   502  2.761407278E+01  2.013079433E+01 -4.379723563E+00  3.445240012E+01  6.136673773E-07  0.00000E+00  9.000E+00
#rwgt            1           1   3.0575109610180565E-002           4      330705           0
</event>
<event>
      5   9999  3.19816E-02  9.61738E+01 -1.00000E+00  1.24595E-01
      21    -1     0     0   511   501  0.000000000E+00  0.000000000E+00  1.568687825E+02  1.568687825E+02  0.000000000E+00  0.00000E+00  9.000E+00
      21    -1     0     0   501   502  0.000000000E+00  0.000000000E+00 -1.363914662E+03  1.363914662E+03  0.000000000E+00  0.00000E+00  9.000E+00
      25     1     1     2     0     0  5.248288453E+01 -3.009686471E+02 -9.825413058E+02  1.036508079E+03  1.250000000E+02  0.00000E+00  9.000E+00
      25     1     1     2     0     0 -1.427212836E+02  2.677057073E+02 -1.418596391E+02  3.574700935E+02  1.250000000E+02  0.00000E+00  9.000E+00
      21     1     1     2   511   502  9.023839909E+01  3.326293974E+01 -8.264493414E+01  1.268052719E+02  1.907348633E-06  0.00000E+00  9.000E+00
#rwgt            1           1   2.9446022006515027E-002           4      330865           0
</event>
<event>
      5   9999  3.19816E-02  1.59943E+02 -1.00000E+00  1.15300E-01
      21    -1     0     0   512   501  0.000000000E+00  0.000000000E+00  2.538911812E+02  2.538911812E+02  0.000000000E+00  0.00000E+00  9.000E+00
      21    -1     0     0   501   502  0.000000000E+00  0.000000000E+00 -8.626398553E+02  8.626398553E+02  0.000000000E+00  0.00000E+00  9.000E+00
      25     1     1     2     0     0  2.376945979E+02 -1.638934583E+02 -5.083480876E+02  5.978315530E+02  1.250000000E+02  0.00000E+00  9.000E+00
      25     1     1     2     0     0 -3.219982571E+02  2.797220789E+01 -9.195840668E+01  3.585340577E+02  1.250000000E+02  0.00000E+00  9.000E+00
      21     1     1     2   512   502  8.430365921E+01  1.359212504E+02 -8.442179801E+00  1.601654259E+02  3.654887609E-06  0.00000E+00  9.000E+00
#rwgt            1           1   2.8321228019989753E-002           4      330927           0
</event>
<event>
      5   9999  3.19816E-02  6.07638E+02 -1.00000E+00  9.65046E-02
       2    -1     0     0   502     0  0.000000000E+00  0.000000000E+00  4.324837893E+03  4.324837893E+03  0.000000000E+00  0.00000E+00  9.000E+00
      21    -1     0     0   501   502  0.000000000E+00  0.000000000E+00 -7.606513448E+02  7.606513448E+02  0.000000000E+00  0.00000E+00  9.000E+00
      25     1     1     2     0     0  1.786939863E+02  1.434005433E+03  1.335304975E+03  1.971539373E+03  1.250000000E+02  0.00000E+00  9.000E+00
      25     1     1     2     0     0 -4.750626880E+02 -9.035441383E+02  2.704401462E+02  1.063409347E+03  1.250000000E+02  0.00000E+00  9.000E+00
       2     1     1     2   501     0  2.963687017E+02 -5.304612943E+02  1.958441427E+03  2.050540518E+03  2.157918644E-05  0.00000E+00  9.000E+00
#rwgt            2          18   7.0997213701632094E-004           4      331004           0
</event>
<event>
      5   9999  3.19816E-02  1.81378E+01 -1.00000E+00  1.69949E-01
      21    -1     0     0   502   501  0.000000000E+00  0.000000000E+00  6.199647279E+01  6.199647279E+01  0.000000000E+00  0.00000E+00  9.000E+00
      21    -1     0     0   501   511  0.000000000E+00  0.000000000E+00 -1.121091165E+03  1.121091165E+03  0.000000000E+00  0.00000E+00  9.000E+00
      25     1     1     2     0     0  3.368359665E+00  1.717955143E+02 -8.109616420E+02  8.383369426E+02  1.250000000E+02  0.00000E+00  9.000E+00
      25     1     1     2     0     0  2.677319928E+00 -1.546949715E+02 -1.614236631E+02  2.561645979E+02  1.250000000E+02  0.00000E+00  9.000E+00
      21     1     1     2   502   511 -6.045679593E+00 -1.710054281E+01 -8.670938758E+01  8.858609767E+01  1.348699152E-06  0.00000E+00  9.000E+00
#rwgt            1           1   3.6765386298297467E-002           4      331023           0
</event>
<event>
      5   9999  3.19816E-02  3.11595E+01 -1.00000E+00  1.51905E-01
      21    -1     0     0   512   501  0.000000000E+00  0.000000000E+00  3.493140315E+01  3.493140315E+01  0.000000000E+00  0.00000E+00  9.000E+00
      21    -1     0     0   501   502  0.000000000E+00  0.000000000E+00 -2.739826752E+03  2.739826752E+03  0.000000000E+00  0.00000E+00  9.000E+00
      25     1     1     2     0     0  2.532744471E+02  7.596959079E+01 -1.161005239E+03  1.197279203E+03  1.250000000E+02  0.00000E+00  9.000E+00
      25     1     1     2     0     0 -2.446639400E+02 -4.602336536E+01 -1.484492250E+03  1.510404196E+03  1.250000000E+02  0.00000E+00  9.000E+00
      21     1     1     2   512   502 -8.610507049E+00 -2.994622542E+01 -5.939785957E+01  6.707475658E+01  9.536743164E-07  0.00000E+00  9.000E+00
#rwgt            1           1   3.4567658305881939E-002           4      331276           0
</event>
<event>
      5   9999  3.19816E-02  2.24594E+02 -1.00000E+00  1.09845E-01
      21    -1     0     0   511   501  0.000000000E+00  0.000000000E+00  2.277709951E+02  2.277709951E+02  0.000000000E+00  0.00000E+00  9.000E+00
      21    -1     0     0   501   502  0.000000000E+00  0.000000000E+00 -4.547054836E+02  4.547054836E+02  0.000000000E+00  0.00000E+00  9.000E+00
      25     1     1     2     0     0  1.491282273E+01 -1.233374517E+02 -7.274339926E+01  1.906597005E+02  1.250000000E+02  0.00000E+00  9.000E+00
      25     1     1     2     0     0  1.046762689E+02 -6.677020495E+01 -1.958042224E+02  2.634002184E+02  1.250000000E+02  0.00000E+00  9.000E+00
      21     1     1     2   511   502 -1.195890917E+02  1.901076566E+02  4.161313311E+01  2.284165598E+02  2.286830675E-06  0.00000E+00  9.000E+00
#rwgt            1           1   2.7731952304483692E-002           4      331420           0
</event>
<event>
      5   9999  3.19816E-02  5.48171E+01 -1.00000E+00  1.36834E-01
      21    -1     0     0   502   512  0.000000000E+00  0.000000000E+00  5.562362322E+02  5.562362322E+02  0.000000000E+00  0.00000E+00  9.000E+00
      21    -1     0     0   501   502  0.000000000E+00  0.000000000E+00 -5.361851372E+02  5.361851372E+02  0.000000000E+00  0.00000E+00  9.000E+00
      25     1     1     2     0     0 -4.198898283E+02 -9.694318163E+01  2.097836082E+02  4.953176865E+02  1.250000000E+02  0.00000E+00  9.000E+00
      25     1     1     2     0     0  4.744232888E+02  1.025127240E+02 -2.029094859E+02  5.407250457E+02  1.250000000E+02  0.00000E+00  9.000E+00
      21     1     1     2   501   512 -5.453346057E+01 -5.569542362E+00  1.317697282E+01  5.637863724E+01  8.429369702E-07  0.00000E+00  9.000E+00
#rwgt            1           1   2.8964277380338913E-002           4      331458           0
</event>
<event>
      5   9999  3.19816E-02  4.71163E+01 -1.00000E+00  1.40564E-01
      21    -1     0     0   502   501  0.000000000E+00  0.000000000E+00  1.011903748E+03  1.011903748E+03  0.000000000E+00  0.00000E+00  9.000E+00
      21    -1     0     0   501   511  0.000000000E+00  0.000000000E+00 -3.615876756E+01  3.615876756E+01  0.000000000E+00  0.00000E+00  9.000E+00
      25     1     1     2     0     0 -3.767742308E+01  4.183474533E+01  7.221074374E+02  7.350060444E+02  1.250000000E+02  0.00000E+00  9.000E+00
      25     1     1     2     0     0  4.151188513E+01  5.125303575E+00  2.146965823E+02  2.519307996E+02  1.250000000E+02  0.00000E+00  9.000E+00
      21     1     1     2   502   511 -3.834462045E+00 -4.696004890E+01  3.894096055E+01  6.112567137E+01  1.066240300E-06  0.00000E+00  9.000E+00
#rwgt            1           1   6.6344667707724167E-002           4      331604           0
</event>
<event>
      5   9999  3.19816E-02  5.49284E+01 -1.00000E+00  1.36785E-01
      21    -1     0     0   502   501  0.000000000E+00  0.000000000E+00  1.486237253E+02  1.486237253E+02  0.000000000E+00  0.00000E+00  9.000E+00
      21    -1     0     0   501   512  0.000000000E+00  0.000000000E+00 -9.593729698E+02  9.593729698E+02  0.000000000E+00  0.00000E+00  9.000E+00
      25     1     1     2     0     0  1.211901656E+02  1.386197418E+02 -1.798086980E+02  2.861095191E+02  1.250000000E+02  0.00000E+00  9.000E+00
      25     1     1     2     0     0 -1.729199641E+02 -1.201493975E+02 -6.508749049E+01  2.533743735E+02  1.250000000E+02  0.00000E+00  9.000E+00
      21     1     1     2   502   512  5.172979856E+01 -1.847034423E+01 -5.658530560E+02  5.685128025E+02  1.078959322E-05  0.00000E+00  9.000E+00
#rwgt            1           1   2.9351534193620667E-002           4      331711           0
</event>
<event>
      5   9999  3.19816E-02  2.36670E+01 -1.00000E+00  1.60554E-01
      21    -1     0     0   502   501  0.000000000E+00  0.000000000E+00  1.742214126E+02  1.742214126E+02  0.000000000E+00  0.00000E+00  9.000E+00
      21    -1     0     0   501   511  0.000000000E+00  0.000000000E+00 -3.098387201E+02  3.098387201E+02  0.000000000E+00  0.00000E+00  9.000E+00
      25     1     1     2     0     0 -2.067073189E+01 -8.506482075E+01  2.092498276E+01  1.540329763E+02  1.250000000E+02  0.00000E+00  9.000E+00
      25     1     1     2     0     0  2.110528427E+00  7.037993581E+01  2.613078458E+01  1.458273212E+02  1.250000000E+02  0.00000E+00  9.000E+00
      21     1     1     2   502   511  1.856020346E+01  1.468488494E+01 -1.826730749E+02  1.841998352E+02  0.000000000E+00  0.00000E+00  9.000E+00
#rwgt            1           1   4.5109532591682169E-002           4      331809           0
</event>
<event>
      5   9999  3.19816E-02  4.16597E+02 -1.00000E+00  1.01157E-01
       1    -1     0     0   502     0  0.000000000E+00  0.000000000E+00  1.111105176E+03  1.111105176E+03  0.000000000E+00  0.00000E+00  9.000E+00
      21    -1     0     0   501   502  0.000000000E+00  0.000000000E+00 -7.691945442E+02  7.691945442E+02  0.000000000E+00  0.00000E+00  9.000E+00
      25     1     1     2     0     0 -2.531231346E+02  3.896066359E+02 -9.081593028E+01  4.896296409E+02  1.250000000E+02  0.00000E+00  9.000E+00
      25     1     1     2     0     0 -9.933618785E+01 -6.117000851E+02 -1.730680149E+02  6.554557271E+02  1.250000000E+02  0.00000E+00  9.000E+00
       1     1     1     2   501     0  3.524593225E+02  2.220934492E+02  6.057945765E+02  7.352143518E+02  1.078959322E-05  0.00000E+00  9.000E+00
#rwgt            2          17   5.0357454150975133E-004           4      332105           0
</event>
<event>
      5   9999  3.19816E-02  1.27937E+02 -1.00000E+00  1.19199E-01
      21    -1     0     0   502   511  0.000000000E+00  0.000000000E+00  3.109755819E+02  3.109755819E+02  0.000000000E+00  0.00000E+00  9.000E+00
      21    -1     0     0   501   502  0.000000000E+00  0.000000000E+00 -3.097855396E+02  3.097855396E+02  0.000000000E+00  0.00000E+00  9.000E+00
      25     1     1     2     0     0 -1.681866191E+02 -1.152828829E+02 -1.439490097E+02  2.791472718E+02  1.250000000E+02  0.00000E+00  9.000E+00
      25     1     1     2     0     0  4.026629446E+01  1.132143339E+02  1.209591631E+02  2.114118705E+02  1.250000000E+02  0.00000E+00  9.000E+00
      21     1     1     2   501   511  1.279203247E+02  2.068549023E+00  2.417988892E+01  1.302019792E+02  2.132480600E-06  0.00000E+00  9.000E+00
#rwgt            1           1   2.9728954138086343E-002           4      332124           0
</event>
<event>
      5   9999  3.19816E-02  8.99623E+01 -1.00000E+00  1.25930E-01
      21    -1     0     0   512   501  0.000000000E+00  0.000000000E+00  1.314205214E+03  1.314205214E+03  0.000000000E+00  0.00000E+00  9.000E+00
      21    -1     0     0   501   502  0.000000000E+00  0.000000000E+00 -5.065506194E+02  5.065506194E+02  0.000000000E+00  0.00000E+00  9.000E+00
      25     1     1     2     0     0  4.569387123E+02  4.107674550E+02  6.989064646E+02  9.389452248E+02  1.250000000E+02  0.00000E+00  9.000E+00
      25     1     1     2     0     0 -5.378668414E+02 -3.714756349E+02 -8.234803298E+01  6.705975581E+02  1.250000000E+02  0.00000E+00  9.000E+00
      21     1     1     2   512   502  8.092812911E+01 -3.929182006E+01  1.910961632E+02  2.112130507E+02  0.000000000E+00  0.00000E+00  9.000E+00
#rwgt            1           1   3.1901763397237014E-002           4      332182           0
</event>
<event>
      5   9999  3.19816E-02  2.09377E+01 -1.00000E+00  1.64744E-01
      21    -1     0     0   511   501  0.000000000E+00  0.000000000E+00  2.293752050E+02  2.293752050E+02  0.000000000E+00  0.00000E+00  9.000E+00
      21    -1     0     0   501   502  0.000000000E+00  0.000000000E+00 -6.085182686E+02  6.085182686E+02  0.000000000E+00  0.00000E+00  9.000E+00
      25     1     1     2     0     0 -2.184875749E+02 -1.729151056E+02 -4.275239518E+02  5.253933607E+02  1.250000000E+02  0.00000E+00  9.000E+00
      25     1     1     2     0     0  1.984833070E+02  1.667332824E+02  4.569511496E+01  2.913908958E+02  1.250000000E+02  0.00000E+00  9.000E+00
      21     1     1     2   511   502  2.000426785E+01  6.181823209E+00  2.685773268E+00  2.110921715E+01  4.969040156E-07  0.00000E+00  9.000E+00
#rwgt            1           1   2.7784377082877842E-002           4      332301           0
</event>
<event>
      5   9999  3.19816E-02  1.83417E+02 -1.00000E+00  1.13034E-01
      21    -1     0     0   512   501  0.000000000E+00  0.000000000E+00  1.499188048E+03  1.499188048E+03  0.000000000E+00  0.00000E+00  9.000E+00
      21    -1     0     0   501   502  0.000000000E+00  0.000000000E+00 -2.657803081E+02  2.657803081E+02  0.000000000E+00  0.00000E+00  9.000E+00
      25     1     1     2     0     0 -1.004706853E+02  2.668365543E+02 -1.172114971E+02  3.326554379E+02  1.250000000E+02  0.00000E+00  9.000E+00
      25     1     1     2     0     0  1.640165618E+02 -9.477945223E+01  3.652612744E+02  4.300295056E+02  1.250000000E+02  0.00000E+00  9.000E+00
      21     1     1     2   512   502 -6.354587652E+01 -1.720571021E+02  9.853579622E+02  1.002283412E+03  0.000000000E+00  0.00000E+00  9.000E+00
#rwgt            2          11   1.8785421377785171E-003           4      332491           0
</event>
<event>
      5   9999  3.19816E-02  9.30966E+01 -1.00000E+00  1.25242E-01
      21    -1     0     0   511   501  0.000000000E+00  0.000000000E+00  6.473872157E+02  6.473872157E+02  0.000000000E+00  0.00000E+00  9.000E+00
      21    -1     0     0   501   502  0.000000000E+00  0.000000000E+00 -3.552464423E+02  3.552464423E+02  0.000000000E+00  0.00000E+00  9.000E+00
      25     1     1     2     0     0  2.026856870E+02 -4.277252110E+01  3.714206739E+02  4.432711284E+02  1.250000000E+02  0.00000E+00  9.000E+00
      25     1     1     2     0     0 -1.417804876E+02 -2.763718212E+01 -2.795086178E+02  3.385492400E+02  1.250000000E+02  0.00000E+00  9.000E+00
      21     1     1     2   511   502 -6.090519940E+01  7.040970322E+01  2.002287173E+02  2.208132895E+02  2.697398305E-06  0.00000E+00  9.000E+00
#rwgt            1           1   2.8820701265674743E-002           4      332511           0
</event>
<event>
      5   9999  3.19816E-02  2.38703E+02 -1.00000E+00  1.08921E-01
      -3    -1     0     0     0   501  0.000000000E+00  0.000000000E+00  3.448322362E+02  3.448322362E+02  0.000000000E+00  0.00000E+00  9.000E+00
      21    -1     0     0   501   502  0.000000000E+00  0.000000000E+00 -1.150174344E+03  1.150174344E+03  0.000000000E+00  0.00000E+00  9.000E+00
      25     1     1     2     0     0  7.675519544E+01 -2.415936585E+02 -6.352868857E+02  6.953224309E+02  1.250000000E+02  0.00000E+00  9.000E+00
      25     1     1     2     0     0 -6.688768939E+01  4.800929154E+02 -2.339776947E+02  5.525701150E+02  1.250000000E+02  0.00000E+00  9.000E+00
      -3     1     1     2     0   502 -9.867506054E+00 -2.384992569E+02  6.392247300E+01  2.471140339E+02  1.784161275E-06  0.00000E+00  9.000E+00
#rwgt            2           3   6.0503885095372028E-005           4      332627           0
</event>
<event>
      5   9999  3.19816E-02  1.65304E+01 -1.00000E+00  1.73499E-01
      21    -1     0     0   502   511  0.000000000E+00  0.000000000E+00  3.328754244E+02  3.328754244E+02  0.000000000E+00  0.00000E+00  9.000E+00
      21    -1     0     0   501   502  0.000000000E+00  0.000000000E+00 -1.147584214E+02  1.147584214E+02  0.000000000E+00  0.00000E+00  9.000E+00
      25     1     1     2     0     0  1.157709595E+02 -4.132103541E+01  9.979945039E+01  2.017306950E+02  1.250000000E+02  0.00000E+00  9.000E+00
      25     1     1     2     0     0 -1.301770538E+02  3.321424252E+01  7.269796339E+01  1.973809644E+02  1.250000000E+02  0.00000E+00  9.000E+00
      21     1     1     2   501   511  1.440609434E+01  8.106792898E+00  4.561958926E+01  4.852218637E+01  1.168007728E-06  0.00000E+00  9.000E+00
#rwgt            1           1   3.2536507934758388E-002           4      332646           0
</event>
<event>
      5   9999  3.19816E-02  1.91107E+01 -1.00000E+00  1.68016E-01
      21    -1     0     0   512   501  0.000000000E+00  0.000000000E+00  7.052720837E+01  7.052720837E+01  0.000000000E+00  0.00000E+00  9.000E+00
      21    -1     0     0   501   502  0.000000000E+00  0.000000000E+00 -1.286302972E+03  1.286302972E+03  0.000000000E+00  0.00000E+00  9.000E+00
      25     1     1     2     0     0 -2.172294523E+02 -2.907682684E+01 -6.084014033E+02  6.586435792E+02  1.250000000E+02  0.00000E+00  9.000E+00
      25     1     1     2     0     0  1.981868065E+02  2.746514430E+01 -6.275300046E+02  6.704112552E+02  1.250000000E+02  0.00000E+00  9.000E+00
      21     1     1     2   512   502  1.904264576E+01  1.611682544E+00  2.015564399E+01  2.777534632E+01  1.066240300E-06  0.00000E+00  9.000E+00
#rwgt            1           1   3.0207729635076345E-002           4      332752           0
</event>
<event>
      5   9999  3.19816E-02  3.83142E+01 -1.00000E+00  1.46010E-01
      21    -1     0     0   502   511  0.000000000E+00  0.000000000E+00  2.583701818E+02  2.583701818E+02  0.000000000E+00  0.00000E+00  9.000E+00
      21    -1     0     0   501   502  0.000000000E+00  0.000000000E+00 -8.986740432E+02  8.986740432E+02  0.000000000E+00  0.00000E+00  9.000E+00
      25     1     1     2     0     0 -1.909531156E+02 -2.095930893E+02 -7.576784460E+02  8.185926844E+02  1.250000000E+02  0.00000E+00  9.000E+00
      25     1     1     2     0     0  1.799887327E+02  1.728812189E+02  1.041341191E+02  2.979140388E+02  1.250000000E+02  0.00000E+00  9.000E+00
      21     1     1     2   501   511  1.096438295E+01  3.671187036E+01  1.324046549E+01  4.053750171E+01  8.085167388E-07  0.00000E+00  9.000E+00
#rwgt            1           1   2.5532656990784421E-002           4      332886           0
</event>
<event>
      5   9999  3.19816E-02  1.99599E+02 -1.00000E+00  1.11680E-01
      21    -1     0     0   502   512  0.000000000E+00  0.000000000E+00  1.331939495E+02  1.331939495E+02  0.000000000E+00  0.00000E+00  9.000E+00
      21    -1     0     0   501   502  0.000000000E+00  0.000000000E+00 -1.911752876E+03  1.911752876E+03  0.000000000E+00  0.00000E+00  9.000E+00
      25     1     1     2     0     0 -1.853504956E+02 -2.779575287E+02 -1.035636475E+03  1.095346110E+03  1.250000000E+02  0.00000E+00  9.000E+00
      25     1     1     2     0     0  3.387409403E+02  1.502419401E+02 -4.686982410E+02  6.104269869E+02  1.250000000E+02  0.00000E+00  9.000E+00
      21     1     1     2   501   512 -1.533904447E+02  1.277155886E+02 -2.742242113E+02  3.391737286E+02  5.394796609E-06  0.00000E+00  9.000E+00
#rwgt            1           1   3.0110856753469493E-002           4      333064           0
</event>
<event>
      5   9999  3.19816E-02  4.91721E+01 -1.00000E+00  1.39491E-01
       2    -1     0     0   502     0  0.000000000E+00  0.000000000E+00  7.374280883E+02  7.374280883E+02  0.000000000E+00  0.00000E+00  9.000E+00
      21    -1     0     0   501   502  0.000000000E+00  0.000000000E+00 -1.975789692E+02  1.975789692E+02  0.000000000E+00  0.00000E+00  9.000E+00
      25     1     1     2     0     0 -3.163444177E+02  1.913944918E+01  4.389458067E+02  5.556424483E+02  1.250000000E+02  0.00000E+00  9.000E+00
      25     1     1     2     0     0  2.735206323E+02 -4.330592921E+01  4.880712891E+01  3.077272748E+02  1.250000000E+02  0.00000E+00  9.000E+00
       2     1     1     2   501     0  4.282378544E+01  2.416648003E+01  5.209618348E+01  7.163733447E+01  0.000000000E+00  0.00000E+00  9.000E+00
#rwgt            1           1   2.9065436347073280E-002           4      333102           0
</event>
<event>
      5   9999  3.19816E-02  1.58163E+02 -1.00000E+00  1.15489E-01
      21    -1     0     0   502   501  0.000000000E+00  0.000000000E+00  1.080152282E+03  1.080152282E+03  0.000000000E+00  0.00000E+00  9.000E+00
      21    -1     0     0   511   502  0.000000000E+00  0.000000000E+00 -1.712193544E+03  1.712193544E+03  0.000000000E+00  0.00000E+00  9.000E+00
      25     1     1     2     0     0  4.299601623E+02  1.211946451E+03 -4.702467193E+02  1.374931605E+03  1.250000000E+02  0.00000E+00  9.000E+00
      25     1     1     2     0     0 -3.000166476E+02 -1.121778245E+03  3.064925742E+01  1.168315367E+03  1.250000000E+02  0.00000E+00  9.000E+00
      21     1     1     2   511   501 -1.299435147E+02 -9.016820677E+01 -1.924437999E+02  2.490988531E+02  4.672030912E-06  0.00000E+00  9.000E+00
#rwgt            1           1   6.8332128861101016E-002           4      333237           0
</event>
<event>
      5   9999  3.19816E-02  9.69710E+01 -1.00000E+00  1.24432E-01
      21    -1     0     0   512   501  0.000000000E+00  0.000000000E+00  1.697514408E+02  1.697514408E+02  0.000000000E+00  0.00000E+00  9.000E+00
      21    -1     0     0   501   502  0.000000000E+00  0.000000000E+00 -1.647302472E+03  1.647302472E+03  0.000000000E+00  0.00000E+00  9.000E+00
      25     1     1     2     0     0  2.489845945E+02 -2.370151267E+02 -1.907909059E+02  4.125477771E+02  1.250000000E+02  0.00000E+00  9.000E+00
      25     1     1     2     0     0 -2.904519153E+02  3.246726542E+02 -1.156363219E+03  1.242004647E+03  1.250000000E+02  0.00000E+00  9.000E+00
      21     1     1     2   512   502  4.146732083E+01 -8.765752753E+01 -1.303969061E+02  1.625014891E+02  1.907348633E-06  0.00000E+00  9.000E+00
#rwgt            1           1   1.3465489223236312E-002           4      333319           0
</event>
<event>
      5   9999  3.19816E-02  7.56490E+02 -1.00000E+00  9.39982E-02
      21    -1     0     0   502   501  0.000000000E+00  0.000000000E+00  4.708435797E+02  4.708435797E+02  0.000000000E+00  0.00000E+00  9.000E+00
      21    -1     0     0   511   502  0.000000000E+00  0.000000000E+00 -3.130811295E+03  3.130811295E+03  0.000000000E+00  0.00000E+00  9.000E+00
      25     1     1     2     0     0 -6.157965027E+01  2.509477450E+02  1.800802245E+02  3.388520493E+02  1.250000000E+02  0.00000E+00  9.000E+00
      25     1     1     2     0     0  5.720661827E+01  5.055292758E+02 -2.814279518E+02  5.946924734E+02  1.250000000E+02  0.00000E+00  9.000E+00
      21     1     1     2   511   501  4.373032005E+00 -7.564770209E+02 -2.558619988E+03  2.668110352E+03  3.051757812E-05  0.00000E+00  9.000E+00
#rwgt            2          11   2.3915605342662064E-003           4      333615           0
</event>
<event>
      5   9999  3.19816E-02  4.54104E+01 -1.00000E+00  1.41504E-01
      21    -1     0     0   502   501  0.000000000E+00  0.000000000E+00  2.508853977E+02  2.508853977E+02  0.000000000E+00  0.00000E+00  9.000E+00
      21    -1     0     0   501   512  0.000000000E+00  0.000000000E+00 -1.425424505E+03  1.425424505E+03  0.000000000E+00  0.00000E+00  9.000E+00
      25     1     1     2     0     0 -4.484969367E+02  3.262976746E+02 -6.480333467E+02  8.620857806E+02  1.250000000E+02  0.00000E+00  9.000E+00
      25     1     1     2     0     0  4.715435905E+02 -2.871702445E+02 -4.416555140E+02  7.179865599E+02  1.250000000E+02  0.00000E+00  9.000E+00
      21     1     1     2   502   512 -2.304665384E+01 -3.912743001E+01 -8.485024622E+01  9.623756188E+01  1.348699152E-06  0.00000E+00  9.000E+00
#rwgt            1           1   2.8625505739199923E-002           4      333635           0
</event>
<event>
      5   9999  3.19816E-02  1.57697E+01 -1.00000E+00  1.75361E-01
      21    -1     0     0   502   501  0.000000000E+00  0.000000000E+00  1.102745804E+03  1.102745804E+03  0.000000000E+00  0.00000E+00  9.000E+00
      21    -1     0     0   511   502  0.000000000E+00  0.000000000E+00 -5.461444866E+02  5.461444866E+02  0.000000000E+00  0.00000E+00  9.000E+00
      25     1     1     2     0     0 -3.232880302E+02 -6.373383241E+02  5.536776168E+02  9.126331098E+02  1.250000000E+02  0.00000E+00  9.000E+00
      25     1     1     2     0     0  3.076507060E+02  6.393770272E+02  3.463875623E+00  7.204782705E+02  1.250000000E+02  0.00000E+00  9.000E+00
      21     1     1     2   511   501  1.563732425E+01 -2.038703137E+00 -5.401750018E-01  1.577891027E+01  1.680927600E-07  0.00000E+00  9.000E+00
#rwgt            1           1   2.9552656611678833E-002           4      333758           0
</event>
<event>
      5   9999  3.19816E-02  6.19127E+01 -1.00000E+00  1.33979E-01
      21    -1     0     0   502   501  0.000000000E+00  0.000000000E+00  6.114902386E+02  6.114902386E+02  0.000000000E+00  0.00000E+00  9.000E+00
       2    -1     0     0   501     0  0.000000000E+00  0.000000000E+00 -4.013413472E+02  4.013413472E+02  0.000000000E+00  0.00000E+00  9.000E+00
      25     1     1     2     0     0  4.693916543E+01 -2.522016108E+01  2.318649727E+02  2.687484090E+02  1.250000000E+02  0.00000E+00  9.000E+00
      25     1     1     2     0     0  1.497249312E+01  2.485833778E+01  3.471234284E+02  3.700834866E+02  1.250000000E+02  0.00000E+00  9.000E+00
       2     1     1     2   502     0 -6.191165856E+01  3.618232941E-01 -3.688395097E+02  3.739996902E+02  5.394796609E-06  0.00000E+00  9.000E+00
#rwgt            1           1   3.0775208897706138E-003           4      334085           0
</event>
<event>
      5   9999  3.19816E-02  1.77852E+01 -1.00000E+00  1.70687E-01
      21    -1     0     0   502   501  0.000000000E+00  0.000000000E+00  2.371137509E+02  2.371137509E+02  0.000000000E+00  0.00000E+00  9.000E+00
      21    -1     0     0   501   511  0.000000000E+00  0.000000000E+00 -5.404497099E+02  5.404497099E+02  0.000000000E+00  0.00000E+00  9.000E+00
      25     1     1     2     0     0  1.840181390E+02 -2.311760177E+01  1.417425795E+02  2.647887042E+02  1.250000000E+02  0.00000E+00  9.000E+00
      25     1     1     2     0     0 -1.852973365E+02  4.085675909E+01 -3.589037649E+02  4.247838158E+02  1.250000000E+02  0.00000E+00  9.000E+00
      21     1     1     2   502   511  1.279197519E+00 -1.773915732E+01 -8.617477366E+01  8.799094081E+01  1.651812370E-06  0.00000E+00  9.000E+00
#rwgt            1           1   2.8494055753131513E-002           4      334128           0
</event>
<event>
      5   9999  3.19816E-02  2.29598E+01 -1.00000E+00  1.61571E-01
      21    -1     0     0   502   501  0.000000000E+00  0.000000000E+00  7.638457639E+02  7.638457639E+02  0.000000000E+00  0.00000E+00  9.000E+00
      21    -1     0     0   501   512  0.000000000E+00  0.000000000E+00 -3.138794843E+02  3.138794843E+02  0.000000000E+00  0.00000E+00  9.000E+00
      25     1     1     2     0     0 -7.598967161E+01 -2.175383380E+00  6.892774352E+02  7.046329151E+02  1.250000000E+02  0.00000E+00  9.000E+00
      25     1     1     2     0     0  5.840742890E+01  1.694074534E+01 -6.509283565E+00  1.391610124E+02  1.250000000E+02  0.00000E+00  9.000E+00
      21     1     1     2   502   512  1.758224271E+01 -1.476536196E+01 -2.328018720E+02  2.339313206E+02  6.031565972E-06  0.00000E+00  9.000E+00
#rwgt            1           1   2.7438423783509521E-002           4      334317           0
</event>
<event>
      5   9999  3.19816E-02  1.90056E+01 -1.00000E+00  1.68218E-01
      21    -1     0     0   502   511  0.000000000E+00  0.000000000E+00  1.177965547E+02  1.177965547E+02  0.000000000E+00  0.00000E+00  9.000E+00
      21    -1     0     0   501   502  0.000000000E+00  0.000000000E+00 -2.467425692E+02  2.467425692E+02  0.000000000E+00  0.00000E+00  9.000E+00
      25     1     1     2     0     0 -6.427582971E+01  3.910257677E+01  2.598629370E+00  1.459182876E+02  1.250000000E+02  0.00000E+00  9.000E+00
      25     1     1     2     0     0  6.724417046E+01 -2.033024106E+01 -1.375430098E+02  1.986911591E+02  1.250000000E+02  0.00000E+00  9.000E+00
      21     1     1     2   501   511 -2.968340752E+00 -1.877233572E+01  5.998366022E+00  1.992967712E+01  3.153981341E-07  0.00000E+00  9.000E+00
#rwgt            1           1   7.2274508025372081E-002           4      334494           0
</event>
<event>
      5   9999  3.19816E-02  7.48554E+01 -1.00000E+00  1.29762E-01
      21    -1     0     0   512   501  0.000000000E+00  0.000000000E+00  1.285917840E+02  1.285917840E+02  0.000000000E+00  0.00000E+00  9.000E+00
      21    -1     0     0   501   502  0.000000000E+00  0.000000000E+00 -6.266165073E+02  6.266165073E+02  0.000000000E+00  0.00000E+00  9.000E+00
      25     1     1     2     0     0  1.132862371E+02  7.961737943E+01 -5.430610579E+00  1.866204441E+02  1.250000000E+02  0.00000E+00  9.000E+00
      25     1     1     2     0     0 -6.193027509E+01 -1.340773625E+02 -4.280479904E+02  4.697469321E+02  1.250000000E+02  0.00000E+00  9.000E+00
      21     1     1     2   512   502 -5.135596198E+01  5.445998308E+01 -6.454612234E+01  9.884091509E+01  1.651812370E-06  0.00000E+00  9.000E+00
#rwgt            1           1   3.1066575687678826E-002           4      334646           0
</event>
<event>
      5   9999  3.19816E-02  2.19515E+01 -1.00000E+00  1.63101E-01
      21    -1     0     0   502   511  0.000000000E+00  0.000000000E+00  1.606878002E+03  1.606878002E+03  0.000000000E+00  0.00000E+00  9.000E+00
      21    -1     0     0   501   502  0.000000000E+00  0.000000000E+00 -2.492937923E+02  2.492937923E+02  0.000000000E+00  0.00000E+00  9.000E+00
      25     1     1     2     0     0  4.795677400E+02  8.928539593E+01  1.148667207E+03  1.254200323E+03  1.250000000E+02  0.00000E+00  9.000E+00
      25     1     1     2     0     0 -4.587104028E+02 -9.612948338E+01  1.056933473E+02  4.964395178E+02  1.250000000E+02  0.00000E+00  9.000E+00
      21     1     1     2   501   511 -2.085733727E+01  6.844087455E+00  1.032236557E+02  1.055319532E+02  1.348699152E-06  0.00000E+00  9.000E+00
#rwgt            1           1   2.9571292809022178E-002           4      334724           0
</event>
<event>
      5   9999  3.19816E-02  9.40957E+01 -1.00000E+00  1.25028E-01
      21    -1     0     0   512   501  0.000000000E+00  0.000000000E+00  4.811056924E+02  4.811056924E+02  0.000000000E+00  0.00000E+00  9.000E+00
      21    -1     0     0   501   502  0.000000000E+00  0.000000000E+00 -2.613918459E+02  2.613918459E+02  0.000000000E+00  0.00000E+00  9.000E+00
      25     1     1     2     0     0 -1.720986832E+02  1.529907022E+02  8.656982293E+00  2.621527323E+02  1.250000000E+02  0.00000E+00  9.000E+00
      25     1     1     2     0     0  1.965192648E+02 -2.438622615E+02  1.591886194E+02  3.729003091E+02  1.250000000E+02  0.00000E+00  9.000E+00
      21     1     1     2   512   502 -2.442058157E+01  9.087155929E+01  5.186824471E+01  1.074444968E+02  2.523185073E-06  0.00000E+00  9.000E+00
#rwgt            1           1   2.6269730152068217E-002           4      334865           0
</event>
<event>
      5   9999  3.19816E-02  9.06119E+01 -1.00000E+00  1.25785E-01
      21    -1     0     0   502   501  0.000000000E+00  0.000000000E+00  2.456777671E+03  2.456777671E+03  0.000000000E+00  0.00000E+00  9.000E+00
       2    -1     0     0   501     0  0.000000000E+00  0.000000000E+00 -2.778225422E+02  2.778225422E+02  0.000000000E+00  0.00000E+00  9.000E+00
      25     1     1     2     0     0  7.210614155E+01 -2.231279078E+02  2.278810251E+03  2.294250753E+03  1.250000000E+02  0.00000E+00  9.000E+00
      25     1     1     2     0     0 -1.623001316E+02  2.318205701E+02 -5.334254827E+00  3.094116412E+02  1.250000000E+02  0.00000E+00  9.000E+00
       2     1     1     2   502     0  9.019399010E+01 -8.692662306E+00 -9.452086685E+01  1.309378192E+02  2.336015456E-06  0.00000E+00  9.000E+00
#rwgt            1           1   3.2199153399459557E-002           4      334947           0
</event>
<event>
      5   9999  3.19816E-02  2.90982E+02 -1.00000E+00  1.06024E-01
      21    -1     0     0   502   501  0.000000000E+00  0.000000000E+00  1.521792205E+03  1.521792205E+03  0.000000000E+00  0.00000E+00  9.000E+00
      21    -1     0     0   511   502  0.000000000E+00  0.000000000E+00 -5.421465831E+02  5.421465831E+02  0.000000000E+00  0.00000E+00  9.000E+00
      25     1     1     2     0     0  2.456660302E+02 -4.299233323E+02 -1.069838246E+02  5.217819552E+02  1.250000000E+02  0.00000E+00  9.000E+00
      25     1     1     2     0     0 -2.338250458E+02  7.206645462E+02  9.475818571E+02  1.219658934E+03  1.250000000E+02  0.00000E+00  9.000E+00
      21     1     1     2   511   501 -1.184098441E+01 -2.907412139E+02  1.390475892E+02  3.224978984E+02  1.907348633E-06  0.00000E+00  9.000E+00
#rwgt            2          11   5.3554292179997555E-003           4      335188           0
</event>
<event>
      5   9999  3.19816E-02  8.16683E+01 -1.00000E+00  1.27917E-01
      21    -1     0     0   502   501  0.000000000E+00  0.000000000E+00  1.242684753E+03  1.242684753E+03  0.000000000E+00  0.00000E+00  9.000E+00
      21    -1     0     0   512   502  0.000000000E+00  0.000000000E+00 -1.642058036E+02  1.642058036E+02  0.000000000E+00  0.00000E+00  9.000E+00
      25     1     1     2     0     0  2.527060330E+02  1.944920634E+02  4.912361021E+02  5.988534127E+02  1.250000000E+02  0.00000E+00  9.000E+00
      25     1     1     2     0     0 -2.189424975E+02 -2.688542226E+02  6.189935020E+02  7.204140238E+02  1.250000000E+02  0.00000E+00  9.000E+00
      21     1     1     2   512   501 -3.376353543E+01  7.436215921E+01 -3.175065493E+01  8.762311987E+01  1.066240300E-06  0.00000E+00  9.000E+00
#rwgt            1           1   2.8739505735441154E-002           4      335208           0
</event>
<event>
      5   9999  3.19816E-02  2.29007E+01 -1.00000E+00  1.61658E-01
      21    -1     0     0   502   501  0.000000000E+00  0.000000000E+00  3.118158402E+02  3.118158402E+02  0.000000000E+00  0.00000E+00  9.000E+00
      21    -1     0     0   501   511  0.000000000E+00  0.000000000E+00 -8.801115183E+02  8.801115183E+02  0.000000000E+00  0.00000E+00  9.000E+00
      25     1     1     2     0     0  4.075810700E+02 -1.831440965E+02 -4.551710949E+02  6.499767799E+02  1.250000000E+02  0.00000E+00  9.000E+00
      25     1     1     2     0     0 -4.168514722E+02  2.040845560E+02 -6.037425714E+01  4.844437086E+02  1.250000000E+02  0.00000E+00  9.000E+00
      21     1     1     2   502   511  9.270402219E+00 -2.094045952E+01 -5.275032599E+01  5.750686998E+01  6.743495762E-07  0.00000E+00  9.000E+00
#rwgt            1           1   2.6317591029711804E-002           4      335293           0
</event>
<event>
      5   9999  3.19816E-02  5.81306E+01 -1.00000E+00  1.35442E-01
      21    -1     0     0   502   512  0.000000000E+00  0.000000000E+00  5.024283630E+02  5.024283630E+02  0.000000000E+00  0.00000E+00  9.000E+00
      21    -1     0     0   501   502  0.000000000E+00  0.000000000E+00 -7.507247921E+02  7.507247921E+02  0.000000000E+00  0.00000E+00  9.000E+00
      25     1     1     2     0     0 -3.006718470E+02 -4.199776440E+02 -2.745138618E+02  5.981368082E+02  1.250000000E+02  0.00000E+00  9.000E+00
      25     1     1     2     0     0  3.184970037E+02  3.646474104E+02 -1.055003985E+02  5.110414948E+02  1.250000000E+02  0.00000E+00  9.000E+00
      21     1     1     2   501   512 -1.782515669E+01  5.533023358E+01  1.317178313E+02  1.439748521E+02  2.697398305E-06  0.00000E+00  9.000E+00
#rwgt            1           1   3.0238002750323626E-002           4      335537           0
</event>
<event>
      5   9999  3.19816E-02  1.08056E+02 -1.00000E+00  1.22333E-01
      21    -1     0     0   502   501  0.000000000E+00  0.000000000E+00  6.443102081E+02  6.443102081E+02  0.000000000E+00  0.00000E+00  9.000E+00
      21    -1     0     0   511   502  0.000000000E+00  0.000000000E+00 -3.089244531E+02  3.089244531E+02  0.000000000E+00  0.00000E+00  9.000E+00
      25     1     1     2     0     0 -8.884588364E+01 -3.628142704E+02  3.788289047E+02  5.465017153E+02  1.250000000E+02  0.00000E+00  9.000E+00
      25     1     1     2     0     0  4.455599683E+01  2.642520472E+02 -4.198369668E+01  2.986670589E+02  1.250000000E+02  0.00000E+00  9.000E+00
      21     1     1     2   511   501  4.428988681E+01  9.856222322E+01 -1.459452989E+00  1.080658870E+02  2.588344996E-06  0.00000E+00  9.000E+00
#rwgt            1           1   3.1802074809844733E-002           4      335669           0
</event>
<event>
      5   9999  3.19816E-02  9.63119E+01 -1.00000E+00  1.24566E-01
      21    -1     0     0   512   501  0.000000000E+00  0.000000000E+00  1.518280037E+02  1.518280037E+02  0.000000000E+00  0.00000E+00  9.000E+00
      21    -1     0     0   501   502  0.000000000E+00  0.000000000E+00 -1.706370009E+03  1.706370009E+03  0.000000000E+00  0.00000E+00  9.000E+00
      25     1     1     2     0     0  2.700224999E+02  2.772516379E+02 -9.340163342E+02  1.018720832E+03  1.250000000E+02  0.00000E+00  9.000E+00
      25     1     1     2     0     0 -2.521641303E+02 -3.718933786E+02 -4.814282622E+02  6.702906871E+02  1.250000000E+02  0.00000E+00  9.000E+00
      21     1     1     2   512   502 -1.785836954E+01  9.464174065E+01 -1.390974093E+02  1.691864939E+02  0.000000000E+00  0.00000E+00  9.000E+00
#rwgt            1           1   2.6380188855896481E-002           4      335722           0
</event>
<event>
      5   9999  3.19816E-02  6.84092E+00 -1.00000E+00  2.16974E-01
      21    -1     0     0   511   501  0.000000000E+00  0.000000000E+00  4.061577163E+03  4.061577163E+03  0.000000000E+00  0.00000E+00  9.000E+00
      21    -1     0     0   501   502  0.000000000E+00  0.000000000E+00 -2.576236589E+01  2.576236589E+01  0.000000000E+00  0.00000E+00  9.000E+00
      25     1     1     2     0     0 -8.987827660E+01 -1.164685391E+02  3.432400186E+03  3.437824757E+03  1.250000000E+02  0.00000E+00  9.000E+00
      25     1     1     2     0     0  8.895925781E+01  1.232474435E+02  3.980969008E+02  4.440831277E+02  1.250000000E+02  0.00000E+00  9.000E+00
      21     1     1     2   511   502  9.190187901E-01 -6.778904422E+00  2.053177106E+02  2.054316442E+02  0.000000000E+00  0.00000E+00  9.000E+00
#rwgt            1           1   1.0262443523985683E-002           4      335805           0
</event>
<event>
      5   9999  3.19816E-02  8.43893E+01 -1.00000E+00  1.27237E-01
      21    -1     0     0   502   512  0.000000000E+00  0.000000000E+00  1.668379369E+03  1.668379369E+03  0.000000000E+00  0.00000E+00  9.000E+00
      21    -1     0     0   501   502  0.000000000E+00  0.000000000E+00 -2.774011030E+02  2.774011030E+02  0.000000000E+00  0.00000E+00  9.000E+00
      25     1     1     2     0     0 -3.546307232E+02  2.257738197E+02 -1.354345811E+01  4.387997183E+02  1.250000000E+02  0.00000E+00  9.000E+00
      25     1     1     2     0     0  3.144590918E+02 -2.999883519E+02  1.063118651E+03  1.155302470E+03  1.250000000E+02  0.00000E+00  9.000E+00
      21     1     1     2   501   512  4.017163145E+01  7.421453216E+01  3.414030739E+02  3.516782843E+02  3.814697266E-06  0.00000E+00  9.000E+00
#rwgt            1           1   3.3072475583654892E-002           4      336082           0
</event>
<event>
      5   9999  3.19816E-02  4.86162E+01 -1.00000E+00  1.39775E-01
      21    -1     0     0   502   511  0.000000000E+00  0.000000000E+00  1.868899127E+02  1.868899127E+02  0.000000000E+00  0.00000E+00  9.000E+00
      21    -1     0     0   501   502  0.000000000E+00  0.000000000E+00 -6.152469054E+02  6.152469054E+02  0.000000000E+00  0.00000E+00  9.000E+00
      25     1     1     2     0     0 -1.766220543E+02 -1.817150864E+02 -2.912051324E+02  4.057599683E+02  1.250000000E+02  0.00000E+00  9.000E+00
      25     1     1     2     0     0  2.233613565E+02  1.950930073E+02 -1.305944781E+02  3.473204497E+02  1.250000000E+02  0.00000E+00  9.000E+00
      21     1     1     2   501   511 -4.673930216E+01 -1.337792092E+01 -6.557382174E+00  4.905640014E+01  6.078504936E-07  0.00000E+00  9.000E+00
#rwgt            1           1   2.6859348218461025E-002           4      336183           0
</event>
<event>
      5   9999  3.19816E-02  9.05525E+01 -1.00000E+00  1.25798E-01
      21    -1     0     0   502   512  0.000000000E+00  0.000000000E+00  8.019115462E+02  8.019115462E+02  0.000000000E+00  0.00000E+00  9.000E+00
      21    -1     0     0   501   502  0.000000000E+00  0.000000000E+00 -6.911675913E+02  6.911675913E+02  0.000000000E+00  0.00000E+00  9.000E+00
      25     1     1     2     0     0 -3.582681305E+02 -4.321835144E+02 -3.472550191E+02  6.718256409E+02  1.250000000E+02  0.00000E+00  9.000E+00
      25     1     1     2     0     0  2.959258639E+02  3.665086164E+02  1.649346290E+02  5.145183327E+02  1.250000000E+02  0.00000E+00  9.000E+00
      21     1     1     2   501   512  6.234226662E+01  6.567489798E+01  2.930643450E+02  3.067351639E+02  3.814697266E-06  0.00000E+00  9.000E+00
#rwgt            1           1   2.7608640833207878E-002           4      336279           0
</event>
<event>
      5   9999  3.19816E-02  7.05384E+01 -1.00000E+00  1.31052E-01
      -2    -1     0     0     0   501  0.000000000E+00  0.000000000E+00  1.171411971E+02  1.171411971E+02  0.000000000E+00  0.00000E+00  9.000E+00
      21    -1     0     0   501   502  0.000000000E+00  0.000000000E+00 -4.414573611E+02  4.414573611E+02  0.000000000E+00  0.00000E+00  9.000E+00
      25     1     1     2     0     0  2.856380166E+01  2.493896010E+01 -8.876270265E+01  1.579292876E+02  1.250000000E+02  0.00000E+00  9.000E+00
      25     1     1     2     0     0 -2.044919790E+01 -9.500902240E+01 -2.768517007E+02  3.189306323E+02  1.250000000E+02  0.00000E+00  9.000E+00
      -2     1     1     2     0   502 -8.114603753E+00  7.007006230E+01  4.129823928E+01  8.173863831E+01  1.651812370E-06  0.00000E+00  9.000E+00
#rwgt            1           1   4.1298239431051938E-002           4      336381           0
</event>
<event>
      5   9999  3.19816E-02  3.17521E+02 -1.00000E+00  1.04797E-01
      21    -1     0     0   502   501  0.000000000E+00  0.000000000E+00  6.935733894E+02  6.935733894E+02  0.000000000E+00  0.00000E+00  9.000E+00
      21    -1     0     0   511   502  0.000000000E+00  0.000000000E+00 -5.895608590E+02  5.895608590E+02  0.000000000E+00  0.00000E+00  9.000E+00
      25     1     1     2     0     0  2.369295902E+02 -9.189441423E+01  4.904106471E+02  5.663107070E+02  1.250000000E+02  0.00000E+00  9.000E+00
      25     1     1     2     0     0  7.795921208E+01  5.109359310E+01  6.165044629E+01  1.676722145E+02  1.250000000E+02  0.00000E+00  9.000E+00
      21     1     1     2   511   501 -3.148888023E+02  4.080082113E+01 -4.480485631E+02  5.491513268E+02  9.344061824E-06  0.00000E+00  9.000E+00
#rwgt            1           1   2.5869130443061574E-002           4      336414           0
</event>
<event>
      5   9999  3.19816E-02  4.38204E+01 -1.00000E+00  1.42425E-01
       1    -1     0     0   502     0  0.000000000E+00  0.000000000E+00  1.039232480E+03  1.039232480E+03  0.000000000E+00  0.00000E+00  9.000E+00
      21    -1     0     0   501   502  0.000000000E+00  0.000000000E+00 -1.095543487E+03  1.095543487E+03  0.000000000E+00  0.00000E+00  9.000E+00
      25     1     1     2     0     0 -1.440761006E+02  9.469613076E+01 -1.041623945E+03  1.063170129E+03  1.250000000E+02  0.00000E+00  9.000E+00
      25     1     1     2     0     0  1.005012690E+02 -9.006363293E+01  1.561556517E+02  2.412914226E+02  1.250000000E+02  0.00000E+00  9.000E+00
       1     1     1     2   501     0  4.357483168E+01 -4.632497828E+00  8.291572852E+02  8.303144161E+02  0.000000000E+00  0.00000E+00  9.000E+00
#rwgt            1           1   2.9264409213518545E-002           4      336463           0
</event>
<event>
      5   9999  8.82772E-02  2.58128E+02 -1.00000E+00  1.07758E-01
      21    -1     0     0   502   501  0.000000000E+00  0.000000000E+00  2.032352691E+03  2.032352691E+03  0.000000000E+00  0.00000E+00  9.000E+00
      21    -1     0     0   511   502  0.000000000E+00  0.000000000E+00 -9.149815865E+02  9.149815865E+02  0.000000000E+00  0.00000E+00  9.000E+00
      25     1     1     2     0     0 -2.975295812E+02 -1.362133891E+02  9.490757568E+02  1.011655935E+03  1.250000000E+02  0.00000E+00  9.000E+00
      25     1     1     2     0     0  4.246625336E+01  9.655547077E+01  1.026523606E+03  1.039472008E+03  1.250000000E+02  0.00000E+00  9.000E+00
      21     1     1     2   511   501  2.550633278E+02  3.965791830E+01 -8.582282579E+02  8.962063347E+02  1.525878906E-05  0.00000E+00  9.000E+00
#rwgt            2          11  0.51232673911636106                4      336577           0
</event>
<event>
      5   9999  3.19816E-02  3.30686E+01 -1.00000E+00  1.50159E-01
      21    -1     0     0   502   512  0.000000000E+00  0.000000000E+00  8.457202319E+02  8.457202319E+02  0.000000000E+00  0.00000E+00  9.000E+00
      21    -1     0     0   501   502  0.000000000E+00  0.000000000E+00 -3.488269736E+02  3.488269736E+02  0.000000000E+00  0.00000E+00  9.000E+00
      25     1     1     2     0     0 -3.930263836E+00 -9.303258225E+01 -2.613915428E+02  3.043370614E+02  1.250000000E+02  0.00000E+00  9.000E+00
      25     1     1     2     0     0  3.307403427E+01  1.086585422E+02  4.316184336E+01  1.743230199E+02  1.250000000E+02  0.00000E+00  9.000E+00
      21     1     1     2   501   512 -2.914377043E+01 -1.562595992E+01  7.151229577E+02  7.158871242E+02  7.629394531E-06  0.00000E+00  9.000E+00
#rwgt            1           1   2.5116740042458872E-002           4      336612           0
</event>
<event>
      5   9999  3.19816E-02  1.43063E+02 -1.00000E+00  1.17214E-01
      21    -1     0     0   502   501  0.000000000E+00  0.000000000E+00  6.019998445E+02  6.019998445E+02  0.000000000E+00  0.00000E+00  9.000E+00
       2    -1     0     0   501     0  0.000000000E+00  0.000000000E+00 -2.972425302E+03  2.972425302E+03  0.000000000E+00  0.00000E+00  9.000E+00
      25     1     1     2     0     0  6.837772714E+01  7.030521394E+02 -2.717203895E+02  7.670819997E+02  1.250000000E+02  0.00000E+00  9.000E+00
      25     1     1     2     0     0  6.864751811E+01 -7.441749308E+02 -5.616055306E+01  7.597945888E+02  1.250000000E+02  0.00000E+00  9.000E+00
       2     1     1     2   502     0 -1.370252452E+02  4.112279143E+01 -2.042544515E+03  2.047548558E+03  0.000000000E+00  0.00000E+00  9.000E+00
#rwgt            2          13   4.9148565794967115E-003           4      336689           0
</event>
<event>
      5   9999  3.19816E-02  1.44779E+01 -1.00000E+00  1.78845E-01
      21    -1     0     0   502   511  0.000000000E+00  0.000000000E+00  3.984749593E+02  3.984749593E+02  0.000000000E+00  0.00000E+00  9.000E+00
      21    -1     0     0   501   502  0.000000000E+00  0.000000000E+00 -1.371943735E+03  1.371943735E+03  0.000000000E+00  0.00000E+00  9.000E+00
      25     1     1     2     0     0 -2.378303780E+01  3.064941896E+02 -1.175520503E+03  1.221465421E+03  1.250000000E+02  0.00000E+00  9.000E+00
      25     1     1     2     0     0  2.285664541E+01 -2.920459360E+02 -2.682287241E+01  3.196212156E+02  1.250000000E+02  0.00000E+00  9.000E+00
      21     1     1     2   501   511  9.263923896E-01 -1.444825363E+01  2.288745999E+02  2.293320577E+02  3.814697266E-06  0.00000E+00  9.000E+00
#rwgt            1           1   3.4387395827404674E-002           4      336738           0
</event>
<event>
      5   9999  3.19816E-02  3.96020E+01 -1.00000E+00  1.45110E-01
      21    -1     0     0   502   501  0.000000000E+00  0.000000000E+00  1.085362533E+03  1.085362533E+03  0.000000000E+00  0.00000E+00  9.000E+00
      21    -1     0     0   501   512  0.000000000E+00  0.000000000E+00 -2.092052993E+03  2.092052993E+03  0.000000000E+00  0.00000E+00  9.000E+00
      25     1     1     2     0     0 -1.530636578E+02 -6.813678316E+02  5.780010229E+01  7.117980452E+02  1.250000000E+02  0.00000E+00  9.000E+00
      25     1     1     2     0     0  1.158608986E+02  6.949424631E+02  5.175431681E+02  8.830881642E+02  1.250000000E+02  0.00000E+00  9.000E+00
      21     1     1     2   502   512  3.720275914E+01 -1.357463146E+01 -1.582033731E+03  1.582529317E+03  0.000000000E+00  0.00000E+00  9.000E+00
#rwgt            1           1   2.8039351213285910E-002           4      337027           0
</event>
<event>
      5   9999  3.19816E-02  2.18553E+01 -1.00000E+00  1.63252E-01
      21    -1     0     0   502   501  0.000000000E+00  0.000000000E+00  2.982496399E+03  2.982496399E+03  0.000000000E+00  0.00000E+00  9.000E+00
      21    -1     0     0   501   511  0.000000000E+00  0.000000000E+00 -4.471663164E+01  4.471663164E+01  0.000000000E+00  0.00000E+00  9.000E+00
      25     1     1     2     0     0  1.833726748E+02  6.798023754E+01  5.445683888E+02  5.919683949E+02  1.250000000E+02  0.00000E+00  9.000E+00
      25     1     1     2     0     0 -2.011359971E+02 -5.524771255E+01  2.400055229E+03  2.412342865E+03  1.250000000E+02  0.00000E+00  9.000E+00
      21     1     1     2   502   511  1.776332233E+01 -1.273252498E+01 -6.843849943E+00  2.290177056E+01  8.960542904E-07  0.00000E+00  9.000E+00
#rwgt            1           1   3.8341681081942504E-002           4      337160           0
</event>
<event>
      5   9999  3.19816E-02  2.40849E+02 -1.00000E+00  1.08787E-01
      21    -1     0     0   502   501  0.000000000E+00  0.000000000E+00  1.439728690E+03  1.439728690E+03  0.000000000E+00  0.00000E+00  9.000E+00
      21    -1     0     0   512   502  0.000000000E+00  0.000000000E+00 -3.937946808E+02  3.937946808E+02  0.000000000E+00  0.00000E+00  9.000E+00
      25     1     1     2     0     0  1.007765288E+02 -6.206036666E+01  1.145238956E+03  1.158103909E+03  1.250000000E+02  0.00000E+00  9.000E+00
      25     1     1     2     0     0 -1.611676762E+02  2.952149265E+02  8.900345935E+01  3.696937766E+02  1.250000000E+02  0.00000E+00  9.000E+00
      21     1     1     2   512   501  6.039114739E+01 -2.331545598E+02 -1.883084054E+02  3.057256859E+02  5.394796609E-06  0.00000E+00  9.000E+00
#rwgt            2          11   5.0497949117160653E-003           4      337528           0
</event>
<event>
      5   9999  3.19816E-02  3.45479E+01 -1.00000E+00  1.48901E-01
      21    -1     0     0   502   501  0.000000000E+00  0.000000000E+00  2.550725860E+02  2.550725860E+02  0.000000000E+00  0.00000E+00  9.000E+00
       3    -1     0     0   501     0  0.000000000E+00  0.000000000E+00 -2.391766100E+03  2.391766100E+03  0.000000000E+00  0.00000E+00  9.000E+00
      25     1     1     2     0     0 -5.216944022E+02 -4.734088206E+02 -8.439863963E+02  1.106444304E+03  1.250000000E+02  0.00000E+00  9.000E+00
      25     1     1     2     0     0  4.905340303E+02  4.883281823E+02 -8.814197204E+02  1.127658535E+03  1.250000000E+02  0.00000E+00  9.000E+00
       3     1     1     2   502     0  3.116037191E+01 -1.491936172E+01 -4.112873973E+02  4.127358469E+02  5.394796609E-06  0.00000E+00  9.000E+00
#rwgt            1           1   2.8939059915868346E-002           4      337548           0
</event>
<event>
      5   9999  3.19816E-02  1.09920E+02 -1.00000E+00  1.22008E-01
      21    -1     0     0   502   511  0.000000000E+00  0.000000000E+00  2.621925815E+02  2.621925815E+02  0.000000000E+00  0.00000E+00  9.000E+00
      21    -1     0     0   501   502  0.000000000E+00  0.000000000E+00 -3.978561847E+02  3.978561847E+02  0.000000000E+00  0.00000E+00  9.000E+00
      25     1     1     2     0     0 -1.455217599E+02  1.632699040E+02 -1.079565830E+02  2.740679988E+02  1.250000000E+02  0.00000E+00  9.000E+00
      25     1     1     2     0     0  1.761731732E+02 -5.771046857E+01 -1.095048767E+02  2.489654658E+02  1.250000000E+02  0.00000E+00  9.000E+00
      21     1     1     2   501   511 -3.065141321E+01 -1.055594354E+02  8.179785654E+01  1.370153016E+02  2.861022949E-06  0.00000E+00  9.000E+00
#rwgt            1           1   2.5219636447019505E-002           4      337690           0
</event>
<event>
      5   9999  3.19816E-02  1.81373E+02 -1.00000E+00  1.13216E-01
      21    -1     0     0   512   501  0.000000000E+00  0.000000000E+00  1.062358543E+02  1.062358543E+02  0.000000000E+00  0.00000E+00  9.000E+00
      21    -1     0     0   501   502  0.000000000E+00  0.000000000E+00 -9.307739890E+02  9.307739890E+02  0.000000000E+00  0.00000E+00  9.000E+00
      25     1     1     2     0     0 -6.461641287E+01 -1.013763290E+02 -4.827333905E+02  5.129414852E+02  1.250000000E+02  0.00000E+00  9.000E+00
      25     1     1     2     0     0 -1.142087774E+02  7.108228973E+01 -2.752217069E+02  3.308599775E+02  1.250000000E+02  0.00000E+00  9.000E+00
      21     1     1     2   512   502  1.788251903E+02  3.029403924E+01 -6.658303721E+01  1.932083806E+02  2.132480600E-06  0.00000E+00  9.000E+00
#rwgt            1           1   2.3248967297216032E-002           4      337752           0
</event>
<event>
      5   9999  3.19816E-02  8.99207E+01 -1.00000E+00  1.25939E-01
      21    -1     0     0   511   501  0.000000000E+00  0.000000000E+00  2.742615386E+03  2.742615386E+03  0.000000000E+00  0.00000E+00  9.000E+00
      21    -1     0     0   501   502  0.000000000E+00  0.000000000E+00 -2.549666357E+01  2.549666357E+01  0.000000000E+00  0.00000E+00  9.000E+00
      25     1     1     2     0     0  1.059554048E+02 -7.285750284E+01  1.530669285E+03  1.541138613E+03  1.250000000E+02  0.00000E+00  9.000E+00
      25     1     1     2     0     0 -5.021901262E+01  1.434208225E+02  5.486507216E+02  5.828671340E+02  1.250000000E+02  0.00000E+00  9.000E+00
      21     1     1     2   511   502 -5.573639214E+01 -7.056331969E+01  6.377987151E+02  6.441063022E+02  7.629394531E-06  0.00000E+00  9.000E+00
#rwgt            1           1   8.1597365826180476E-002           4      337797           0
</event>
<event>
      5   9999  3.19816E-02  1.83782E+02 -1.00000E+00  1.13002E-01
      21    -1     0     0   502   501  0.000000000E+00  0.000000000E+00  3.938764094E+02  3.938764094E+02  0.000000000E+00  0.00000E+00  9.000E+00
       2    -1     0     0   501     0  0.000000000E+00  0.000000000E+00 -3.888018866E+02  3.888018866E+02  0.000000000E+00  0.00000E+00  9.000E+00
      25     1     1     2     0     0 -2.402698039E+02 -1.234324932E+01  1.839866810E+00  2.711278657E+02  1.250000000E+02  0.00000E+00  9.000E+00
      25     1     1     2     0     0  8.826384422E+01  1.156386376E+02  1.752632558E+02  2.598172618E+02  1.250000000E+02  0.00000E+00  9.000E+00
       2     1     1     2   502     0  1.520059596E+02 -1.032953883E+02 -1.720285998E+02  2.517331685E+02  4.264961200E-06  0.00000E+00  9.000E+00
#rwgt            1           1   3.1749652137457701E-002           4      337884           0
</event>
<event>
      5   9999  3.19816E-02  4.38167E+01 -1.00000E+00  1.42427E-01
      21    -1     0     0   502   511  0.000000000E+00  0.000000000E+00  1.283454250E+03  1.283454250E+03  0.000000000E+00  0.00000E+00  9.000E+00
      21    -1     0     0   501   502  0.000000000E+00  0.000000000E+00 -1.223712875E+02  1.223712875E+02  0.000000000E+00  0.00000E+00  9.000E+00
      25     1     1     2     0     0 -1.068301227E+00  1.171382309E+01  1.051484673E+03  1.058953905E+03  1.250000000E+02  0.00000E+00  9.000E+00
      25     1     1     2     0     0  3.401116821E+00 -5.546842038E+01 -7.578101258E+01  1.563843826E+02  1.250000000E+02  0.00000E+00  9.000E+00
      21     1     1     2   501   511 -2.332815595E+00  4.375459728E+01  1.853793016E+02  1.904872497E+02  2.697398305E-06  0.00000E+00  9.000E+00
#rwgt            1           1   2.9285075020927257E-002           4      337915           0
</event>
<event>
      5   9999  3.19816E-02  1.96938E+01 -1.00000E+00  1.66924E-01
      21    -1     0     0   502   501  0.000000000E+00  0.000000000E+00  7.133088590E+01  7.133088590E+01  0.000000000E+00  0.00000E+00  9.000E+00
      21    -1     0     0   512   502  0.000000000E+00  0.000000000E+00 -8.731398609E+02  8.731398609E+02  0.000000000E+00  0.00000E+00  9.000E+00
      25     1     1     2     0     0 -4.529120976E+01  4.481181194E+01 -2.726299721E+02  3.066129381E+02  1.250000000E+02  0.00000E+00  9.000E+00
      25     1     1     2     0     0  3.362246077E+01 -6.067638185E+01 -4.022827163E+01  1.485106293E+02  1.250000000E+02  0.00000E+00  9.000E+00
      21     1     1     2   512   501  1.166874899E+01  1.586456992E+01 -4.889507313E+02  4.893471793E+02  7.629394531E-06  0.00000E+00  9.000E+00
#rwgt            1           1   2.5577851944725880E-002           4      337997           0
</event>
<event>
      5   9999  3.19816E-02  3.02095E+01 -1.00000E+00  1.52830E-01
      21    -1     0     0   502   501  0.000000000E+00  0.000000000E+00  3.560674351E+02  3.560674351E+02  0.000000000E+00  0.00000E+00  9.000E+00
      21    -1     0     0   511   502  0.000000000E+00  0.000000000E+00 -1.930488144E+02  1.930488144E+02  0.000000000E+00  0.00000E+00  9.000E+00
      25     1     1     2     0     0 -7.262218750E+01  1.767947255E+02  9.626273575E+01  2.478343628E+02  1.250000000E+02  0.00000E+00  9.000E+00
      25     1     1     2     0     0  1.007564036E+02 -1.877982828E+02  9.022057475E+01  2.630300363E+02  1.250000000E+02  0.00000E+00  9.000E+00
      21     1     1     2   511   501 -2.813421611E+01  1.100355735E+01 -2.346468980E+01  3.825185038E+01  5.840038640E-07  0.00000E+00  9.000E+00
#rwgt            1           1   2.5815870623020452E-002           4      338119           0
</event>
<event>
      5   9999  3.19816E-02  6.13302E+01 -1.00000E+00  1.34196E-01
      21    -1     0     0   502   512  0.000000000E+00  0.000000000E+00  2.332062639E+03  2.332062639E+03  0.000000000E+00  0.00000E+00  9.000E+00
      21    -1     0     0   501   502  0.000000000E+00  0.000000000E+00 -1.913130533E+02  1.913130533E+02  0.000000000E+00  0.00000E+00  9.000E+00
      25     1     1     2     0     0  5.115988653E+02  2.646259527E+02  1.245866247E+03  1.378248163E+03  1.250000000E+02  0.00000E+00  9.000E+00
      25     1     1     2     0     0 -5.613994168E+02 -3.004212084E+02  7.775690999E+02  1.012749185E+03  1.250000000E+02  0.00000E+00  9.000E+00
      21     1     1     2   501   512  4.980055150E+01  3.579525566E+01  1.173142390E+02  1.323783439E+02  2.336015456E-06  0.00000E+00  9.000E+00
#rwgt            1           1   2.5734925299637043E-002           4      338227           0
</event>
<event>
      5   9999  3.19816E-02  4.52450E+01 -1.00000E+00  1.41598E-01
      21    -1     0     0   502   511  0.000000000E+00  0.000000000E+00  1.222130793E+02  1.222130793E+02  0.000000000E+00  0.00000E+00  9.000E+00
      21    -1     0     0   501   502  0.000000000E+00  0.000000000E+00 -1.746320391E+03  1.746320391E+03  0.000000000E+00  0.00000E+00  9.000E+00
      25     1     1     2     0     0  2.390945489E+02 -2.062832142E+02 -1.333494325E+03  1.376063618E+03  1.250000000E+02  0.00000E+00  9.000E+00
      25     1     1     2     0     0 -1.939175184E+02  2.087629972E+02 -3.135619082E+02  4.417375501E+02  1.250000000E+02  0.00000E+00  9.000E+00
      21     1     1     2   501   511 -4.517703045E+01 -2.479782980E+00  2.294892155E+01  5.073230139E+01  2.023048729E-06  0.00000E+00  9.000E+00
#rwgt            1           1   3.4900248751589244E-002           4      338323           0
</event>
<event>
      5   9999  3.19816E-02  1.09235E+02 -1.00000E+00  1.22127E-01
      21    -1     0     0   512   501  0.000000000E+00  0.000000000E+00  1.502596172E+02  1.502596172E+02  0.000000000E+00  0.00000E+00  9.000E+00
      21    -1     0     0   501   502  0.000000000E+00  0.000000000E+00 -7.913551532E+02  7.913551532E+02  0.000000000E+00  0.00000E+00  9.000E+00
      25     1     1     2     0     0 -1.745877921E+02  9.530908054E+01 -7.684240039E+01  2.471729607E+02  1.250000000E+02  0.00000E+00  9.000E+00
      25     1     1     2     0     0  1.284692107E+02 -1.943311314E+02 -5.053763336E+02  5.703500375E+02  1.250000000E+02  0.00000E+00  9.000E+00
      21     1     1     2   512   502  4.611858140E+01  9.902205088E+01 -5.887680198E+01  1.240917722E+02  1.507891493E-06  0.00000E+00  9.000E+00
#rwgt            1           1   3.0293972554431964E-002           4      338404           0
</event>
<event>
      5   9999  3.19816E-02  4.48474E+01 -1.00000E+00  1.41825E-01
       2    -1     0     0   502     0  0.000000000E+00  0.000000000E+00  8.277796304E+02  8.277796304E+02  0.000000000E+00  0.00000E+00  9.000E+00
      21    -1     0     0   501   502  0.000000000E+00  0.000000000E+00 -3.194606171E+02  3.194606171E+02  0.000000000E+00  0.00000E+00  9.000E+00
      25     1     1     2     0     0  2.446962220E+02 -1.735962883E+02 -3.799467169E+01  3.272315808E+02  1.250000000E+02  0.00000E+00  9.000E+00
      25     1     1     2     0     0 -2.053166567E+02  1.521361360E+02  1.295584930E+01  2.847686560E+02  1.250000000E+02  0.00000E+00  9.000E+00
       2     1     1     2   501     0 -3.937956533E+01  2.146015229E+01  5.333578357E+02  5.352400108E+02  1.078959322E-05  0.00000E+00  9.000E+00
#rwgt            1           1   2.7826803539258586E-002           4      338479           0
</event>
<event>
      5   9999  3.19816E-02  1.58562E+02 -1.00000E+00  1.15446E-01
      21    -1     0     0   502   501  0.000000000E+00  0.000000000E+00  2.992723809E+02  2.992723809E+02  0.000000000E+00  0.00000E+00  9.000E+00
      21    -1     0     0   501   511  0.000000000E+00  0.000000000E+00 -3.662409050E+02  3.662409050E+02  0.000000000E+00  0.00000E+00  9.000E+00
      25     1     1     2     0     0 -4.580485942E+01  3.227251665E+01  4.090178557E+01  1.429599823E+02  1.250000000E+02  0.00000E+00  9.000E+00
      25     1     1     2     0     0  1.885108664E+02 -1.013875801E+02  9.466365256E+01  2.653337432E+02  1.250000000E+02  0.00000E+00  9.000E+00
      21     1     1     2   502   511 -1.427060070E+02  6.911506346E+01 -2.025339623E+02  2.572195605E+02  3.814697266E-06  0.00000E+00  9.000E+00
#rwgt            1           1   2.6182635384103262E-002           4      338587           0
</event>
<event>
      5   9999  3.19816E-02  1.37557E+01 -1.00000E+00  1.81001E-01
      21    -1     0     0   512   501  0.000000000E+00  0.000000000E+00  3.361447769E+02  3.361447769E+02  0.000000000E+00  0.00000E+00  9.000E+00
      21    -1     0     0   501   502  0.000000000E+00  0.000000000E+00 -1.652988748E+02  1.652988748E+02  0.000000000E+00  0.00000E+00  9.000E+00
      25     1     1     2     0     0 -1.650643045E+02 -2.658066009E+00  1.191219934E+02  2.388898056E+02  1.250000000E+02  0.00000E+00  9.000E+00
      25     1     1     2     0     0  1.783239288E+02 -1.002877104E+00  9.318427986E+00  2.179730774E+02  1.250000000E+02  0.00000E+00  9.000E+00
      21     1     1     2   512   502 -1.325962439E+01  3.660943113E+00  4.240548078E+01  4.458076876E+01  0.000000000E+00  0.00000E+00  9.000E+00
#rwgt            1           1   3.0717169326900211E-002           4      338638           0
</event>
<event>
      5   9999  3.19816E-02  5.55501E+01 -1.00000E+00  1.36516E-01
      21    -1     0     0   511   501  0.000000000E+00  0.000000000E+00  5.593816717E+02  5.593816717E+02  0.000000000E+00  0.00000E+00  9.000E+00
      21    -1     0     0   501   502  0.000000000E+00  0.000000000E+00 -2.097497078E+03  2.097497078E+03  0.000000000E+00  0.00000E+00  9.000E+00
      25     1     1     2     0     0 -2.756137825E+02  6.201385632E+02 -1.569505522E+03  1.714499163E+03  1.250000000E+02  0.00000E+00  9.000E+00
      25     1     1     2     0     0  2.984792513E+02 -6.707645139E+02 -1.438839062E+02  7.585133322E+02  1.250000000E+02  0.00000E+00  9.000E+00
      21     1     1     2   511   502 -2.286546877E+01  5.062595075E+01  1.752740225E+02  1.838662544E+02  4.672030912E-06  0.00000E+00  9.000E+00
#rwgt            2          11   4.0762851006845881E-003           4      339023           0
</event>
<event>
      5   9999  3.19816E-02  1.33178E+02 -1.00000E+00  1.18478E-01
      21    -1     0     0   502   501  0.000000000E+00  0.000000000E+00  6.026586020E+02  6.026586020E+02  0.000000000E+00  0.00000E+00  9.000E+00
       2    -1     0     0   501     0  0.000000000E+00  0.000000000E+00 -1.839991509E+03  1.839991509E+03  0.000000000E+00  0.00000E+00  9.000E+00
      25     1     1     2     0     0  5.080622611E+02 -5.129640145E+02 -7.704014011E+02  1.063203960E+03  1.250000000E+02  0.00000E+00  9.000E+00
      25     1     1     2     0     0 -4.597267556E+02  3.888672340E+02  2.399512935E+02  6.601272898E+02  1.250000000E+02  0.00000E+00  9.000E+00
       2     1     1     2   502     0 -4.833550546E+01  1.240967806E+02 -7.068827998E+02  7.193188616E+02  1.078959322E-05  0.00000E+00  9.000E+00
#rwgt            2          13   1.4139353423467623E-003           4      339193           0
</event>
<event>
      5   9999  3.19816E-02  7.17203E+01 -1.00000E+00  1.30689E-01
      21    -1     0     0   511   501  0.000000000E+00  0.000000000E+00  6.525032680E+02  6.525032680E+02  0.000000000E+00  0.00000E+00  9.000E+00
      21    -1     0     0   501   502  0.000000000E+00  0.000000000E+00 -1.060061355E+03  1.060061355E+03  0.000000000E+00  0.00000E+00  9.000E+00
      25     1     1     2     0     0  1.448355624E+00 -1.205607534E+02 -9.551900815E+02  9.708501866E+02  1.250000000E+02  0.00000E+00  9.000E+00
      25     1     1     2     0     0 -4.131985125E+01  1.801767323E+02  3.715301041E+01  2.262218627E+02  1.250000000E+02  0.00000E+00  9.000E+00
      21     1     1     2   511   502  3.987149563E+01 -5.961597890E+01  5.104789837E+02  5.154925741E+02  7.629394531E-06  0.00000E+00  9.000E+00
#rwgt            1           1   2.9006545319328208E-002           4      339212           0
</event>
<event>
      5   9999  3.19816E-02  1.23286E+02 -1.00000E+00  1.19872E-01
      21    -1     0     0   502   501  0.000000000E+00  0.000000000E+00  9.828846974E+02  9.828846974E+02  0.000000000E+00  0.00000E+00  9.000E+00
      21    -1     0     0   501   512  0.000000000E+00  0.000000000E+00 -8.347308427E+02  8.347308427E+02  0.000000000E+00  0.00000E+00  9.000E+00
      25     1     1     2     0     0  4.088303693E+02  3.268642822E+02  6.088765363E+02  8.126119408E+02  1.250000000E+02  0.00000E+00  9.000E+00
      25     1     1     2     0     0 -4.227947030E+02 -4.493566066E+02 -1.176140531E+02  6.404176654E+02  1.250000000E+02  0.00000E+00  9.000E+00
      21     1     1     2   502   512  1.396433367E+01  1.224923243E+02 -3.431086286E+02  3.645859339E+02  0.000000000E+00  0.00000E+00  9.000E+00
#rwgt            2          11   3.2909192072406099E-003           4      339340           0
</event>
<event>
      5   9999  3.29811E-02  2.93084E+01 -1.00000E+00  1.53747E-01
      21    -1     0     0   502   501  0.000000000E+00  0.000000000E+00  1.480496546E+02  1.480496546E+02  0.000000000E+00  0.00000E+00  9.000E+00
      21    -1     0     0   501   511  0.000000000E+00  0.000000000E+00 -4.075690659E+02  4.075690659E+02  0.000000000E+00  0.00000E+00  9.000E+00
      25     1     1     2     0     0  8.699991734E+01 -6.368114425E+01  6.086884165E+01  1.759383120E+02  1.250000000E+02  0.00000E+00  9.000E+00
      25     1     1     2     0     0 -7.215689245E+01  8.895304054E+01 -2.378304826E+02  2.920746463E+02  1.250000000E+02  0.00000E+00  9.000E+00
      21     1     1     2   502   511 -1.484302489E+01 -2.527189629E+01 -8.255777034E+01  8.760576221E+01  0.000000000E+00  0.00000E+00  9.000E+00
#rwgt            1           1   2.6808883260045071E-002           4      339360           0
</event>
<event>
      5   9999  3.19816E-02  1.56458E+02 -1.00000E+00  1.15673E-01
      21    -1     0     0   512   501  0.000000000E+00  0.000000000E+00  5.435204373E+02  5.435204373E+02  0.000000000E+00  0.00000E+00  9.000E+00
      21    -1     0     0   501   502  0.000000000E+00  0.000000000E+00 -2.589672007E+03  2.589672007E+03  0.000000000E+00  0.00000E+00  9.000E+00
      25     1     1     2     0     0  4.421828674E+02  3.551421656E+02  2.723818399E+02  6.414581146E+02  1.250000000E+02  0.00000E+00  9.000E+00
      25     1     1     2     0     0 -2.888515352E+02 -3.862649570E+02 -2.275575659E+03  2.329486082E+03  1.250000000E+02  0.00000E+00  9.000E+00
      21     1     1     2   512   502 -1.533313323E+02  3.112279143E+01 -4.295775085E+01  1.622482479E+02  2.336015456E-06  0.00000E+00  9.000E+00
#rwgt            2          11   1.0696935376871729E-002           4      339480           0
</event>
<event>
      5   9999  3.19816E-02  4.27510E+01 -1.00000E+00  1.43071E-01
      21    -1     0     0   502   501  0.000000000E+00  0.000000000E+00  3.581541257E+03  3.581541257E+03  0.000000000E+00  0.00000E+00  9.000E+00
      21    -1     0     0   511   502  0.000000000E+00  0.000000000E+00 -4.570357119E+02  4.570357119E+02  0.000000000E+00  0.00000E+00  9.000E+00
      25     1     1     2     0     0  8.789198477E+02  1.654849660E+02  2.598278288E+02  9.396919034E+02  1.250000000E+02  0.00000E+00  9.000E+00
      25     1     1     2     0     0 -8.361761014E+02 -1.662742916E+02  2.911000225E+03  3.035849951E+03  1.250000000E+02  0.00000E+00  9.000E+00
      21     1     1     2   511   501 -4.274374632E+01  7.893256323E-01 -4.632250874E+01  6.303511482E+01  0.000000000E+00  0.00000E+00  9.000E+00
#rwgt            1           1   9.3987380826846559E-002           4      339515           0
</event>
<event>
      5   9999  3.19816E-02  4.12712E+01 -1.00000E+00  1.44002E-01
      21    -1     0     0   502   501  0.000000000E+00  0.000000000E+00  2.692019576E+02  2.692019576E+02  0.000000000E+00  0.00000E+00  9.000E+00
      21    -1     0     0   501   512  0.000000000E+00  0.000000000E+00 -2.285051360E+02  2.285051360E+02  0.000000000E+00  0.00000E+00  9.000E+00
      25     1     1     2     0     0 -2.818826222E+01  7.125018631E+01  1.650088959E+02  2.207353685E+02  1.250000000E+02  0.00000E+00  9.000E+00
      25     1     1     2     0     0  5.964212312E+01 -4.452997618E+01  5.314150433E-01  1.454832775E+02  1.250000000E+02  0.00000E+00  9.000E+00
      21     1     1     2   502   512 -3.145386090E+01 -2.672021013E+01 -1.248434894E+02  1.314884475E+02  1.348699152E-06  0.00000E+00  9.000E+00
#rwgt            1           1   2.3079111074323130E-002           4      339777           0
</event>
<event>
      5   9999  3.19816E-02  8.94049E+01 -1.00000E+00  1.26056E-01
      21    -1     0     0   502   501  0.000000000E+00  0.000000000E+00  4.379760103E+02  4.379760103E+02  0.000000000E+00  0.00000E+00  9.000E+00
      21    -1     0     0   511   502  0.000000000E+00  0.000000000E+00 -5.663155330E+02  5.663155330E+02  0.000000000E+00  0.00000E+00  9.000E+00
      25     1     1     2     0     0 -5.014992383E+01 -2.684710870E+02 -3.117475271E+02  4.329009819E+02  1.250000000E+02  0.00000E+00  9.000E+00
      25     1     1     2     0     0  6.161692601E+01  1.798045986E+02  3.293274746E+02  4.002598216E+02  1.250000000E+02  0.00000E+00  9.000E+00
      21     1     1     2   511   501 -1.146700218E+01  8.866648839E+01 -1.459194702E+02  1.711307398E+02  0.000000000E+00  0.00000E+00  9.000E+00
#rwgt            2          11   2.7145715298175313E-003           4      339843           0
</event>
<event>
      5   9999  3.19816E-02  6.32486E+01 -1.00000E+00  1.33491E-01
      21    -1     0     0   502   501  0.000000000E+00  0.000000000E+00  2.894625049E+02  2.894625049E+02  0.000000000E+00  0.00000E+00  9.000E+00
      21    -1     0     0   512   502  0.000000000E+00  0.000000000E+00 -7.323490305E+02  7.323490305E+02  0.000000000E+00  0.00000E+00  9.000E+00
      25     1     1     2     0     0  2.603779774E+01  3.266908095E+02 -8.042818434E+01  3.598590623E+02  1.250000000E+02  0.00000E+00  9.000E+00
      25     1     1     2     0     0 -4.868695202E+01 -3.857450554E+02 -1.416629022E+02  4.322765839E+02  1.250000000E+02  0.00000E+00  9.000E+00
      21     1     1     2   512   501  2.264915428E+01  5.905424597E+01 -2.207954391E+02  2.296758892E+02  4.672030912E-06  0.00000E+00  9.000E+00
#rwgt            1           1   2.8285835642508913E-002           4      339893           0
</event>
<event>
      5   9999  3.19816E-02  7.89950E+00 -1.00000E+00  2.08391E-01
      21    -1     0     0   502   501  0.000000000E+00  0.000000000E+00  2.646278805E+02  2.646278805E+02  0.000000000E+00  0.00000E+00  9.000E+00
      21    -1     0     0   511   502  0.000000000E+00  0.000000000E+00 -8.890523260E+02  8.890523260E+02  0.000000000E+00  0.00000E+00  9.000E+00
      25     1     1     2     0     0 -1.692905405E+01 -2.819429954E+02  1.223997063E+02  3.322425825E+02  1.250000000E+02  0.00000E+00  9.000E+00
      25     1     1     2     0     0  2.447892556E+01  2.796188806E+02 -5.972366280E+02  6.716416649E+02  1.250000000E+02  0.00000E+00  9.000E+00
      21     1     1     2   511   501 -7.549871511E+00  2.324114796E+00 -1.495875239E+02  1.497959591E+02  1.907348633E-06  0.00000E+00  9.000E+00
#rwgt            1           1   2.7096095877186629E-002           4      339996           0
</event>
<event>
      5   9999  3.19816E-02  5.15709E+01 -1.00000E+00  1.38313E-01
      21    -1     0     0   502   501  0.000000000E+00  0.000000000E+00  2.349630258E+02  2.349630258E+02  0.000000000E+00  0.00000E+00  9.000E+00
      21    -1     0     0   501   512  0.000000000E+00  0.000000000E+00 -7.568660462E+02  7.568660462E+02  0.000000000E+00  0.00000E+00  9.000E+00
      25     1     1     2     0     0 -2.398385848E+02  2.530229202E+02 -1.971069435E+02  4.195465315E+02  1.250000000E+02  0.00000E+00  9.000E+00
      25     1     1     2     0     0  2.310403636E+02 -2.022080951E+02 -1.068158593E+02  3.482849281E+02  1.250000000E+02  0.00000E+00  9.000E+00
      21     1     1     2   502   512  8.798221191E+00 -5.081482508E+01 -2.179802175E+02  2.239976124E+02  0.000000000E+00  0.00000E+00  9.000E+00
#rwgt            1           1   2.5945393113380164E-002           4      340293           0
</event>
<event>
      5   9999  3.19816E-02  1.08898E+01 -1.00000E+00  1.91573E-01
      21    -1     0     0   502   511  0.000000000E+00  0.000000000E+00  1.329051561E+02  1.329051561E+02  0.000000000E+00  0.00000E+00  9.000E+00
      21    -1     0     0   501   502  0.000000000E+00  0.000000000E+00 -9.001681950E+02  9.001681950E+02  0.000000000E+00  0.00000E+00  9.000E+00
      25     1     1     2     0     0 -2.303072476E+02 -1.577743635E+02 -5.402238563E+02  6.208067275E+02  1.250000000E+02  0.00000E+00  9.000E+00
      25     1     1     2     0     0  2.242070914E+02  1.667951779E+02 -2.444349955E+02  3.917434342E+02  1.250000000E+02  0.00000E+00  9.000E+00
      21     1     1     2   501   511  6.100156254E+00 -9.020814378E+00  1.739581287E+01  2.052318942E+01  5.331201500E-07  0.00000E+00  9.000E+00
#rwgt            1           1   2.8106323523988310E-002           4      340416           0
</event>
<event>
      5   9999  3.19816E-02  1.40583E+02 -1.00000E+00  1.17521E-01
      21    -1     0     0   502   501  0.000000000E+00  0.000000000E+00  4.524273462E+02  4.524273462E+02  0.000000000E+00  0.00000E+00  9.000E+00
      21    -1     0     0   501   512  0.000000000E+00  0.000000000E+00 -1.215764718E+03  1.215764718E+03  0.000000000E+00  0.00000E+00  9.000E+00
      25     1     1     2     0     0 -3.588549850E+02 -1.150636646E+02 -1.008397322E+03  1.083746606E+03  1.250000000E+02  0.00000E+00  9.000E+00
      25     1     1     2     0     0  2.187301701E+02  1.037271745E+02  3.239137409E+02  4.232579894E+02  1.250000000E+02  0.00000E+00  9.000E+00
      21     1     1     2   502   512  1.401248149E+02  1.133649016E+01 -7.885379076E+01  1.611874687E+02  3.303624740E-06  0.00000E+00  9.000E+00
#rwgt            1           1   2.3621332212759891E-002           4      340588           0
</event>
<event>
      5   9999  3.19816E-02  1.66949E+01 -1.00000E+00  1.73113E-01
      21    -1     0     0   502   511  0.000000000E+00  0.000000000E+00  2.996535958E+02  2.996535958E+02  0.000000000E+00  0.00000E+00  9.000E+00
      21    -1     0     0   501   502  0.000000000E+00  0.000000000E+00 -2.493294497E+02  2.493294497E+02  0.000000000E+00  0.00000E+00  9.000E+00
      25     1     1     2     0     0 -1.533440148E+02 -1.022157909E+02 -2.964704071E+01  2.246472831E+02  1.250000000E+02  0.00000E+00  9.000E+00
      25     1     1     2     0     0  1.690166337E+02  9.646361854E+01 -1.128114436E+01  2.315688157E+02  1.250000000E+02  0.00000E+00  9.000E+00
      21     1     1     2   501   511 -1.567261895E+01  5.752172341E+00  9.125233119E+01  9.276694680E+01  1.907348633E-06  0.00000E+00  9.000E+00
#rwgt            1           1   3.1236597386648447E-002           4      340688           0
</event>
<event>
      5   9999  3.19816E-02  1.58058E+02 -1.00000E+00  1.15500E-01
      21    -1     0     0   502   501  0.000000000E+00  0.000000000E+00  6.456533927E+02  6.456533927E+02  0.000000000E+00  0.00000E+00  9.000E+00
      21    -1     0     0   501   512  0.000000000E+00  0.000000000E+00 -2.028500493E+03  2.028500493E+03  0.000000000E+00  0.00000E+00  9.000E+00
      25     1     1     2     0     0  2.384135291E+02 -7.566414180E+02 -1.570337070E+03  1.763783082E+03  1.250000000E+02  0.00000E+00  9.000E+00
      25     1     1     2     0     0 -2.391317641E+02  5.985847582E+02  2.943782379E+02  7.195632428E+02  1.250000000E+02  0.00000E+00  9.000E+00
      21     1     1     2   502   512  7.182349868E-01  1.580566598E+02 -1.068882682E+02  1.908075613E+02  3.015782986E-06  0.00000E+00  9.000E+00
#rwgt            1           1   3.0403021587358268E-002           4      340860           0
</event>
<event>
      5   9999  3.19816E-02  3.05199E+02 -1.00000E+00  1.05350E-01
      21    -1     0     0   502   501  0.000000000E+00  0.000000000E+00  9.030129395E+02  9.030129395E+02  0.000000000E+00  0.00000E+00  9.000E+00
       2    -1     0     0   501     0  0.000000000E+00  0.000000000E+00 -3.620402227E+03  3.620402227E+03  0.000000000E+00  0.00000E+00  9.000E+00
      25     1     1     2     0     0  2.778542617E+02  7.357924196E+01  4.036131208E+01  3.160236243E+02  1.250000000E+02  0.00000E+00  9.000E+00
      25     1     1     2     0     0 -2.791500045E+02  2.316170353E+02  6.667842615E+02  7.692837106E+02  1.250000000E+02  0.00000E+00  9.000E+00
       2     1     1     2   502     0  1.295742762E+00 -3.051962773E+02 -3.424534861E+03  3.438107832E+03  0.000000000E+00  0.00000E+00  9.000E+00
#rwgt            2          13   2.0374145663215666E-002           4      340918           0
</event>
<event>
      5   9999  3.19816E-02  7.58214E+01 -1.00000E+00  1.29487E-01
      21    -1     0     0   502   501  0.000000000E+00  0.000000000E+00  1.007581408E+02  1.007581408E+02  0.000000000E+00  0.00000E+00  9.000E+00
      21    -1     0     0   511   502  0.000000000E+00  0.000000000E+00 -8.608326928E+02  8.608326928E+02  0.000000000E+00  0.00000E+00  9.000E+00
      25     1     1     2     0     0 -1.571064161E+02  1.390891222E+02 -3.630772453E+02  4.375823305E+02  1.250000000E+02  0.00000E+00  9.000E+00
      25     1     1     2     0     0  2.151473688E+02 -9.030249671E+01 -2.872359990E+02  3.906052359E+02  1.250000000E+02  0.00000E+00  9.000E+00
      21     1     1     2   511   501 -5.804095267E+01 -4.878662551E+01 -1.097613077E+02  1.334032672E+02  0.000000000E+00  0.00000E+00  9.000E+00
#rwgt            1           1   2.5196971932007282E-002           4      340967           0
</event>
<event>
      5   9999  3.28800E-02  1.66010E+02 -1.00000E+00  1.14674E-01
      21    -1     0     0   502   501  0.000000000E+00  0.000000000E+00  2.561156790E+03  2.561156790E+03  0.000000000E+00  0.00000E+00  9.000E+00
      21    -1     0     0   512   502  0.000000000E+00  0.000000000E+00 -6.580709070E+01  6.580709070E+01  0.000000000E+00  0.00000E+00  9.000E+00
      25     1     1     2     0     0 -2.138418744E+02 -2.197301195E+01  1.479362330E+03  1.500116351E+03  1.250000000E+02  0.00000E+00  9.000E+00
      25     1     1     2     0     0  2.291680496E+02  1.872743210E+02  6.814024059E+02  7.533418248E+02  1.250000000E+02  0.00000E+00  9.000E+00
      21     1     1     2   512   501 -1.532617525E+01 -1.653013091E+02  3.345849628E+02  3.735057051E+02  5.394796609E-06  0.00000E+00  9.000E+00
#rwgt            1           1   9.1228200392417455E-002           4      341087           0
</event>
<event>
      5   9999  3.19816E-02  2.37548E+01 -1.00000E+00  1.60431E-01
      21    -1     0     0   502   501  0.000000000E+00  0.000000000E+00  3.971885812E+02  3.971885812E+02  0.000000000E+00  0.00000E+00  9.000E+00
      21    -1     0     0   501   511  0.000000000E+00  0.000000000E+00 -1.278323460E+03  1.278323460E+03  0.000000000E+00  0.00000E+00  9.000E+00
      25     1     1     2     0     0 -2.780528250E+02  1.297586924E+02  1.752913439E+02  3.748369606E+02  1.250000000E+02  0.00000E+00  9.000E+00
      25     1     1     2     0     0  2.778511925E+02 -1.060047504E+02 -9.130414177E+01  3.352607024E+02  1.250000000E+02  0.00000E+00  9.000E+00
      21     1     1     2   502   511  2.016324720E-01 -2.375394204E+01 -9.651220807E+02  9.654143779E+02  1.078959322E-05  0.00000E+00  9.000E+00
#rwgt            1           1   2.9160327426758038E-002           4      341148           0
</event>
<event>
      5   9999  3.19816E-02  6.08013E+01 -1.00000E+00  1.34396E-01
      21    -1     0     0   502   501  0.000000000E+00  0.000000000E+00  7.226903573E+01  7.226903573E+01  0.000000000E+00  0.00000E+00  9.000E+00
       2    -1     0     0   501     0  0.000000000E+00  0.000000000E+00 -9.234096047E+02  9.234096047E+02  0.000000000E+00  0.00000E+00  9.000E+00
      25     1     1     2     0     0 -2.909767343E+01  1.012905714E+02 -5.334705074E+01  1.719807032E+02  1.250000000E+02  0.00000E+00  9.000E+00
      25     1     1     2     0     0  1.844572452E+01 -4.142956708E+01 -4.061628305E+02  4.273755944E+02  1.250000000E+02  0.00000E+00  9.000E+00
       2     1     1     2   502     0  1.065194891E+01 -5.986100434E+01 -3.916306878E+02  3.963223429E+02  0.000000000E+00  0.00000E+00  9.000E+00
#rwgt            1           1   3.1572851230785209E-002           4      341253           0
</event>
<event>
      5   9999  3.19816E-02  1.34133E+02 -1.00000E+00  1.18351E-01
      21    -1     0     0   502   501  0.000000000E+00  0.000000000E+00  1.357199015E+03  1.357199015E+03  0.000000000E+00  0.00000E+00  9.000E+00
      21    -1     0     0   511   502  0.000000000E+00  0.000000000E+00 -1.624835655E+02  1.624835655E+02  0.000000000E+00  0.00000E+00  9.000E+00
      25     1     1     2     0     0  1.507449271E+02  5.397099312E+01 -4.877328010E+01  2.089036477E+02  1.250000000E+02  0.00000E+00  9.000E+00
      25     1     1     2     0     0 -2.675589317E+01 -2.802010182E+00  1.123675884E+03  1.130927151E+03  1.250000000E+02  0.00000E+00  9.000E+00
      21     1     1     2   511   501 -1.239890339E+02 -5.116898294E+01  1.198128454E+02  1.798517814E+02  2.336015456E-06  0.00000E+00  9.000E+00
#rwgt            1           1   2.9120306861363441E-002           4      341304           0
</event>
<event>
      5   9999  3.19816E-02  2.01313E+01 -1.00000E+00  1.66135E-01
      21    -1     0     0   512   501  0.000000000E+00  0.000000000E+00  1.651067579E+02  1.651067579E+02  0.000000000E+00  0.00000E+00  9.000E+00
      21    -1     0     0   501   502  0.000000000E+00  0.000000000E+00 -1.338651445E+03  1.338651445E+03  0.000000000E+00  0.00000E+00  9.000E+00
      25     1     1     2     0     0  3.394118211E+02 -2.735875654E+02 -5.271790540E+02  6.954087253E+02  1.250000000E+02  0.00000E+00  9.000E+00
      25     1     1     2     0     0 -3.255307530E+02  2.881679332E+02 -6.454608876E+02  7.881978091E+02  1.250000000E+02  0.00000E+00  9.000E+00
      21     1     1     2   512   502 -1.388106805E+01 -1.458036777E+01 -9.047452773E-01  2.015166838E+01  1.290478414E-07  0.00000E+00  9.000E+00
#rwgt            1           1   2.6468773574609899E-002           4      341381           0
</event>
<event>
      5   9999  3.19816E-02  4.87108E+01 -1.00000E+00  1.39726E-01
      21    -1     0     0   502   501  0.000000000E+00  0.000000000E+00  1.703575413E+02  1.703575413E+02  0.000000000E+00  0.00000E+00  9.000E+00
      21    -1     0     0   501   511  0.000000000E+00  0.000000000E+00 -9.475665252E+02  9.475665252E+02  0.000000000E+00  0.00000E+00  9.000E+00
      25     1     1     2     0     0 -9.689445665E+01 -3.115602264E+02 -2.793924912E+02  4.473739762E+02  1.250000000E+02  0.00000E+00  9.000E+00
      25     1     1     2     0     0  7.559244719E+01  3.553662879E+02 -3.685217749E+02  5.323839923E+02  1.250000000E+02  0.00000E+00  9.000E+00
      21     1     1     2   502   511  2.130200946E+01 -4.380606144E+01 -1.292947178E+02  1.381660981E+02  0.000000000E+00  0.00000E+00  9.000E+00
#rwgt            1           1   3.0940683612247923E-002           4      341576           0
</event>
<event>
      5   9999  3.19816E-02  7.87921E+01 -1.00000E+00  1.28670E-01
      21    -1     0     0   502   501  0.000000000E+00  0.000000000E+00  2.168053556E+03  2.168053556E+03  0.000000000E+00  0.00000E+00  9.000E+00
      21    -1     0     0   512   502  0.000000000E+00  0.000000000E+00 -1.032115000E+03  1.032115000E+03  0.000000000E+00  0.00000E+00  9.000E+00
      25     1     1     2     0     0  9.328105751E+02  1.041364013E+03  2.195042304E+02  1.420697604E+03  1.250000000E+02  0.00000E+00  9.000E+00
      25     1     1     2     0     0 -8.831182654E+02 -9.802177524E+02  1.003284104E+03  1.662205976E+03  1.250000000E+02  0.00000E+00  9.000E+00
      21     1     1     2   512   501 -4.969230973E+01 -6.114626013E+01 -8.684977797E+01  1.172649765E+02  2.132480600E-06  0.00000E+00  9.000E+00
#rwgt            1           1   5.6884265098958726E-002           4      341705           0
</event>
<event>
      5   9999  3.19816E-02  1.39466E+02 -1.00000E+00  1.17661E-01
       2    -1     0     0   502     0  0.000000000E+00  0.000000000E+00  1.603833427E+03  1.603833427E+03  0.000000000E+00  0.00000E+00  9.000E+00
      21    -1     0     0   501   502  0.000000000E+00  0.000000000E+00 -2.456859747E+02  2.456859747E+02  0.000000000E+00  0.00000E+00  9.000E+00
      25     1     1     2     0     0 -1.846183073E+02 -1.606238353E+02 -1.155232354E+02  2.980848097E+02  1.250000000E+02  0.00000E+00  9.000E+00
      25     1     1     2     0     0  1.146099616E+02  4.000254014E+01  1.809196263E+02  2.511823196E+02  1.250000000E+02  0.00000E+00  9.000E+00
       2     1     1     2   501     0  7.000834575E+01  1.206212951E+02  1.292751062E+03  1.300252273E+03  2.157918644E-05  0.00000E+00  9.000E+00
#rwgt            1           1   2.9369704809490006E-002           4      341893           0
</event>
<event>
      5   9999  3.19816E-02  2.27014E+02 -1.00000E+00  1.09681E-01
      21    -1     0     0   502   501  0.000000000E+00  0.000000000E+00  3.393210874E+02  3.393210874E+02  0.000000000E+00  0.00000E+00  9.000E+00
       2    -1     0     0   501     0  0.000000000E+00  0.000000000E+00 -3.177235375E+03  3.177235375E+03  0.000000000E+00  0.00000E+00  9.000E+00
      25     1     1     2     0     0  2.333601478E+02  2.406719125E+02 -1.041760873E+02  3.726359956E+02  1.250000000E+02  0.00000E+00  9.000E+00
      25     1     1     2     0     0 -3.541288764E+02 -4.844733141E+01  2.157708957E+01  3.792690019E+02  1.250000000E+02  0.00000E+00  9.000E+00
       2     1     1     2   502     0  1.207687286E+02 -1.922245810E+02 -2.755315290E+03  2.764651465E+03  0.000000000E+00  0.00000E+00  9.000E+00
#rwgt            1           1   2.6827012657367314E-002           4      341955           0
</event>
<event>
      5   9999  3.19816E-02  2.75370E+01 -1.00000E+00  1.55670E-01
      21    -1     0     0   502   511  0.000000000E+00  0.000000000E+00  5.458783772E+02  5.458783772E+02  0.000000000E+00  0.00000E+00  9.000E+00
      21    -1     0     0   501   502  0.000000000E+00  0.000000000E+00 -2.385586890E+03  2.385586890E+03  0.000000000E+00  0.00000E+00  9.000E+00
      25     1     1     2     0     0  4.838942676E+01 -1.749737928E+02 -6.812708997E+02  7.160393869E+02  1.250000000E+02  0.00000E+00  9.000E+00
      25     1     1     2     0     0 -6.533661899E+01  1.966781408E+02 -1.677884303E+03  1.695249804E+03  1.250000000E+02  0.00000E+00  9.000E+00
      21     1     1     2   501   511  1.694719224E+01 -2.170434794E+01  5.194466901E+02  5.201760759E+02  1.321449896E-05  0.00000E+00  9.000E+00
#rwgt            1           1   5.7752402685585708E-002           4      341999           0
</event>
<event>
      5   9999  3.19816E-02  1.13081E+02 -1.00000E+00  1.21473E-01
      21    -1     0     0   512   501  0.000000000E+00  0.000000000E+00  6.461745535E+02  6.461745535E+02  0.000000000E+00  0.00000E+00  9.000E+00
      21    -1     0     0   501   502  0.000000000E+00  0.000000000E+00 -4.751225696E+02  4.751225696E+02  0.000000000E+00  0.00000E+00  9.000E+00
      25     1     1     2     0     0  1.923080727E+02  2.454328977E+02 -3.299043377E+02  4.708307277E+02  1.250000000E+02  0.00000E+00  9.000E+00
      25     1     1     2     0     0 -2.356978610E+02 -1.410072879E+02  3.593026904E+02  4.692120632E+02  1.250000000E+02  0.00000E+00  9.000E+00
      21     1     1     2   512   502  4.338978827E+01 -1.044256098E+02  1.416536313E+02  1.812543322E+02  0.000000000E+00  0.00000E+00  9.000E+00
#rwgt            1           1   2.9111042555105073E-002           4      342183           0
</event>
<event>
      5   9999  3.19816E-02  7.32250E+01 -1.00000E+00  1.30238E-01
      21    -1     0     0   502   511  0.000000000E+00  0.000000000E+00  2.616933610E+03  2.616933610E+03  0.000000000E+00  0.00000E+00  9.000E+00
      21    -1     0     0   501   502  0.000000000E+00  0.000000000E+00 -5.569662778E+01  5.569662778E+01  0.000000000E+00  0.00000E+00  9.000E+00
      25     1     1     2     0     0 -1.442927143E+02 -9.484332561E+01  7.915431127E+02  8.197445597E+02  1.250000000E+02  0.00000E+00  9.000E+00
      25     1     1     2     0     0  9.644075418E+01  1.502697927E+02  2.509985521E+02  3.324260863E+02  1.250000000E+02  0.00000E+00  9.000E+00
      21     1     1     2   501   511  4.785196015E+01 -5.542646709E+01  1.518695317E+03  1.520459592E+03  0.000000000E+00  0.00000E+00  9.000E+00
#rwgt            1           1   3.3426516416479382E-002           4      342265           0
</event>
<event>
      5   9999  3.19816E-02  1.38806E+02 -1.00000E+00  1.17744E-01
      21    -1     0     0   512   501  0.000000000E+00  0.000000000E+00  1.266150014E+03  1.266150014E+03  0.000000000E+00  0.00000E+00  9.000E+00
      21    -1     0     0   501   502  0.000000000E+00  0.000000000E+00 -3.551843963E+02  3.551843963E+02  0.000000000E+00  0.00000E+00  9.000E+00
      25     1     1     2     0     0  4.898496401E+02 -3.189198581E+01  9.886035890E+01  5.161086506E+02  1.250000000E+02  0.00000E+00  9.000E+00
      25     1     1     2     0     0 -4.786296974E+02 -1.064602658E+02  3.313799598E+02  6.048618464E+02  1.250000000E+02  0.00000E+00  9.000E+00
      21     1     1     2   512   502 -1.121994272E+01  1.383522516E+02  4.807252992E+02  5.003639135E+02  9.344061824E-06  0.00000E+00  9.000E+00
#rwgt            2          11   2.3720528421980205E-003           4      342380           0
</event>
<event>
      5   9999  3.19816E-02  2.68294E+01 -1.00000E+00  1.56487E-01
      21    -1     0     0   502   501  0.000000000E+00  0.000000000E+00  3.644837131E+02  3.644837131E+02  0.000000000E+00  0.00000E+00  9.000E+00
      21    -1     0     0   501   511  0.000000000E+00  0.000000000E+00 -2.819301020E+02  2.819301020E+02  0.000000000E+00  0.00000E+00  9.000E+00
      25     1     1     2     0     0 -1.034390790E+02  1.382197679E+02 -1.735752371E+02  2.748776277E+02  1.250000000E+02  0.00000E+00  9.000E+00
      25     1     1     2     0     0  9.317894335E+01 -1.630097719E+02  2.602442266E+02  3.443930294E+02  1.250000000E+02  0.00000E+00  9.000E+00
      21     1     1     2   502   511  1.026013566E+01  2.479000400E+01 -4.115378418E+00  2.714315792E+01  4.298152060E-07  0.00000E+00  9.000E+00
#rwgt            1           1   2.8484731421798647E-002           4      342400           0
</event>
<event>
      5   9999  3.19816E-02  1.06990E+02 -1.00000E+00  1.22522E-01
      21    -1     0     0   502   501  0.000000000E+00  0.000000000E+00  1.520015112E+02  1.520015112E+02  0.000000000E+00  0.00000E+00  9.000E+00
      21    -1     0     0   501   512  0.000000000E+00  0.000000000E+00 -6.126327088E+02  6.126327088E+02  0.000000000E+00  0.00000E+00  9.000E+00
      25     1     1     2     0     0 -9.093551151E+01 -6.851510178E+01  3.889867736E+01  1.734983963E+02  1.250000000E+02  0.00000E+00  9.000E+00
      25     1     1     2     0     0  9.791880219E+01 -3.824716208E+01 -1.370956819E+02  2.132396849E+02  1.250000000E+02  0.00000E+00  9.000E+00
      21     1     1     2   502   512 -6.983290677E+00  1.067622639E+02 -3.624341930E+02  3.778961387E+02  0.000000000E+00  0.00000E+00  9.000E+00
#rwgt            1           1   3.0975231573164723E-002           4      342532           0
</event>
</LesHouchesEvents>
 #Random number generator exit values:            4        342593             0
